
    -----------------------------------------------------------------------
          Psi4: An Open-Source Ab Initio Electronic Structure Package
                               Psi4 1.3.2 release

                         Git: Rev {HEAD} ecbda83 


    R. M. Parrish, L. A. Burns, D. G. A. Smith, A. C. Simmonett,
    A. E. DePrince III, E. G. Hohenstein, U. Bozkaya, A. Yu. Sokolov,
    R. Di Remigio, R. M. Richard, J. F. Gonthier, A. M. James,
    H. R. McAlexander, A. Kumar, M. Saitow, X. Wang, B. P. Pritchard,
    P. Verma, H. F. Schaefer III, K. Patkowski, R. A. King, E. F. Valeev,
    F. A. Evangelista, J. M. Turney, T. D. Crawford, and C. D. Sherrill,
    J. Chem. Theory Comput. 13(7) pp 3185--3197 (2017).
    (doi: 10.1021/acs.jctc.7b00174)


                         Additional Contributions by
    P. Kraus, H. Kruse, M. H. Lechner, M. C. Schieber, R. A. Shaw,
    A. Alenaizan, R. Galvelis, Z. L. Glick, S. Lehtola, and J. P. Misiewicz

    -----------------------------------------------------------------------


    Psi4 started on: Friday, 10 September 2021 05:18PM

    Process ID: 56896
    Host:       r282
    PSIDATADIR: /home/r08543048/miniconda3/share/psi4
    Memory:     500.0 MiB
    Threads:    1
    
  ==> Input File <==

--------------------------------------------------------------------------
# Any line starting with the # character is a comment line
#! Sample  computation

memory 22 gb

molecule Dimer {
0 1
 C -3.132978    0.298451    0.205170
 O -2.798110   -0.304591   -0.928829
 O -2.358804    0.711791    1.048660
 H -4.218633    0.383041    0.296178
 H -1.804707   -0.353692   -0.955782










    
    
    
 --
0 1
 C  1.881903   -0.784906    0.752933 
 C  0.693951   -1.223721   -0.085219
 H  1.518133   -0.205499    1.608093
 H  2.330173   -1.693014    1.165987
 O -0.151808   -0.136761   -0.486423
 H  1.034162   -1.685006   -1.012510
 H  0.103626   -1.962879    0.464139
 H -0.499792    0.289950    0.315946
 C  2.954385    0.004201    0.004256
 H  3.837276    0.069332    0.643870
 H  3.257867   -0.565740   -0.878474
 C  2.537677    1.412408   -0.409177
 H  2.209853    1.985159    0.459939
 H  3.375260    1.943706   -0.860777
 H  1.716938    1.392528   -1.121643
 
 







units angstrom

no_reorient
symmetry c1
}

set globals{
  basis jun-cc-pvtz
}

energy('sapt0')


--------------------------------------------------------------------------

  Memory set to  20.489 GiB by Python driver.

  //>>>>>>>>>>>>>>>>>>>>>>>>>>>>>>>>>>>//
  //              Dimer HF             //
  //<<<<<<<<<<<<<<<<<<<<<<<<<<<<<<<<<<<//


*** tstart() called on r282
*** at Fri Sep 10 17:18:17 2021

   => Loading Basis Set <=

    Name: JUN-CC-PVTZ
    Role: ORBITAL
    Keyword: BASIS
    atoms 1, 6-7, 14, 17                entry C          line   217 file /home/r08543048/miniconda3/share/psi4/basis/jun-cc-pvtz.gbs 
    atoms 2-3, 10                       entry O          line   305 file /home/r08543048/miniconda3/share/psi4/basis/jun-cc-pvtz.gbs 
    atoms 4-5, 8-9, 11-13, 15-16, 18-20 entry H          line    36 file /home/r08543048/miniconda3/share/psi4/basis/jun-cc-pvtz.gbs 


         ---------------------------------------------------------
                                   SCF
               by Justin Turney, Rob Parrish, Andy Simmonett
                          and Daniel G. A. Smith
                              RHF Reference
                        1 Threads,  20980 MiB Core
         ---------------------------------------------------------

  ==> Geometry <==

    Molecular point group: c1
    Full point group: C1

    Geometry (in Angstrom), charge = 0, multiplicity = 1:

       Center              X                  Y                   Z               Mass       
    ------------   -----------------  -----------------  -----------------  -----------------
         C           -3.026943225258     0.295139968615     0.206186899200    12.000000000000
         O           -2.692075225258    -0.307902031385    -0.927812100800    15.994914619570
         O           -2.252769225258     0.708479968615     1.049676899200    15.994914619570
         H           -4.112598225258     0.379729968615     0.297194899200     1.007825032230
         H           -1.698672225258    -0.357003031385    -0.954765100800     1.007825032230
         C            1.987937774742    -0.788217031385     0.753949899200    12.000000000000
         C            0.799985774742    -1.227032031385    -0.084202100800    12.000000000000
         H            1.624167774742    -0.208810031385     1.609109899200     1.007825032230
         H            2.436207774742    -1.696325031385     1.167003899200     1.007825032230
         O           -0.045773225258    -0.140072031385    -0.485406100800    15.994914619570
         H            1.140196774742    -1.688317031385    -1.011493100800     1.007825032230
         H            0.209660774742    -1.966190031385     0.465155899200     1.007825032230
         H           -0.393757225258     0.286638968615     0.316962899200     1.007825032230
         C            3.060419774742     0.000889968615     0.005272899200    12.000000000000
         H            3.943310774742     0.066020968615     0.644886899200     1.007825032230
         H            3.363901774742    -0.569051031385    -0.877457100800     1.007825032230
         C            2.643711774742     1.409096968615    -0.408160100800    12.000000000000
         H            2.315887774742     1.981847968615     0.460955899200     1.007825032230
         H            3.481294774742     1.940394968615    -0.859760100800     1.007825032230
         H            1.822972774742     1.389216968615    -1.120626100800     1.007825032230

  Running in c1 symmetry.

  Rotational constants: A =      0.12519  B =      0.02441  C =      0.02350 [cm^-1]
  Rotational constants: A =   3753.14791  B =    731.71035  C =    704.63131 [MHz]
  Nuclear repulsion =  388.678854267363533

  Charge       = 0
  Multiplicity = 1
  Electrons    = 66
  Nalpha       = 33
  Nbeta        = 33

  ==> Algorithm <==

  SCF Algorithm Type is DF.
  DIIS enabled.
  MOM disabled.
  Fractional occupation disabled.
  Guess Type is SAD.
  Energy threshold   = 1.00e-08
  Density threshold  = 1.00e-08
  Integral threshold = 0.00e+00

  ==> Primary Basis <==

  Basis Set: JUN-CC-PVTZ
    Blend: JUN-CC-PVTZ
    Number of shells: 176
    Number of basis function: 480
    Number of Cartesian functions: 540
    Spherical Harmonics?: true
    Max angular momentum: 3

   => Loading Basis Set <=

    Name: (JUN-CC-PVTZ AUX)
    Role: JKFIT
    Keyword: DF_BASIS_SCF
    atoms 1, 6-7, 14, 17                entry C          line   152 file /home/r08543048/miniconda3/share/psi4/basis/jun-cc-pvtz-jkfit.gbs 
    atoms 2-3, 10                       entry O          line   272 file /home/r08543048/miniconda3/share/psi4/basis/jun-cc-pvtz-jkfit.gbs 
    atoms 4-5, 8-9, 11-13, 15-16, 18-20 entry H          line    70 file /home/r08543048/miniconda3/share/psi4/basis/jun-cc-pvtz-jkfit.gbs 

  ==> Pre-Iterations <==

   -------------------------------------------------------
    Irrep   Nso     Nmo     Nalpha   Nbeta   Ndocc  Nsocc
   -------------------------------------------------------
     A        480     480       0       0       0       0
   -------------------------------------------------------
    Total     480     480      33      33      33       0
   -------------------------------------------------------

  ==> Integral Setup <==

  ==> DiskDFJK: Density-Fitted J/K Matrices <==

    J tasked:                  Yes
    K tasked:                  Yes
    wK tasked:                  No
    OpenMP threads:              1
    Integrals threads:           1
    Memory [MiB]:            15735
    Algorithm:                Core
    Integral Cache:           SAVE
    Schwarz Cutoff:          1E-12
    Fitting Condition:       1E-10

   => Auxiliary Basis Set <=

  Basis Set: (JUN-CC-PVTZ AUX)
    Blend: JUN-CC-PVTZ-JKFIT
    Number of shells: 352
    Number of basis function: 1120
    Number of Cartesian functions: 1348
    Spherical Harmonics?: true
    Max angular momentum: 4

  Minimum eigenvalue in the overlap matrix is 4.5588679388E-05.
  Using Symmetric Orthogonalization.

  SCF Guess: Superposition of Atomic Densities via on-the-fly atomic UHF.

  ==> Iterations <==

                           Total Energy        Delta E     RMS |[F,P]|

   @DF-RHF iter SAD:  -419.78445169562940   -4.19784e+02   0.00000e+00 
   @DF-RHF iter   1:  -420.78033715091055   -9.95885e-01   1.64775e-03 DIIS
   @DF-RHF iter   2:  -421.00786536746040   -2.27528e-01   9.49747e-04 DIIS
   @DF-RHF iter   3:  -421.08502212411850   -7.71568e-02   1.59265e-04 DIIS
   @DF-RHF iter   4:  -421.08886264650437   -3.84052e-03   7.24516e-05 DIIS
   @DF-RHF iter   5:  -421.08947237754626   -6.09731e-04   1.63854e-05 DIIS
   @DF-RHF iter   6:  -421.08952847591377   -5.60984e-05   6.68078e-06 DIIS
   @DF-RHF iter   7:  -421.08953872234713   -1.02464e-05   2.47226e-06 DIIS
   @DF-RHF iter   8:  -421.08954071409204   -1.99174e-06   1.04490e-06 DIIS
   @DF-RHF iter   9:  -421.08954108389963   -3.69808e-07   2.80371e-07 DIIS
   @DF-RHF iter  10:  -421.08954111129873   -2.73991e-08   8.95857e-08 DIIS
   @DF-RHF iter  11:  -421.08954111342752   -2.12879e-09   2.87756e-08 DIIS
   @DF-RHF iter  12:  -421.08954111362283   -1.95314e-10   1.01027e-08 DIIS
   @DF-RHF iter  13:  -421.08954111364028   -1.74509e-11   3.20176e-09 DIIS
  Energy and wave function converged.


  ==> Post-Iterations <==

    Orbital Energies [Eh]
    ---------------------

    Doubly Occupied:                                                      

       1A    -20.607442     2A    -20.570122     3A    -20.560442  
       4A    -11.392414     5A    -11.283110     6A    -11.226026  
       7A    -11.220574     8A    -11.204457     9A     -1.464818  
      10A     -1.372531    11A     -1.363896    12A     -1.074492  
      13A     -0.980242    14A     -0.887930    15A     -0.872277  
      16A     -0.797157    17A     -0.720280    18A     -0.712658  
      19A     -0.688664    20A     -0.647954    21A     -0.640210  
      22A     -0.625500    23A     -0.595420    24A     -0.584240  
      25A     -0.563542    26A     -0.543037    27A     -0.514909  
      28A     -0.504142    29A     -0.485449    30A     -0.477200  
      31A     -0.469994    32A     -0.465816    33A     -0.436757  

    Virtual:                                                              

      34A      0.050591    35A      0.056430    36A      0.060501  
      37A      0.060934    38A      0.067857    39A      0.079089  
      40A      0.084463    41A      0.093759    42A      0.094154  
      43A      0.101216    44A      0.105670    45A      0.112424  
      46A      0.128156    47A      0.136525    48A      0.142455  
      49A      0.143112    50A      0.155638    51A      0.171613  
      52A      0.175176    53A      0.187926    54A      0.195255  
      55A      0.202019    56A      0.206414    57A      0.221301  
      58A      0.224813    59A      0.234894    60A      0.245686  
      61A      0.255493    62A      0.258978    63A      0.262729  
      64A      0.264367    65A      0.272468    66A      0.283953  
      67A      0.287677    68A      0.295204    69A      0.304291  
      70A      0.307141    71A      0.312999    72A      0.330577  
      73A      0.333120    74A      0.334927    75A      0.337719  
      76A      0.344679    77A      0.349618    78A      0.351765  
      79A      0.370228    80A      0.378151    81A      0.384649  
      82A      0.390685    83A      0.398494    84A      0.408618  
      85A      0.418933    86A      0.421131    87A      0.434677  
      88A      0.445319    89A      0.455614    90A      0.465391  
      91A      0.466252    92A      0.475583    93A      0.477662  
      94A      0.486182    95A      0.489146    96A      0.505449  
      97A      0.515130    98A      0.524946    99A      0.532353  
     100A      0.534281   101A      0.549003   102A      0.554331  
     103A      0.563272   104A      0.569894   105A      0.573631  
     106A      0.584670   107A      0.592011   108A      0.612074  
     109A      0.624689   110A      0.629561   111A      0.646391  
     112A      0.650476   113A      0.658087   114A      0.677129  
     115A      0.679714   116A      0.691316   117A      0.707621  
     118A      0.712165   119A      0.719239   120A      0.733685  
     121A      0.736852   122A      0.746360   123A      0.759237  
     124A      0.775713   125A      0.778270   126A      0.784147  
     127A      0.793640   128A      0.796808   129A      0.815782  
     130A      0.822106   131A      0.828025   132A      0.847072  
     133A      0.854675   134A      0.856630   135A      0.871752  
     136A      0.879381   137A      0.885502   138A      0.887702  
     139A      0.904304   140A      0.909838   141A      0.913485  
     142A      0.922205   143A      0.929257   144A      0.938454  
     145A      0.969376   146A      0.977050   147A      0.996708  
     148A      1.015187   149A      1.031686   150A      1.039425  
     151A      1.050731   152A      1.058364   153A      1.066600  
     154A      1.081030   155A      1.096355   156A      1.116248  
     157A      1.132844   158A      1.140481   159A      1.156756  
     160A      1.165376   161A      1.180555   162A      1.190061  
     163A      1.202741   164A      1.215718   165A      1.220546  
     166A      1.249394   167A      1.256565   168A      1.258405  
     169A      1.296142   170A      1.320564   171A      1.322567  
     172A      1.326054   173A      1.332120   174A      1.356738  
     175A      1.359065   176A      1.363612   177A      1.377765  
     178A      1.383832   179A      1.391754   180A      1.419789  
     181A      1.420172   182A      1.425822   183A      1.434751  
     184A      1.447389   185A      1.460637   186A      1.471400  
     187A      1.481414   188A      1.492580   189A      1.502196  
     190A      1.515436   191A      1.532599   192A      1.539139  
     193A      1.554332   194A      1.569883   195A      1.575289  
     196A      1.591296   197A      1.598530   198A      1.615789  
     199A      1.627899   200A      1.634687   201A      1.659484  
     202A      1.662763   203A      1.683377   204A      1.701907  
     205A      1.711312   206A      1.718146   207A      1.732352  
     208A      1.756701   209A      1.765783   210A      1.773503  
     211A      1.783349   212A      1.802800   213A      1.823578  
     214A      1.831911   215A      1.867047   216A      1.876267  
     217A      1.905427   218A      1.912083   219A      1.944329  
     220A      1.952808   221A      1.961922   222A      1.978193  
     223A      2.001514   224A      2.056206   225A      2.094089  
     226A      2.110230   227A      2.184395   228A      2.196152  
     229A      2.260405   230A      2.279982   231A      2.320431  
     232A      2.338947   233A      2.359930   234A      2.390556  
     235A      2.420201   236A      2.440775   237A      2.493379  
     238A      2.521231   239A      2.547378   240A      2.570596  
     241A      2.604801   242A      2.631443   243A      2.695273  
     244A      2.730072   245A      2.757816   246A      2.800683  
     247A      2.812145   248A      2.815868   249A      2.832913  
     250A      2.862110   251A      2.887485   252A      2.900343  
     253A      2.923389   254A      2.940203   255A      2.956650  
     256A      2.962929   257A      3.006005   258A      3.017256  
     259A      3.064051   260A      3.074142   261A      3.081574  
     262A      3.111775   263A      3.117301   264A      3.126375  
     265A      3.153719   266A      3.161605   267A      3.174420  
     268A      3.186304   269A      3.208803   270A      3.231487  
     271A      3.265334   272A      3.267981   273A      3.274074  
     274A      3.313972   275A      3.325857   276A      3.328005  
     277A      3.348628   278A      3.368775   279A      3.392094  
     280A      3.398480   281A      3.423740   282A      3.434692  
     283A      3.442578   284A      3.451212   285A      3.463903  
     286A      3.466067   287A      3.473784   288A      3.482739  
     289A      3.487962   290A      3.500597   291A      3.506982  
     292A      3.517738   293A      3.537136   294A      3.542393  
     295A      3.548471   296A      3.563286   297A      3.574729  
     298A      3.581314   299A      3.592627   300A      3.599573  
     301A      3.613879   302A      3.631026   303A      3.640993  
     304A      3.663102   305A      3.680418   306A      3.695513  
     307A      3.708779   308A      3.750050   309A      3.754034  
     310A      3.768188   311A      3.772571   312A      3.789610  
     313A      3.798701   314A      3.815583   315A      3.822783  
     316A      3.834167   317A      3.867644   318A      3.878077  
     319A      3.882804   320A      3.900328   321A      3.919966  
     322A      3.930009   323A      3.946709   324A      3.951358  
     325A      3.967185   326A      3.975263   327A      3.977376  
     328A      4.017777   329A      4.029740   330A      4.043449  
     331A      4.080357   332A      4.102434   333A      4.114823  
     334A      4.129696   335A      4.168651   336A      4.190861  
     337A      4.201686   338A      4.229820   339A      4.248670  
     340A      4.249828   341A      4.257122   342A      4.273534  
     343A      4.278726   344A      4.292566   345A      4.317331  
     346A      4.322694   347A      4.341045   348A      4.354119  
     349A      4.366746   350A      4.385690   351A      4.402368  
     352A      4.414266   353A      4.432503   354A      4.447606  
     355A      4.457264   356A      4.470383   357A      4.480770  
     358A      4.495197   359A      4.507704   360A      4.527933  
     361A      4.534457   362A      4.539493   363A      4.551077  
     364A      4.567181   365A      4.580271   366A      4.590581  
     367A      4.610854   368A      4.619981   369A      4.640066  
     370A      4.642536   371A      4.665317   372A      4.672635  
     373A      4.681194   374A      4.719874   375A      4.737525  
     376A      4.756576   377A      4.759754   378A      4.788017  
     379A      4.802114   380A      4.840962   381A      4.845018  
     382A      4.857582   383A      4.897918   384A      4.907280  
     385A      4.926595   386A      4.952964   387A      5.031746  
     388A      5.041396   389A      5.043802   390A      5.055432  
     391A      5.087877   392A      5.112242   393A      5.123942  
     394A      5.139031   395A      5.193434   396A      5.198351  
     397A      5.229390   398A      5.249116   399A      5.260335  
     400A      5.299414   401A      5.304957   402A      5.314993  
     403A      5.348305   404A      5.359571   405A      5.372530  
     406A      5.397553   407A      5.424023   408A      5.439108  
     409A      5.494928   410A      5.510634   411A      5.574345  
     412A      5.601658   413A      5.606679   414A      5.638202  
     415A      5.644902   416A      5.655154   417A      5.666204  
     418A      5.749326   419A      5.764796   420A      5.771094  
     421A      5.794661   422A      5.801498   423A      5.813694  
     424A      5.850726   425A      5.853885   426A      5.877780  
     427A      5.885667   428A      5.903790   429A      5.926542  
     430A      5.949427   431A      5.957512   432A      6.009835  
     433A      6.048626   434A      6.053226   435A      6.113389  
     436A      6.199538   437A      6.216957   438A      6.268548  
     439A      6.314145   440A      6.425814   441A      6.510549  
     442A      6.517099   443A      6.542960   444A      6.555173  
     445A      6.581002   446A      6.621627   447A      6.718988  
     448A      6.854818   449A      6.917156   450A      6.937825  
     451A      6.977773   452A      7.034183   453A      7.136980  
     454A      7.176676   455A      7.199834   456A      7.243071  
     457A      7.250857   458A      7.330050   459A      7.349348  
     460A      7.357101   461A      7.398141   462A      7.444268  
     463A      7.516442   464A      7.633216   465A      7.664589  
     466A      7.709344   467A      7.745390   468A      7.804980  
     469A      7.892801   470A      7.984408   471A      8.170145  
     472A      8.315238   473A     12.586643   474A     13.626103  
     475A     13.737282   476A     13.837714   477A     14.036045  
     478A     14.179158   479A     14.620999   480A     14.674419  

    Final Occupation by Irrep:
              A 
    DOCC [    33 ]

  @DF-RHF Final Energy:  -421.08954111364028

   => Energetics <=

    Nuclear Repulsion Energy =            388.6788542673635334
    One-Electron Energy =               -1346.4293867424714790
    Two-Electron Energy =                 536.6609913614677225
    Total Energy =                       -421.0895411136402799

Computation Completed


Properties will be evaluated at   0.000000,   0.000000,   0.000000 [a0]

Properties computed using the SCF density matrix

  Nuclear Dipole Moment: [e a0]
     X:    13.2249      Y:    -0.4130      Z:     0.1268

  Electronic Dipole Moment: [e a0]
     X:   -13.0285      Y:    -0.1248      Z:    -0.0700

  Dipole Moment: [e a0]
     X:     0.1964      Y:    -0.5377      Z:     0.0569     Total:     0.5753

  Dipole Moment: [D]
     X:     0.4992      Y:    -1.3668      Z:     0.1446     Total:     1.4622


*** tstop() called on r282 at Fri Sep 10 17:19:19 2021
Module time:
	user time   =      59.74 seconds =       1.00 minutes
	system time =       1.20 seconds =       0.02 minutes
	total time  =         62 seconds =       1.03 minutes
Total time:
	user time   =      59.74 seconds =       1.00 minutes
	system time =       1.20 seconds =       0.02 minutes
	total time  =         62 seconds =       1.03 minutes

  //>>>>>>>>>>>>>>>>>>>>>>>>>>>>>>>>>>>//
  //            Monomer A HF           //
  //<<<<<<<<<<<<<<<<<<<<<<<<<<<<<<<<<<<//


*** tstart() called on r282
*** at Fri Sep 10 17:19:19 2021

   => Loading Basis Set <=

    Name: JUN-CC-PVTZ
    Role: ORBITAL
    Keyword: BASIS
    atoms 1, 6-7, 14, 17                entry C          line   217 file /home/r08543048/miniconda3/share/psi4/basis/jun-cc-pvtz.gbs 
    atoms 2-3, 10                       entry O          line   305 file /home/r08543048/miniconda3/share/psi4/basis/jun-cc-pvtz.gbs 
    atoms 4-5, 8-9, 11-13, 15-16, 18-20 entry H          line    36 file /home/r08543048/miniconda3/share/psi4/basis/jun-cc-pvtz.gbs 


         ---------------------------------------------------------
                                   SCF
               by Justin Turney, Rob Parrish, Andy Simmonett
                          and Daniel G. A. Smith
                              RHF Reference
                        1 Threads,  20980 MiB Core
         ---------------------------------------------------------

  ==> Geometry <==

    Molecular point group: c1
    Full point group: C1

    Geometry (in Angstrom), charge = 0, multiplicity = 1:

       Center              X                  Y                   Z               Mass       
    ------------   -----------------  -----------------  -----------------  -----------------
         C           -3.026943225258     0.295139968615     0.206186899200    12.000000000000
         O           -2.692075225258    -0.307902031385    -0.927812100800    15.994914619570
         O           -2.252769225258     0.708479968615     1.049676899200    15.994914619570
         H           -4.112598225258     0.379729968615     0.297194899200     1.007825032230
         H           -1.698672225258    -0.357003031385    -0.954765100800     1.007825032230
      Gh(C)           1.987937774742    -0.788217031385     0.753949899200    12.000000000000
      Gh(C)           0.799985774742    -1.227032031385    -0.084202100800    12.000000000000
      Gh(H)           1.624167774742    -0.208810031385     1.609109899200     1.007825032230
      Gh(H)           2.436207774742    -1.696325031385     1.167003899200     1.007825032230
      Gh(O)          -0.045773225258    -0.140072031385    -0.485406100800    15.994914619570
      Gh(H)           1.140196774742    -1.688317031385    -1.011493100800     1.007825032230
      Gh(H)           0.209660774742    -1.966190031385     0.465155899200     1.007825032230
      Gh(H)          -0.393757225258     0.286638968615     0.316962899200     1.007825032230
      Gh(C)           3.060419774742     0.000889968615     0.005272899200    12.000000000000
      Gh(H)           3.943310774742     0.066020968615     0.644886899200     1.007825032230
      Gh(H)           3.363901774742    -0.569051031385    -0.877457100800     1.007825032230
      Gh(C)           2.643711774742     1.409096968615    -0.408160100800    12.000000000000
      Gh(H)           2.315887774742     1.981847968615     0.460955899200     1.007825032230
      Gh(H)           3.481294774742     1.940394968615    -0.859760100800     1.007825032230
      Gh(H)           1.822972774742     1.389216968615    -1.120626100800     1.007825032230

  Running in c1 symmetry.

  Rotational constants: A =      0.12519  B =      0.02441  C =      0.02350 [cm^-1]
  Rotational constants: A =   3753.14791  B =    731.71035  C =    704.63131 [MHz]
  Nuclear repulsion =   69.996877205603653

  Charge       = 0
  Multiplicity = 1
  Electrons    = 24
  Nalpha       = 12
  Nbeta        = 12

  ==> Algorithm <==

  SCF Algorithm Type is DF.
  DIIS enabled.
  MOM disabled.
  Fractional occupation disabled.
  Guess Type is SAD.
  Energy threshold   = 1.00e-08
  Density threshold  = 1.00e-08
  Integral threshold = 0.00e+00

  ==> Primary Basis <==

  Basis Set: JUN-CC-PVTZ
    Blend: JUN-CC-PVTZ
    Number of shells: 176
    Number of basis function: 480
    Number of Cartesian functions: 540
    Spherical Harmonics?: true
    Max angular momentum: 3

   => Loading Basis Set <=

    Name: (JUN-CC-PVTZ AUX)
    Role: JKFIT
    Keyword: DF_BASIS_SCF
    atoms 1, 6-7, 14, 17                entry C          line   152 file /home/r08543048/miniconda3/share/psi4/basis/jun-cc-pvtz-jkfit.gbs 
    atoms 2-3, 10                       entry O          line   272 file /home/r08543048/miniconda3/share/psi4/basis/jun-cc-pvtz-jkfit.gbs 
    atoms 4-5, 8-9, 11-13, 15-16, 18-20 entry H          line    70 file /home/r08543048/miniconda3/share/psi4/basis/jun-cc-pvtz-jkfit.gbs 

  ==> Pre-Iterations <==

   -------------------------------------------------------
    Irrep   Nso     Nmo     Nalpha   Nbeta   Ndocc  Nsocc
   -------------------------------------------------------
     A        480     480       0       0       0       0
   -------------------------------------------------------
    Total     480     480      12      12      12       0
   -------------------------------------------------------

  ==> Integral Setup <==

  ==> DiskDFJK: Density-Fitted J/K Matrices <==

    J tasked:                  Yes
    K tasked:                  Yes
    wK tasked:                  No
    OpenMP threads:              1
    Integrals threads:           1
    Memory [MiB]:            15735
    Algorithm:                Core
    Integral Cache:           LOAD
    Schwarz Cutoff:          1E-12
    Fitting Condition:       1E-10

   => Auxiliary Basis Set <=

  Basis Set: (JUN-CC-PVTZ AUX)
    Blend: JUN-CC-PVTZ-JKFIT
    Number of shells: 352
    Number of basis function: 1120
    Number of Cartesian functions: 1348
    Spherical Harmonics?: true
    Max angular momentum: 4

  Minimum eigenvalue in the overlap matrix is 4.5588679388E-05.
  Using Symmetric Orthogonalization.

  SCF Guess: Superposition of Atomic Densities via on-the-fly atomic UHF.

  ==> Iterations <==

                           Total Energy        Delta E     RMS |[F,P]|

   @DF-RHF iter SAD:  -187.99545692079948   -1.87995e+02   0.00000e+00 
   @DF-RHF iter   1:  -188.73303657524161   -7.37580e-01   1.09370e-03 DIIS
   @DF-RHF iter   2:  -188.79493850922054   -6.19019e-02   7.82717e-04 DIIS
   @DF-RHF iter   3:  -188.83933819649178   -4.43997e-02   9.11298e-05 DIIS
   @DF-RHF iter   4:  -188.84045429910617   -1.11610e-03   4.85952e-05 DIIS
   @DF-RHF iter   5:  -188.84073705207777   -2.82753e-04   1.17442e-05 DIIS
   @DF-RHF iter   6:  -188.84077973202693   -4.26799e-05   5.10797e-06 DIIS
   @DF-RHF iter   7:  -188.84078936367908   -9.63165e-06   1.81763e-06 DIIS
   @DF-RHF iter   8:  -188.84079042816740   -1.06449e-06   5.58812e-07 DIIS
   @DF-RHF iter   9:  -188.84079052969724   -1.01530e-07   1.62912e-07 DIIS
   @DF-RHF iter  10:  -188.84079053815782   -8.46057e-09   3.66222e-08 DIIS
   @DF-RHF iter  11:  -188.84079053853159   -3.73774e-10   6.38850e-09 DIIS
  Energy and wave function converged.


  ==> Post-Iterations <==

    Orbital Energies [Eh]
    ---------------------

    Doubly Occupied:                                                      

       1A    -20.637072     2A    -20.564683     3A    -11.398218  
       4A     -1.479090     5A     -1.370878     6A     -0.898100  
       7A     -0.728209     8A     -0.712304     9A     -0.641511  
      10A     -0.600636    11A     -0.492979    12A     -0.472752  

    Virtual:                                                              

      13A      0.027661    14A      0.045535    15A      0.050475  
      16A      0.058617    17A      0.063287    18A      0.073920  
      19A      0.080405    20A      0.087199    21A      0.090320  
      22A      0.098792    23A      0.102885    24A      0.106652  
      25A      0.110612    26A      0.126610    27A      0.136564  
      28A      0.142817    29A      0.144179    30A      0.148172  
      31A      0.156314    32A      0.164522    33A      0.171377  
      34A      0.180008    35A      0.185468    36A      0.200155  
      37A      0.213923    38A      0.218287    39A      0.223055  
      40A      0.235931    41A      0.238746    42A      0.248409  
      43A      0.253364    44A      0.262193    45A      0.265456  
      46A      0.272104    47A      0.288213    48A      0.293462  
      49A      0.301767    50A      0.309529    51A      0.322557  
      52A      0.326750    53A      0.335336    54A      0.345658  
      55A      0.349498    56A      0.352496    57A      0.363289  
      58A      0.373012    59A      0.384885    60A      0.390524  
      61A      0.394626    62A      0.402636    63A      0.410556  
      64A      0.427007    65A      0.432088    66A      0.438498  
      67A      0.451649    68A      0.456895    69A      0.467004  
      70A      0.474771    71A      0.475413    72A      0.485673  
      73A      0.489822    74A      0.495591    75A      0.502510  
      76A      0.517099    77A      0.520752    78A      0.536543  
      79A      0.547435    80A      0.553130    81A      0.558663  
      82A      0.569832    83A      0.576844    84A      0.585742  
      85A      0.596292    86A      0.600096    87A      0.602662  
      88A      0.608347    89A      0.629445    90A      0.636937  
      91A      0.640862    92A      0.650576    93A      0.658630  
      94A      0.664842    95A      0.667766    96A      0.677431  
      97A      0.693463    98A      0.711653    99A      0.716289  
     100A      0.730665   101A      0.739400   102A      0.745800  
     103A      0.754212   104A      0.779975   105A      0.794210  
     106A      0.804160   107A      0.819996   108A      0.836313  
     109A      0.846428   110A      0.863695   111A      0.877937  
     112A      0.886296   113A      0.903069   114A      0.909907  
     115A      0.928340   116A      0.950035   117A      0.975016  
     118A      0.984528   119A      1.023047   120A      1.026660  
     121A      1.050331   122A      1.054042   123A      1.064926  
     124A      1.071602   125A      1.082937   126A      1.098484  
     127A      1.112908   128A      1.131830   129A      1.138675  
     130A      1.142966   131A      1.156514   132A      1.161133  
     133A      1.171086   134A      1.181626   135A      1.198345  
     136A      1.206150   137A      1.216835   138A      1.229118  
     139A      1.236437   140A      1.241100   141A      1.245782  
     142A      1.250028   143A      1.255603   144A      1.276658  
     145A      1.284130   146A      1.291294   147A      1.308443  
     148A      1.316164   149A      1.326521   150A      1.339181  
     151A      1.342470   152A      1.347223   153A      1.354881  
     154A      1.365805   155A      1.378111   156A      1.393123  
     157A      1.405341   158A      1.415102   159A      1.431585  
     160A      1.436975   161A      1.454639   162A      1.467636  
     163A      1.476116   164A      1.480125   165A      1.487870  
     166A      1.520859   167A      1.524859   168A      1.537898  
     169A      1.546085   170A      1.552570   171A      1.564249  
     172A      1.576936   173A      1.592826   174A      1.603282  
     175A      1.616674   176A      1.634440   177A      1.642497  
     178A      1.655513   179A      1.690557   180A      1.704455  
     181A      1.722983   182A      1.724255   183A      1.734264  
     184A      1.759616   185A      1.783962   186A      1.796171  
     187A      1.804831   188A      1.824163   189A      1.848805  
     190A      1.872535   191A      1.877632   192A      1.896561  
     193A      1.908224   194A      1.942951   195A      1.957938  
     196A      2.004304   197A      2.019664   198A      2.045889  
     199A      2.066541   200A      2.092461   201A      2.099547  
     202A      2.142171   203A      2.156196   204A      2.182995  
     205A      2.188836   206A      2.204421   207A      2.210693  
     208A      2.260397   209A      2.278920   210A      2.299894  
     211A      2.313847   212A      2.342454   213A      2.351872  
     214A      2.363815   215A      2.374371   216A      2.401552  
     217A      2.426818   218A      2.435021   219A      2.482259  
     220A      2.497583   221A      2.507245   222A      2.534351  
     223A      2.543163   224A      2.559883   225A      2.569431  
     226A      2.591441   227A      2.617281   228A      2.626843  
     229A      2.657475   230A      2.683233   231A      2.724527  
     232A      2.748003   233A      2.803957   234A      2.890697  
     235A      2.933765   236A      2.945032   237A      3.033109  
     238A      3.078542   239A      3.112430   240A      3.135199  
     241A      3.212683   242A      3.262596   243A      3.314279  
     244A      3.330055   245A      3.379115   246A      3.436323  
     247A      3.468487   248A      3.484302   249A      3.496486  
     250A      3.515275   251A      3.527768   252A      3.555505  
     253A      3.576408   254A      3.577897   255A      3.592520  
     256A      3.605648   257A      3.620021   258A      3.623688  
     259A      3.635543   260A      3.665709   261A      3.680773  
     262A      3.686264   263A      3.693245   264A      3.719955  
     265A      3.742896   266A      3.752496   267A      3.764276  
     268A      3.788879   269A      3.794682   270A      3.830088  
     271A      3.833168   272A      3.852474   273A      3.862282  
     274A      3.867057   275A      3.876105   276A      3.885467  
     277A      3.910774   278A      3.915558   279A      3.941235  
     280A      3.953709   281A      3.969402   282A      3.978069  
     283A      3.982275   284A      4.013085   285A      4.052586  
     286A      4.080502   287A      4.091747   288A      4.112870  
     289A      4.124982   290A      4.145823   291A      4.177787  
     292A      4.183395   293A      4.219379   294A      4.229418  
     295A      4.253200   296A      4.256891   297A      4.272933  
     298A      4.288773   299A      4.316770   300A      4.324544  
     301A      4.355136   302A      4.366294   303A      4.395166  
     304A      4.403708   305A      4.425938   306A      4.445559  
     307A      4.458949   308A      4.467858   309A      4.487603  
     310A      4.492142   311A      4.517715   312A      4.529893  
     313A      4.544963   314A      4.556649   315A      4.572672  
     316A      4.580606   317A      4.606647   318A      4.621607  
     319A      4.625342   320A      4.632249   321A      4.651790  
     322A      4.657114   323A      4.674402   324A      4.690342  
     325A      4.694270   326A      4.719319   327A      4.729601  
     328A      4.741519   329A      4.752299   330A      4.759489  
     331A      4.762288   332A      4.770121   333A      4.808269  
     334A      4.813928   335A      4.828587   336A      4.831684  
     337A      4.845243   338A      4.850984   339A      4.858353  
     340A      4.876895   341A      4.877986   342A      4.903703  
     343A      4.912449   344A      4.918301   345A      4.924117  
     346A      4.937894   347A      4.955307   348A      4.974575  
     349A      4.981695   350A      4.991865   351A      5.002127  
     352A      5.018919   353A      5.030612   354A      5.038375  
     355A      5.039367   356A      5.066330   357A      5.081975  
     358A      5.086847   359A      5.101185   360A      5.111004  
     361A      5.124832   362A      5.137097   363A      5.156066  
     364A      5.168744   365A      5.214609   366A      5.223682  
     367A      5.225560   368A      5.243952   369A      5.278645  
     370A      5.329035   371A      5.348967   372A      5.376154  
     373A      5.385552   374A      5.406129   375A      5.436564  
     376A      5.495197   377A      5.537010   378A      5.570824  
     379A      5.617704   380A      5.625912   381A      5.627631  
     382A      5.644055   383A      5.672394   384A      5.685618  
     385A      5.734657   386A      5.779791   387A      5.794971  
     388A      5.796659   389A      5.854132   390A      5.860459  
     391A      5.863931   392A      5.922285   393A      5.933358  
     394A      5.953326   395A      5.995382   396A      6.042904  
     397A      6.057867   398A      6.081103   399A      6.120582  
     400A      6.154809   401A      6.195007   402A      6.220900  
     403A      6.238263   404A      6.262594   405A      6.288054  
     406A      6.348987   407A      6.377325   408A      6.385321  
     409A      6.439728   410A      6.460820   411A      6.480386  
     412A      6.501853   413A      6.544419   414A      6.658623  
     415A      6.710512   416A      6.763124   417A      6.802952  
     418A      6.848725   419A      6.893753   420A      6.917334  
     421A      6.943183   422A      6.951176   423A      6.992203  
     424A      7.103733   425A      7.135169   426A      7.175491  
     427A      7.231423   428A      7.246612   429A      7.301680  
     430A      7.324848   431A      7.342591   432A      7.369892  
     433A      7.399721   434A      7.435477   435A      7.493230  
     436A      7.498982   437A      7.551278   438A      7.598689  
     439A      7.617083   440A      7.674241   441A      7.690894  
     442A      7.701478   443A      7.705494   444A      7.742920  
     445A      7.773375   446A      7.815401   447A      7.818343  
     448A      7.847656   449A      7.902327   450A      7.921039  
     451A      7.955395   452A      7.992317   453A      8.108282  
     454A      8.180191   455A      8.240248   456A      8.307117  
     457A      8.338471   458A      8.500537   459A      8.739400  
     460A      9.537279   461A      9.587440   462A      9.636555  
     463A      9.829037   464A      9.894863   465A      9.968381  
     466A     10.134804   467A     10.250677   468A     10.419176  
     469A     11.211756   470A     11.777609   471A     12.591041  
     472A     12.755940   473A     13.596355   474A     13.714128  
     475A     14.611196   476A     43.887443   477A     44.320019  
     478A     45.291734   479A     45.753493   480A     61.689819  

    Final Occupation by Irrep:
              A 
    DOCC [    12 ]

  @DF-RHF Final Energy:  -188.84079053853159

   => Energetics <=

    Nuclear Repulsion Energy =             69.9968772056036528
    One-Electron Energy =                -397.6824672680059507
    Two-Electron Energy =                 138.8447995238707051
    Total Energy =                       -188.8407905385315928

Computation Completed


Properties will be evaluated at   0.000000,   0.000000,   0.000000 [a0]

Properties computed using the SCF density matrix

  Nuclear Dipole Moment: [e a0]
     X:  -120.0575      Y:     9.4452      Z:     2.9375

  Electronic Dipole Moment: [e a0]
     X:   119.8130      Y:    -9.7718      Z:    -3.5792

  Dipole Moment: [e a0]
     X:    -0.2445      Y:    -0.3266      Z:    -0.6416     Total:     0.7603

  Dipole Moment: [D]
     X:    -0.6213      Y:    -0.8301      Z:    -1.6309     Total:     1.9326


*** tstop() called on r282 at Fri Sep 10 17:19:49 2021
Module time:
	user time   =      29.87 seconds =       0.50 minutes
	system time =       0.48 seconds =       0.01 minutes
	total time  =         30 seconds =       0.50 minutes
Total time:
	user time   =      89.61 seconds =       1.49 minutes
	system time =       1.68 seconds =       0.03 minutes
	total time  =         92 seconds =       1.53 minutes

  //>>>>>>>>>>>>>>>>>>>>>>>>>>>>>>>>>>>//
  //            Monomer B HF           //
  //<<<<<<<<<<<<<<<<<<<<<<<<<<<<<<<<<<<//


*** tstart() called on r282
*** at Fri Sep 10 17:19:49 2021

   => Loading Basis Set <=

    Name: JUN-CC-PVTZ
    Role: ORBITAL
    Keyword: BASIS
    atoms 1, 6-7, 14, 17                entry C          line   217 file /home/r08543048/miniconda3/share/psi4/basis/jun-cc-pvtz.gbs 
    atoms 2-3, 10                       entry O          line   305 file /home/r08543048/miniconda3/share/psi4/basis/jun-cc-pvtz.gbs 
    atoms 4-5, 8-9, 11-13, 15-16, 18-20 entry H          line    36 file /home/r08543048/miniconda3/share/psi4/basis/jun-cc-pvtz.gbs 


         ---------------------------------------------------------
                                   SCF
               by Justin Turney, Rob Parrish, Andy Simmonett
                          and Daniel G. A. Smith
                              RHF Reference
                        1 Threads,  20980 MiB Core
         ---------------------------------------------------------

  ==> Geometry <==

    Molecular point group: c1
    Full point group: C1

    Geometry (in Angstrom), charge = 0, multiplicity = 1:

       Center              X                  Y                   Z               Mass       
    ------------   -----------------  -----------------  -----------------  -----------------
      Gh(C)          -3.026943225258     0.295139968615     0.206186899200    12.000000000000
      Gh(O)          -2.692075225258    -0.307902031385    -0.927812100800    15.994914619570
      Gh(O)          -2.252769225258     0.708479968615     1.049676899200    15.994914619570
      Gh(H)          -4.112598225258     0.379729968615     0.297194899200     1.007825032230
      Gh(H)          -1.698672225258    -0.357003031385    -0.954765100800     1.007825032230
         C            1.987937774742    -0.788217031385     0.753949899200    12.000000000000
         C            0.799985774742    -1.227032031385    -0.084202100800    12.000000000000
         H            1.624167774742    -0.208810031385     1.609109899200     1.007825032230
         H            2.436207774742    -1.696325031385     1.167003899200     1.007825032230
         O           -0.045773225258    -0.140072031385    -0.485406100800    15.994914619570
         H            1.140196774742    -1.688317031385    -1.011493100800     1.007825032230
         H            0.209660774742    -1.966190031385     0.465155899200     1.007825032230
         H           -0.393757225258     0.286638968615     0.316962899200     1.007825032230
         C            3.060419774742     0.000889968615     0.005272899200    12.000000000000
         H            3.943310774742     0.066020968615     0.644886899200     1.007825032230
         H            3.363901774742    -0.569051031385    -0.877457100800     1.007825032230
         C            2.643711774742     1.409096968615    -0.408160100800    12.000000000000
         H            2.315887774742     1.981847968615     0.460955899200     1.007825032230
         H            3.481294774742     1.940394968615    -0.859760100800     1.007825032230
         H            1.822972774742     1.389216968615    -1.120626100800     1.007825032230

  Running in c1 symmetry.

  Rotational constants: A =      0.12519  B =      0.02441  C =      0.02350 [cm^-1]
  Rotational constants: A =   3753.14791  B =    731.71035  C =    704.63131 [MHz]
  Nuclear repulsion =  192.177171012576679

  Charge       = 0
  Multiplicity = 1
  Electrons    = 42
  Nalpha       = 21
  Nbeta        = 21

  ==> Algorithm <==

  SCF Algorithm Type is DF.
  DIIS enabled.
  MOM disabled.
  Fractional occupation disabled.
  Guess Type is SAD.
  Energy threshold   = 1.00e-08
  Density threshold  = 1.00e-08
  Integral threshold = 0.00e+00

  ==> Primary Basis <==

  Basis Set: JUN-CC-PVTZ
    Blend: JUN-CC-PVTZ
    Number of shells: 176
    Number of basis function: 480
    Number of Cartesian functions: 540
    Spherical Harmonics?: true
    Max angular momentum: 3

   => Loading Basis Set <=

    Name: (JUN-CC-PVTZ AUX)
    Role: JKFIT
    Keyword: DF_BASIS_SCF
    atoms 1, 6-7, 14, 17                entry C          line   152 file /home/r08543048/miniconda3/share/psi4/basis/jun-cc-pvtz-jkfit.gbs 
    atoms 2-3, 10                       entry O          line   272 file /home/r08543048/miniconda3/share/psi4/basis/jun-cc-pvtz-jkfit.gbs 
    atoms 4-5, 8-9, 11-13, 15-16, 18-20 entry H          line    70 file /home/r08543048/miniconda3/share/psi4/basis/jun-cc-pvtz-jkfit.gbs 

  ==> Pre-Iterations <==

   -------------------------------------------------------
    Irrep   Nso     Nmo     Nalpha   Nbeta   Ndocc  Nsocc
   -------------------------------------------------------
     A        480     480       0       0       0       0
   -------------------------------------------------------
    Total     480     480      21      21      21       0
   -------------------------------------------------------

  ==> Integral Setup <==

  ==> DiskDFJK: Density-Fitted J/K Matrices <==

    J tasked:                  Yes
    K tasked:                  Yes
    wK tasked:                  No
    OpenMP threads:              1
    Integrals threads:           1
    Memory [MiB]:            15735
    Algorithm:                Core
    Integral Cache:           LOAD
    Schwarz Cutoff:          1E-12
    Fitting Condition:       1E-10

   => Auxiliary Basis Set <=

  Basis Set: (JUN-CC-PVTZ AUX)
    Blend: JUN-CC-PVTZ-JKFIT
    Number of shells: 352
    Number of basis function: 1120
    Number of Cartesian functions: 1348
    Spherical Harmonics?: true
    Max angular momentum: 4

  Minimum eigenvalue in the overlap matrix is 4.5588679388E-05.
  Using Symmetric Orthogonalization.

  SCF Guess: Superposition of Atomic Densities via on-the-fly atomic UHF.

  ==> Iterations <==

                           Total Energy        Delta E     RMS |[F,P]|

   @DF-RHF iter SAD:  -231.55038775602517   -2.31550e+02   0.00000e+00 
   @DF-RHF iter   1:  -232.00680444111271   -4.56417e-01   1.32034e-03 DIIS
   @DF-RHF iter   2:  -232.18399863594701   -1.77194e-01   7.03650e-04 DIIS
   @DF-RHF iter   3:  -232.23267626052740   -4.86776e-02   1.20604e-04 DIIS
   @DF-RHF iter   4:  -232.23542937882434   -2.75312e-03   4.14188e-05 DIIS
   @DF-RHF iter   5:  -232.23565479533551   -2.25417e-04   1.03941e-05 DIIS
   @DF-RHF iter   6:  -232.23567262602575   -1.78307e-05   2.34539e-06 DIIS
   @DF-RHF iter   7:  -232.23567394115005   -1.31512e-06   5.77232e-07 DIIS
   @DF-RHF iter   8:  -232.23567402449720   -8.33471e-08   1.84979e-07 DIIS
   @DF-RHF iter   9:  -232.23567403354104   -9.04384e-09   5.17256e-08 DIIS
   @DF-RHF iter  10:  -232.23567403435732   -8.16271e-10   1.20552e-08 DIIS
   @DF-RHF iter  11:  -232.23567403440211   -4.47926e-11   3.07391e-09 DIIS
  Energy and wave function converged.


  ==> Post-Iterations <==

    Orbital Energies [Eh]
    ---------------------

    Doubly Occupied:                                                      

       1A    -20.553711     2A    -11.272120     3A    -11.220903  
       4A    -11.217003     5A    -11.201703     6A     -1.349817  
       7A     -1.068791     8A     -0.972953     9A     -0.866576  
      10A     -0.790563    11A     -0.674628    12A     -0.638545  
      13A     -0.625809    14A     -0.581364    15A     -0.559915  
      16A     -0.534137    17A     -0.503626    18A     -0.496500  
      19A     -0.473120    20A     -0.459969    21A     -0.425703  

    Virtual:                                                              

      22A      0.038945    23A      0.053270    24A      0.055069  
      25A      0.059923    26A      0.068506    27A      0.075233  
      28A      0.077501    29A      0.088360    30A      0.094870  
      31A      0.100823    32A      0.109667    33A      0.112850  
      34A      0.125720    35A      0.136291    36A      0.138021  
      37A      0.143081    38A      0.156915    39A      0.159425  
      40A      0.170005    41A      0.187957    42A      0.191387  
      43A      0.195498    44A      0.201516    45A      0.208271  
      46A      0.211196    47A      0.222025    48A      0.232664  
      49A      0.237781    50A      0.253350    51A      0.264914  
      52A      0.265751    53A      0.287668    54A      0.288995  
      55A      0.294961    56A      0.302273    57A      0.308924  
      58A      0.313916    59A      0.315754    60A      0.329222  
      61A      0.336406    62A      0.343876    63A      0.346834  
      64A      0.349820    65A      0.353184    66A      0.372049  
      67A      0.375508    68A      0.386038    69A      0.394907  
      70A      0.401249    71A      0.407992    72A      0.414229  
      73A      0.417206    74A      0.425001    75A      0.432184  
      76A      0.443874    77A      0.446564    78A      0.457801  
      79A      0.463091    80A      0.468278    81A      0.476158  
      82A      0.476977    83A      0.490601    84A      0.502014  
      85A      0.510233    86A      0.518044    87A      0.531279  
      88A      0.535745    89A      0.536181    90A      0.544521  
      91A      0.559016    92A      0.562364    93A      0.576742  
      94A      0.589163    95A      0.600895    96A      0.616217  
      97A      0.623904    98A      0.637065    99A      0.649847  
     100A      0.673513   101A      0.681651   102A      0.695450  
     103A      0.710998   104A      0.720658   105A      0.725684  
     106A      0.733185   107A      0.744656   108A      0.751768  
     109A      0.756101   110A      0.765044   111A      0.776696  
     112A      0.790117   113A      0.795321   114A      0.802684  
     115A      0.817695   116A      0.823437   117A      0.835095  
     118A      0.844443   119A      0.846149   120A      0.864247  
     121A      0.864848   122A      0.874881   123A      0.882528  
     124A      0.892884   125A      0.904839   126A      0.910084  
     127A      0.918575   128A      0.927116   129A      0.945686  
     130A      0.956446   131A      0.962492   132A      0.971447  
     133A      0.984901   134A      0.987937   135A      1.003528  
     136A      1.017910   137A      1.031370   138A      1.041196  
     139A      1.043209   140A      1.049949   141A      1.060878  
     142A      1.074054   143A      1.088331   144A      1.102112  
     145A      1.128538   146A      1.144268   147A      1.153493  
     148A      1.162813   149A      1.169407   150A      1.196692  
     151A      1.209664   152A      1.225137   153A      1.237035  
     154A      1.251674   155A      1.260193   156A      1.263907  
     157A      1.290800   158A      1.295907   159A      1.326376  
     160A      1.337360   161A      1.359327   162A      1.366489  
     163A      1.389178   164A      1.393249   165A      1.411188  
     166A      1.417486   167A      1.423024   168A      1.435173  
     169A      1.442788   170A      1.448864   171A      1.467678  
     172A      1.491983   173A      1.494195   174A      1.520168  
     175A      1.530400   176A      1.539929   177A      1.546692  
     178A      1.564725   179A      1.565647   180A      1.581558  
     181A      1.582980   182A      1.599425   183A      1.616933  
     184A      1.624149   185A      1.636325   186A      1.657481  
     187A      1.668100   188A      1.674034   189A      1.691459  
     190A      1.702208   191A      1.718213   192A      1.737935  
     193A      1.742561   194A      1.765616   195A      1.769839  
     196A      1.785614   197A      1.797899   198A      1.810889  
     199A      1.816840   200A      1.838803   201A      1.855372  
     202A      1.864796   203A      1.886918   204A      1.913628  
     205A      1.916769   206A      1.927011   207A      1.932807  
     208A      1.963998   209A      1.979240   210A      1.986232  
     211A      2.032845   212A      2.071162   213A      2.079841  
     214A      2.101296   215A      2.172764   216A      2.226894  
     217A      2.281248   218A      2.323673   219A      2.419422  
     220A      2.461246   221A      2.496239   222A      2.527660  
     223A      2.542734   224A      2.552067   225A      2.635462  
     226A      2.669312   227A      2.727986   228A      2.753040  
     229A      2.760892   230A      2.790904   231A      2.813236  
     232A      2.817264   233A      2.836047   234A      2.844706  
     235A      2.858618   236A      2.871259   237A      2.890610  
     238A      2.905029   239A      2.918740   240A      2.944604  
     241A      2.952269   242A      2.966564   243A      2.979894  
     244A      2.984577   245A      3.008255   246A      3.010130  
     247A      3.019594   248A      3.065054   249A      3.074070  
     250A      3.088876   251A      3.110742   252A      3.127135  
     253A      3.137349   254A      3.159596   255A      3.179649  
     256A      3.193308   257A      3.202954   258A      3.236109  
     259A      3.246084   260A      3.281696   261A      3.285486  
     262A      3.317295   263A      3.328070   264A      3.348173  
     265A      3.372692   266A      3.398844   267A      3.402755  
     268A      3.410302   269A      3.433708   270A      3.442731  
     271A      3.452662   272A      3.454587   273A      3.468556  
     274A      3.481450   275A      3.496351   276A      3.498283  
     277A      3.508083   278A      3.523257   279A      3.529848  
     280A      3.542757   281A      3.566883   282A      3.568509  
     283A      3.591064   284A      3.601695   285A      3.610002  
     286A      3.622779   287A      3.659870   288A      3.679999  
     289A      3.703361   290A      3.707541   291A      3.710593  
     292A      3.751204   293A      3.760481   294A      3.777129  
     295A      3.790132   296A      3.793296   297A      3.802118  
     298A      3.823010   299A      3.828834   300A      3.862424  
     301A      3.867628   302A      3.888656   303A      3.910375  
     304A      3.938706   305A      3.948296   306A      3.964037  
     307A      3.975622   308A      3.978918   309A      4.018551  
     310A      4.033832   311A      4.047453   312A      4.071775  
     313A      4.087702   314A      4.108443   315A      4.132280  
     316A      4.149772   317A      4.186606   318A      4.196006  
     319A      4.206602   320A      4.214581   321A      4.248957  
     322A      4.258756   323A      4.269624   324A      4.282744  
     325A      4.296872   326A      4.311686   327A      4.319613  
     328A      4.339744   329A      4.354259   330A      4.367924  
     331A      4.373659   332A      4.400817   333A      4.413967  
     334A      4.427589   335A      4.437603   336A      4.452872  
     337A      4.454450   338A      4.474479   339A      4.486562  
     340A      4.502395   341A      4.530638   342A      4.536633  
     343A      4.541587   344A      4.550242   345A      4.556877  
     346A      4.566004   347A      4.578963   348A      4.592647  
     349A      4.595151   350A      4.622542   351A      4.635591  
     352A      4.641415   353A      4.653861   354A      4.676101  
     355A      4.699711   356A      4.715438   357A      4.722926  
     358A      4.765167   359A      4.766617   360A      4.788234  
     361A      4.796986   362A      4.810386   363A      4.834033  
     364A      4.849113   365A      4.858653   366A      4.903531  
     367A      4.911242   368A      4.936240   369A      4.945495  
     370A      4.962518   371A      5.019024   372A      5.040286  
     373A      5.050291   374A      5.073270   375A      5.085140  
     376A      5.100076   377A      5.122888   378A      5.148087  
     379A      5.162925   380A      5.189227   381A      5.211814  
     382A      5.233883   383A      5.255678   384A      5.295840  
     385A      5.305902   386A      5.321475   387A      5.343365  
     388A      5.364339   389A      5.371394   390A      5.402619  
     391A      5.424139   392A      5.431359   393A      5.451191  
     394A      5.489340   395A      5.508853   396A      5.559049  
     397A      5.581703   398A      5.612172   399A      5.634861  
     400A      5.656099   401A      5.662871   402A      5.755404  
     403A      5.769966   404A      5.775884   405A      5.796878  
     406A      5.811867   407A      5.836332   408A      5.859781  
     409A      5.872517   410A      5.914894   411A      5.945432  
     412A      5.955201   413A      6.003783   414A      6.029262  
     415A      6.063304   416A      6.108438   417A      6.139265  
     418A      6.179546   419A      6.207774   420A      6.275491  
     421A      6.364110   422A      6.446629   423A      6.477716  
     424A      6.484003   425A      6.515155   426A      6.538148  
     427A      6.563181   428A      6.568959   429A      6.587772  
     430A      6.628714   431A      6.767554   432A      6.799910  
     433A      7.003857   434A      7.024719   435A      7.063332  
     436A      7.159986   437A      7.169990   438A      7.227371  
     439A      7.355364   440A      7.404297   441A      7.505944  
     442A      7.529744   443A      7.623787   444A      7.675025  
     445A      7.805437   446A      7.851588   447A      7.913170  
     448A      8.001210   449A      8.011413   450A      8.234156  
     451A      8.428640   452A      8.659188   453A      8.878387  
     454A      9.314649   455A      9.485234   456A      9.680490  
     457A      9.764935   458A      9.827813   459A      9.850208  
     460A      9.879737   461A      9.933442   462A     10.021975  
     463A     10.320608   464A     10.508970   465A     10.954439  
     466A     11.362259   467A     11.528886   468A     11.554398  
     469A     11.917436   470A     13.062578   471A     13.586568  
     472A     13.689177   473A     13.808948   474A     13.879232  
     475A     14.065584   476A     14.195451   477A     14.677646  
     478A     44.676711   479A     60.185154   480A     61.452564  

    Final Occupation by Irrep:
              A 
    DOCC [    21 ]

  @DF-RHF Final Energy:  -232.23567403440211

   => Energetics <=

    Nuclear Repulsion Energy =            192.1771710125766788
    One-Electron Energy =                -695.8507764511554115
    Two-Electron Energy =                 271.4379314041766520
    Total Energy =                       -232.2356740344021091

Computation Completed


Properties will be evaluated at   0.000000,   0.000000,   0.000000 [a0]

Properties computed using the SCF density matrix

  Nuclear Dipole Moment: [e a0]
     X:   133.2824      Y:    -9.8582      Z:    -2.8107

  Electronic Dipole Moment: [e a0]
     X:  -133.0890      Y:     9.6445      Z:     3.4452

  Dipole Moment: [e a0]
     X:     0.1933      Y:    -0.2137      Z:     0.6345     Total:     0.6969

  Dipole Moment: [D]
     X:     0.4914      Y:    -0.5432      Z:     1.6128     Total:     1.7713


*** tstop() called on r282 at Fri Sep 10 17:20:18 2021
Module time:
	user time   =      28.33 seconds =       0.47 minutes
	system time =       0.60 seconds =       0.01 minutes
	total time  =         29 seconds =       0.48 minutes
Total time:
	user time   =     117.94 seconds =       1.97 minutes
	system time =       2.28 seconds =       0.04 minutes
	total time  =        121 seconds =       2.02 minutes
  Constructing Basis Sets for SAPT...

   => Loading Basis Set <=

    Name: (JUN-CC-PVTZ AUX)
    Role: RIFIT
    Keyword: DF_BASIS_SAPT
    atoms 1, 6-7, 14, 17                entry C          line   132 file /home/r08543048/miniconda3/share/psi4/basis/jun-cc-pvtz-ri.gbs 
    atoms 2-3, 10                       entry O          line   244 file /home/r08543048/miniconda3/share/psi4/basis/jun-cc-pvtz-ri.gbs 
    atoms 4-5, 8-9, 11-13, 15-16, 18-20 entry H          line    30 file /home/r08543048/miniconda3/share/psi4/basis/jun-cc-pvtz-ri.gbs 


  //>>>>>>>>>>>>>>>>>>>>>>>>>>>>>>>>>>>//
  //               SAPT0               //
  //<<<<<<<<<<<<<<<<<<<<<<<<<<<<<<<<<<<//


*** tstart() called on r282
*** at Fri Sep 10 17:20:18 2021

        SAPT0  
    Ed Hohenstein
     6 June 2009

      Orbital Information
  --------------------------
    NSO        =       480
    NMO        =       480
    NRI        =      1136
    NOCC A     =        12
    NOCC B     =        21
    FOCC A     =         0
    FOCC B     =         0
    NVIR A     =       468
    NVIR B     =       459

    Elst10,r            =    -0.035966042022 [Eh]
    Exch10              =     0.036823794312 [Eh]
    Exch10 (S^2)        =     0.036335613426 [Eh]

    Iter     Energy [mEh]          dE [mEh]         Residual      Time [s]
       1      -6.44520646       6.445206461      14.205235059             0
       2      -7.69865129       1.253444826       7.665713972             1
       3      -8.00265904       0.304007748       2.116314799             2
       4      -7.93189552      -0.070763512       0.791624012             3
       5      -7.93028507      -0.001610450       0.273791907             3
       6      -7.93603248       0.005747405       0.096554922             4
       7      -7.93622861       0.000196134       0.027203093             5
       8      -7.93570544      -0.000523172       0.008475957             6
       9      -7.93566092      -0.000044522       0.002525753             6
      10      -7.93571099       0.000050073       0.000454583             7
      11      -7.93570561      -0.000005386       0.000095189             8
      12      -7.93570521      -0.000000399       0.000024674             9
      13      -7.93570551       0.000000304       0.000005308             9
      14      -7.93570546      -0.000000052       0.000001591            10
      15      -7.93570547       0.000000006       0.000000645            11

    CHF Iterations converged


    Iter     Energy [mEh]          dE [mEh]         Residual      Time [s]
       1      -9.88185637       9.881856365      20.050990503             1
       2     -12.26456215       2.382705782       9.558341811             2
       3     -12.68896999       0.424407846       2.601280387             2
       4     -12.64609099      -0.042879007       0.817031718             3
       5     -12.61896915      -0.027121831       0.203645191             4
       6     -12.62041866       0.001449510       0.072094695             5
       7     -12.62245697       0.002038305       0.018999490             6
       8     -12.62223941      -0.000217558       0.005681071             7
       9     -12.62213572      -0.000103689       0.001606339             8
      10     -12.62215400       0.000018272       0.000549242             9
      11     -12.62216291       0.000008911       0.000129492            10
      12     -12.62216072      -0.000002181       0.000036244            11
      13     -12.62216050      -0.000000228       0.000010873            12
      14     -12.62216063       0.000000135       0.000002768            12
      15     -12.62216065       0.000000018       0.000000638            13

    CHF Iterations converged

    Ind20,r (A<-B)      =    -0.007935705465 [Eh]
    Ind20,r (B<-A)      =    -0.012622160650 [Eh]
    Ind20,r             =    -0.020557866115 [Eh]
    Exch-Ind20,r (A<-B) =     0.005670480135 [Eh]
    Exch-Ind20,r (B<-A) =     0.006723587474 [Eh]
    Exch-Ind20,r        =     0.012394067610 [Eh]
    Disp20              =    -0.012581648037 [Eh]
    Disp20 (SS)         =    -0.006290824019 [Eh]
    Disp20 (OS)         =    -0.006290824019 [Eh]
    Exch-Disp20         =     0.002555513685 [Eh]
    Exch-Disp20 (SS)    =     0.001605933239 [Eh]
    Exch-Disp20 (OS)    =     0.000949580446 [Eh]

    SAPT Results 
  --------------------------------------------------------------------------------------------------------
    Electrostatics                -35.96604202 [mEh]     -22.56903210 [kcal/mol]     -94.42883032 [kJ/mol]
      Elst10,r                    -35.96604202 [mEh]     -22.56903210 [kcal/mol]     -94.42883032 [kJ/mol]

    Exchange                       36.82379431 [mEh]      23.10727979 [kcal/mol]      96.68085865 [kJ/mol]
      Exch10                       36.82379431 [mEh]      23.10727979 [kcal/mol]      96.68085865 [kJ/mol]
      Exch10(S^2)                  36.33561343 [mEh]      22.80094166 [kcal/mol]      95.39913991 [kJ/mol]

    Induction                     -13.93429300 [mEh]      -8.74390087 [kcal/mol]     -36.58448122 [kJ/mol]
      Ind20,r                     -20.55786611 [mEh]     -12.90025575 [kcal/mol]     -53.97467005 [kJ/mol]
      Exch-Ind20,r                 12.39406761 [mEh]       7.77739484 [kcal/mol]      32.54062003 [kJ/mol]
      delta HF,r (2)               -5.77049449 [mEh]      -3.62103996 [kcal/mol]     -15.15043120 [kJ/mol]

    Dispersion                    -10.02613435 [mEh]      -6.29149429 [kcal/mol]     -26.32361211 [kJ/mol]
      Disp20                      -12.58164804 [mEh]      -7.89510334 [kcal/mol]     -33.03311237 [kJ/mol]
      Exch-Disp20                   2.55551369 [mEh]       1.60360905 [kcal/mol]       6.70950026 [kJ/mol]
      Disp20 (SS)                  -6.29082402 [mEh]      -3.94755167 [kcal/mol]     -16.51655619 [kJ/mol]
      Disp20 (OS)                  -6.29082402 [mEh]      -3.94755167 [kcal/mol]     -16.51655619 [kJ/mol]
      Exch-Disp20 (SS)              1.60593324 [mEh]       1.00773832 [kcal/mol]       4.21637714 [kJ/mol]
      Exch-Disp20 (OS)              0.94958045 [mEh]       0.59587073 [kcal/mol]       2.49312312 [kJ/mol]

  Total HF                        -13.07654071 [mEh]      -8.20565318 [kcal/mol]     -34.33245290 [kJ/mol]
  Total SAPT0                     -23.10267506 [mEh]     -14.49714747 [kcal/mol]     -60.65606501 [kJ/mol]

  Special recipe for scaled SAPT0 (see Manual):
    Electrostatics sSAPT0         -35.96604202 [mEh]     -22.56903210 [kcal/mol]     -94.42883032 [kJ/mol]
    Exchange sSAPT0                36.82379431 [mEh]      23.10727979 [kcal/mol]      96.68085865 [kJ/mol]
    Induction sSAPT0              -13.42799616 [mEh]      -8.42619480 [kcal/mol]     -35.25519906 [kJ/mol]
    Dispersion sSAPT0              -9.92174179 [mEh]      -6.22598697 [kcal/mol]     -26.04952948 [kJ/mol]
  Total sSAPT0                    -22.49198566 [mEh]     -14.11393408 [kcal/mol]     -59.05270021 [kJ/mol]
  --------------------------------------------------------------------------------------------------------

*** tstop() called on r282 at Fri Sep 10 17:22:01 2021
Module time:
	user time   =      87.56 seconds =       1.46 minutes
	system time =      15.35 seconds =       0.26 minutes
	total time  =        103 seconds =       1.72 minutes
Total time:
	user time   =     205.63 seconds =       3.43 minutes
	system time =      17.63 seconds =       0.29 minutes
	total time  =        224 seconds =       3.73 minutes

    Psi4 stopped on: Friday, 10 September 2021 05:22PM
    Psi4 wall time for execution: 0:03:43.64

*** Psi4 exiting successfully. Buy a developer a beer!
