
    -----------------------------------------------------------------------
          Psi4: An Open-Source Ab Initio Electronic Structure Package
                               Psi4 1.3.2 release

                         Git: Rev {HEAD} ecbda83 


    R. M. Parrish, L. A. Burns, D. G. A. Smith, A. C. Simmonett,
    A. E. DePrince III, E. G. Hohenstein, U. Bozkaya, A. Yu. Sokolov,
    R. Di Remigio, R. M. Richard, J. F. Gonthier, A. M. James,
    H. R. McAlexander, A. Kumar, M. Saitow, X. Wang, B. P. Pritchard,
    P. Verma, H. F. Schaefer III, K. Patkowski, R. A. King, E. F. Valeev,
    F. A. Evangelista, J. M. Turney, T. D. Crawford, and C. D. Sherrill,
    J. Chem. Theory Comput. 13(7) pp 3185--3197 (2017).
    (doi: 10.1021/acs.jctc.7b00174)


                         Additional Contributions by
    P. Kraus, H. Kruse, M. H. Lechner, M. C. Schieber, R. A. Shaw,
    A. Alenaizan, R. Galvelis, Z. L. Glick, S. Lehtola, and J. P. Misiewicz

    -----------------------------------------------------------------------


    Psi4 started on: Friday, 10 September 2021 05:08PM

    Process ID: 56887
    Host:       r282
    PSIDATADIR: /home/r08543048/miniconda3/share/psi4
    Memory:     500.0 MiB
    Threads:    1
    
  ==> Input File <==

--------------------------------------------------------------------------
# Any line starting with the # character is a comment line
#! Sample  computation

memory 22 gb

molecule Dimer {
0 1
 C -4.225338    1.085743    0.455218
 C -3.653480   -0.186792   -0.143327
 C -2.150743   -0.188465   -0.186295
 O -1.449925    0.732868    0.207691
 O -1.661398   -1.318102   -0.708252
 H -3.916953    1.956102   -0.119948
 H -5.312952    1.043595    0.464537
 H -3.875223    1.224829    1.475845
 H -4.003236   -0.345656   -1.164839
 H -3.960674   -1.071559    0.416820
 H -0.672249   -1.241866   -0.704162




    
    
    
 --
0 1
 C 2.747592   -0.027136    1.125755 
 C 1.739895   -1.046674    0.623045
 H 2.216899    0.891885    1.395861
 H 3.165446   -0.425653    2.054766
 O 0.923971   -0.560258   -0.449869
 H 2.254186   -1.922679    0.226741
 H 1.101739   -1.374782    1.449476
 H 0.415268    0.201639   -0.115954
 C 3.889441    0.291887    0.162458
 H 4.650841    0.851881    0.709946
 H 4.361659   -0.645406   -0.145411
 C 3.477977    1.091094   -1.070309
 H 2.985241    2.019558   -0.776941
 H 4.351125    1.352216   -1.668153
 H 2.785635    0.531889   -1.694410
 
 







units angstrom

no_reorient
symmetry c1
}

set globals{
  basis jun-cc-pvtz
}

energy('sapt0')


--------------------------------------------------------------------------

  Memory set to  20.489 GiB by Python driver.

  //>>>>>>>>>>>>>>>>>>>>>>>>>>>>>>>>>>>//
  //              Dimer HF             //
  //<<<<<<<<<<<<<<<<<<<<<<<<<<<<<<<<<<<//


*** tstart() called on r282
*** at Fri Sep 10 17:08:54 2021

   => Loading Basis Set <=

    Name: JUN-CC-PVTZ
    Role: ORBITAL
    Keyword: BASIS
    atoms 1-3, 12-13, 20, 23               entry C          line   217 file /home/r08543048/miniconda3/share/psi4/basis/jun-cc-pvtz.gbs 
    atoms 4-5, 16                          entry O          line   305 file /home/r08543048/miniconda3/share/psi4/basis/jun-cc-pvtz.gbs 
    atoms 6-11, 14-15, 17-19, 21-22, 24-26 entry H          line    36 file /home/r08543048/miniconda3/share/psi4/basis/jun-cc-pvtz.gbs 


         ---------------------------------------------------------
                                   SCF
               by Justin Turney, Rob Parrish, Andy Simmonett
                          and Daniel G. A. Smith
                              RHF Reference
                        1 Threads,  20980 MiB Core
         ---------------------------------------------------------

  ==> Geometry <==

    Molecular point group: c1
    Full point group: C1

    Geometry (in Angstrom), charge = 0, multiplicity = 1:

       Center              X                  Y                   Z               Mass       
    ------------   -----------------  -----------------  -----------------  -----------------
         C           -4.181557010378     1.106108511288     0.467271309383    12.000000000000
         C           -3.609699010378    -0.166426488712    -0.131273690617    12.000000000000
         C           -2.106962010378    -0.168099488712    -0.174241690617    12.000000000000
         O           -1.406144010378     0.753233511288     0.219744309383    15.994914619570
         O           -1.617617010378    -1.297736488712    -0.696198690617    15.994914619570
         H           -3.873172010378     1.976467511288    -0.107894690617     1.007825032230
         H           -5.269171010378     1.063960511288     0.476590309383     1.007825032230
         H           -3.831442010378     1.245194511288     1.487898309383     1.007825032230
         H           -3.959455010378    -0.325290488712    -1.152785690617     1.007825032230
         H           -3.916893010378    -1.051193488712     0.428873309383     1.007825032230
         H           -0.628468010378    -1.221500488712    -0.692108690617     1.007825032230
         C            2.791372989622    -0.006770488712     1.137808309383    12.000000000000
         C            1.783675989622    -1.026308488712     0.635098309383    12.000000000000
         H            2.260679989622     0.912250511288     1.407914309383     1.007825032230
         H            3.209226989622    -0.405287488712     2.066819309383     1.007825032230
         O            0.967751989622    -0.539892488712    -0.437815690617    15.994914619570
         H            2.297966989622    -1.902313488712     0.238794309383     1.007825032230
         H            1.145519989622    -1.354416488712     1.461529309383     1.007825032230
         H            0.459048989622     0.222004511288    -0.103900690617     1.007825032230
         C            3.933221989622     0.312252511288     0.174511309383    12.000000000000
         H            4.694621989622     0.872246511288     0.721999309383     1.007825032230
         H            4.405439989622    -0.625040488712    -0.133357690617     1.007825032230
         C            3.521757989622     1.111459511288    -1.058255690617    12.000000000000
         H            3.029021989622     2.039923511288    -0.764887690617     1.007825032230
         H            4.394905989622     1.372581511288    -1.656099690617     1.007825032230
         H            2.829415989622     0.552254511288    -1.682356690617     1.007825032230

  Running in c1 symmetry.

  Rotational constants: A =      0.09533  B =      0.01367  C =      0.01324 [cm^-1]
  Rotational constants: A =   2857.94836  B =    409.86595  C =    397.00864 [MHz]
  Nuclear repulsion =  552.372270378319172

  Charge       = 0
  Multiplicity = 1
  Electrons    = 82
  Nalpha       = 41
  Nbeta        = 41

  ==> Algorithm <==

  SCF Algorithm Type is DF.
  DIIS enabled.
  MOM disabled.
  Fractional occupation disabled.
  Guess Type is SAD.
  Energy threshold   = 1.00e-08
  Density threshold  = 1.00e-08
  Integral threshold = 0.00e+00

  ==> Primary Basis <==

  Basis Set: JUN-CC-PVTZ
    Blend: JUN-CC-PVTZ
    Number of shells: 226
    Number of basis function: 614
    Number of Cartesian functions: 690
    Spherical Harmonics?: true
    Max angular momentum: 3

   => Loading Basis Set <=

    Name: (JUN-CC-PVTZ AUX)
    Role: JKFIT
    Keyword: DF_BASIS_SCF
    atoms 1-3, 12-13, 20, 23               entry C          line   152 file /home/r08543048/miniconda3/share/psi4/basis/jun-cc-pvtz-jkfit.gbs 
    atoms 4-5, 16                          entry O          line   272 file /home/r08543048/miniconda3/share/psi4/basis/jun-cc-pvtz-jkfit.gbs 
    atoms 6-11, 14-15, 17-19, 21-22, 24-26 entry H          line    70 file /home/r08543048/miniconda3/share/psi4/basis/jun-cc-pvtz-jkfit.gbs 

  ==> Pre-Iterations <==

   -------------------------------------------------------
    Irrep   Nso     Nmo     Nalpha   Nbeta   Ndocc  Nsocc
   -------------------------------------------------------
     A        614     614       0       0       0       0
   -------------------------------------------------------
    Total     614     614      41      41      41       0
   -------------------------------------------------------

  ==> Integral Setup <==

  ==> DiskDFJK: Density-Fitted J/K Matrices <==

    J tasked:                  Yes
    K tasked:                  Yes
    wK tasked:                  No
    OpenMP threads:              1
    Integrals threads:           1
    Memory [MiB]:            15735
    Algorithm:                Core
    Integral Cache:           SAVE
    Schwarz Cutoff:          1E-12
    Fitting Condition:       1E-10

   => Auxiliary Basis Set <=

  Basis Set: (JUN-CC-PVTZ AUX)
    Blend: JUN-CC-PVTZ-JKFIT
    Number of shells: 450
    Number of basis function: 1430
    Number of Cartesian functions: 1720
    Spherical Harmonics?: true
    Max angular momentum: 4

  Minimum eigenvalue in the overlap matrix is 3.2839612100E-05.
  Using Symmetric Orthogonalization.

  SCF Guess: Superposition of Atomic Densities via on-the-fly atomic UHF.

  ==> Iterations <==

                           Total Energy        Delta E     RMS |[F,P]|

   @DF-RHF iter SAD:  -497.86025525051133   -4.97860e+02   0.00000e+00 
   @DF-RHF iter   1:  -498.79669133935971   -9.36436e-01   1.43003e-03 DIIS
   @DF-RHF iter   2:  -499.10824014855484   -3.11549e-01   7.58181e-04 DIIS
   @DF-RHF iter   3:  -499.19251547117227   -8.42753e-02   1.39614e-04 DIIS
   @DF-RHF iter   4:  -499.19765708491627   -5.14161e-03   6.48808e-05 DIIS
   @DF-RHF iter   5:  -499.19847130899245   -8.14224e-04   1.35401e-05 DIIS
   @DF-RHF iter   6:  -499.19853403530544   -6.27263e-05   5.57959e-06 DIIS
   @DF-RHF iter   7:  -499.19854389739351   -9.86209e-06   1.94109e-06 DIIS
   @DF-RHF iter   8:  -499.19854577488468   -1.87749e-06   8.38902e-07 DIIS
   @DF-RHF iter   9:  -499.19854614384542   -3.68961e-07   2.53620e-07 DIIS
   @DF-RHF iter  10:  -499.19854617813257   -3.42872e-08   7.39356e-08 DIIS
   @DF-RHF iter  11:  -499.19854618065813   -2.52555e-09   2.05417e-08 DIIS
   @DF-RHF iter  12:  -499.19854618082439   -1.66267e-10   7.77267e-09 DIIS
  Energy and wave function converged.


  ==> Post-Iterations <==

    Orbital Energies [Eh]
    ---------------------

    Doubly Occupied:                                                      

       1A    -20.595836     2A    -20.561473     3A    -20.548177  
       4A    -11.385373     5A    -11.277498     6A    -11.244578  
       7A    -11.221528     8A    -11.220259     9A    -11.217052  
      10A    -11.201068    11A     -1.456621    12A     -1.364501  
      13A     -1.352770    14A     -1.070464    15A     -1.064781  
      16A     -0.975444    17A     -0.912251    18A     -0.870067  
      19A     -0.793028    20A     -0.788839    21A     -0.711390  
      22A     -0.697290    23A     -0.673130    24A     -0.657607  
      25A     -0.641457    26A     -0.632767    27A     -0.592503  
      28A     -0.587815    29A     -0.579821    30A     -0.562338  
      31A     -0.540480    32A     -0.530372    33A     -0.523760  
      34A     -0.509293    35A     -0.502384    36A     -0.498247  
      37A     -0.478385    38A     -0.473201    39A     -0.462559  
      40A     -0.452992    41A     -0.430202  

    Virtual:                                                              

      42A      0.049537    43A      0.051670    44A      0.056676  
      45A      0.059606    46A      0.064926    47A      0.066702  
      48A      0.074086    49A      0.089359    50A      0.092948  
      51A      0.096128    52A      0.099109    53A      0.100389  
      54A      0.108035    55A      0.109639    56A      0.122551  
      57A      0.125388    58A      0.130268    59A      0.133145  
      60A      0.144843    61A      0.148215    62A      0.159129  
      63A      0.166756    64A      0.168781    65A      0.180323  
      66A      0.189964    67A      0.193367    68A      0.204735  
      69A      0.209768    70A      0.210570    71A      0.215241  
      72A      0.227127    73A      0.236815    74A      0.240385  
      75A      0.246212    76A      0.256273    77A      0.259651  
      78A      0.262319    79A      0.268441    80A      0.283078  
      81A      0.286393    82A      0.293856    83A      0.295320  
      84A      0.297086    85A      0.303547    86A      0.308090  
      87A      0.311053    88A      0.313746    89A      0.317134  
      90A      0.324485    91A      0.328503    92A      0.334851  
      93A      0.341573    94A      0.344418    95A      0.347956  
      96A      0.351062    97A      0.357324    98A      0.362943  
      99A      0.366923   100A      0.371227   101A      0.379227  
     102A      0.385166   103A      0.395617   104A      0.401253  
     105A      0.405525   106A      0.409704   107A      0.419251  
     108A      0.425371   109A      0.433975   110A      0.437617  
     111A      0.444907   112A      0.452375   113A      0.456858  
     114A      0.457917   115A      0.464550   116A      0.472643  
     117A      0.480480   118A      0.490458   119A      0.496871  
     120A      0.506073   121A      0.508495   122A      0.510548  
     123A      0.514443   124A      0.527832   125A      0.528911  
     126A      0.536878   127A      0.543115   128A      0.547198  
     129A      0.553117   130A      0.559912   131A      0.565342  
     132A      0.574669   133A      0.583411   134A      0.589888  
     135A      0.591248   136A      0.602627   137A      0.617430  
     138A      0.627685   139A      0.634992   140A      0.646570  
     141A      0.654888   142A      0.666520   143A      0.676160  
     144A      0.683379   145A      0.692092   146A      0.694302  
     147A      0.699874   148A      0.706995   149A      0.718801  
     150A      0.723304   151A      0.727879   152A      0.729949  
     153A      0.734462   154A      0.749216   155A      0.756214  
     156A      0.763978   157A      0.773373   158A      0.784224  
     159A      0.788158   160A      0.795015   161A      0.800201  
     162A      0.803542   163A      0.808490   164A      0.812836  
     165A      0.826142   166A      0.828483   167A      0.841300  
     168A      0.842246   169A      0.852217   170A      0.862290  
     171A      0.867688   172A      0.875740   173A      0.880888  
     174A      0.886951   175A      0.893711   176A      0.899565  
     177A      0.905583   178A      0.915083   179A      0.920193  
     180A      0.921874   181A      0.926970   182A      0.931957  
     183A      0.948663   184A      0.964205   185A      0.965487  
     186A      0.985516   187A      0.989666   188A      0.997591  
     189A      1.006555   190A      1.019322   191A      1.025388  
     192A      1.041660   193A      1.050742   194A      1.067892  
     195A      1.075536   196A      1.090396   197A      1.095098  
     198A      1.105293   199A      1.118131   200A      1.121129  
     201A      1.127535   202A      1.144323   203A      1.155399  
     204A      1.178670   205A      1.194690   206A      1.204409  
     207A      1.217687   208A      1.225063   209A      1.243028  
     210A      1.244351   211A      1.266621   212A      1.275309  
     213A      1.280323   214A      1.298509   215A      1.301094  
     216A      1.320950   217A      1.325853   218A      1.344272  
     219A      1.346689   220A      1.354927   221A      1.360935  
     222A      1.367413   223A      1.376975   224A      1.388317  
     225A      1.390771   226A      1.399936   227A      1.401328  
     228A      1.423116   229A      1.427065   230A      1.427453  
     231A      1.438163   232A      1.452239   233A      1.462599  
     234A      1.464516   235A      1.469902   236A      1.477118  
     237A      1.483637   238A      1.490972   239A      1.495124  
     240A      1.515653   241A      1.520947   242A      1.529959  
     243A      1.535847   244A      1.543416   245A      1.555906  
     246A      1.563933   247A      1.566504   248A      1.573375  
     249A      1.579255   250A      1.589190   251A      1.606766  
     252A      1.611434   253A      1.615191   254A      1.621945  
     255A      1.637752   256A      1.643613   257A      1.661444  
     258A      1.671195   259A      1.679915   260A      1.681639  
     261A      1.683795   262A      1.693403   263A      1.726082  
     264A      1.728426   265A      1.739577   266A      1.768249  
     267A      1.773976   268A      1.784366   269A      1.788110  
     270A      1.799901   271A      1.811864   272A      1.816598  
     273A      1.827962   274A      1.836105   275A      1.846873  
     276A      1.847325   277A      1.872844   278A      1.891384  
     279A      1.911240   280A      1.918687   281A      1.922467  
     282A      1.924659   283A      1.960843   284A      1.965955  
     285A      1.970910   286A      1.996971   287A      1.998789  
     288A      2.046775   289A      2.092718   290A      2.104173  
     291A      2.131039   292A      2.177005   293A      2.244676  
     294A      2.249839   295A      2.304298   296A      2.342050  
     297A      2.369043   298A      2.399308   299A      2.426346  
     300A      2.442590   301A      2.470002   302A      2.507252  
     303A      2.546770   304A      2.571641   305A      2.625256  
     306A      2.631158   307A      2.653768   308A      2.672789  
     309A      2.710757   310A      2.761635   311A      2.795009  
     312A      2.806497   313A      2.820125   314A      2.825485  
     315A      2.843469   316A      2.851178   317A      2.879630  
     318A      2.886762   319A      2.894421   320A      2.907132  
     321A      2.909430   322A      2.931393   323A      2.935224  
     324A      2.956537   325A      2.974018   326A      2.976862  
     327A      3.010399   328A      3.021849   329A      3.028123  
     330A      3.030836   331A      3.058165   332A      3.074570  
     333A      3.083829   334A      3.091301   335A      3.106022  
     336A      3.116004   337A      3.124608   338A      3.127832  
     339A      3.131645   340A      3.145892   341A      3.161286  
     342A      3.176748   343A      3.188905   344A      3.197461  
     345A      3.213579   346A      3.232008   347A      3.240223  
     348A      3.242355   349A      3.278838   350A      3.282568  
     351A      3.301796   352A      3.315397   353A      3.327369  
     354A      3.332186   355A      3.350101   356A      3.370191  
     357A      3.375432   358A      3.376397   359A      3.394585  
     360A      3.404286   361A      3.420540   362A      3.431910  
     363A      3.438336   364A      3.445344   365A      3.450228  
     366A      3.462576   367A      3.468878   368A      3.477339  
     369A      3.481160   370A      3.484133   371A      3.491396  
     372A      3.493141   373A      3.503797   374A      3.504599  
     375A      3.514411   376A      3.521891   377A      3.527928  
     378A      3.541296   379A      3.550184   380A      3.562766  
     381A      3.568850   382A      3.573656   383A      3.587956  
     384A      3.593452   385A      3.601612   386A      3.621165  
     387A      3.628859   388A      3.634246   389A      3.648235  
     390A      3.660130   391A      3.669430   392A      3.674488  
     393A      3.678592   394A      3.694816   395A      3.726223  
     396A      3.741267   397A      3.756773   398A      3.765871  
     399A      3.776006   400A      3.779662   401A      3.792886  
     402A      3.793941   403A      3.801213   404A      3.809444  
     405A      3.827966   406A      3.835342   407A      3.840910  
     408A      3.865540   409A      3.872848   410A      3.884374  
     411A      3.891325   412A      3.893919   413A      3.911187  
     414A      3.913375   415A      3.941477   416A      3.949670  
     417A      3.961679   418A      3.966562   419A      3.977048  
     420A      3.982686   421A      4.001190   422A      4.020617  
     423A      4.036442   424A      4.061759   425A      4.068580  
     426A      4.091817   427A      4.107734   428A      4.116485  
     429A      4.130523   430A      4.143143   431A      4.171308  
     432A      4.191327   433A      4.209524   434A      4.221901  
     435A      4.223926   436A      4.228281   437A      4.240661  
     438A      4.252838   439A      4.258864   440A      4.279947  
     441A      4.293225   442A      4.300066   443A      4.306326  
     444A      4.314860   445A      4.325569   446A      4.333620  
     447A      4.351686   448A      4.353499   449A      4.359901  
     450A      4.368634   451A      4.375493   452A      4.398824  
     453A      4.411075   454A      4.416287   455A      4.422219  
     456A      4.435645   457A      4.444937   458A      4.447908  
     459A      4.468870   460A      4.473930   461A      4.479089  
     462A      4.484047   463A      4.499779   464A      4.508005  
     465A      4.510867   466A      4.528378   467A      4.541035  
     468A      4.551862   469A      4.560361   470A      4.561723  
     471A      4.575370   472A      4.597793   473A      4.604548  
     474A      4.626090   475A      4.634272   476A      4.637318  
     477A      4.646022   478A      4.660081   479A      4.673732  
     480A      4.677447   481A      4.690458   482A      4.696667  
     483A      4.709880   484A      4.725240   485A      4.733495  
     486A      4.735217   487A      4.769768   488A      4.779433  
     489A      4.801541   490A      4.819742   491A      4.842273  
     492A      4.851353   493A      4.855086   494A      4.874872  
     495A      4.893535   496A      4.912199   497A      4.920054  
     498A      4.926843   499A      4.936605   500A      4.963672  
     501A      5.029144   502A      5.049295   503A      5.063456  
     504A      5.086272   505A      5.099853   506A      5.121399  
     507A      5.134789   508A      5.144059   509A      5.158589  
     510A      5.201874   511A      5.210063   512A      5.240360  
     513A      5.253249   514A      5.260185   515A      5.274700  
     516A      5.277341   517A      5.304173   518A      5.308107  
     519A      5.314188   520A      5.320364   521A      5.329429  
     522A      5.352128   523A      5.357253   524A      5.370801  
     525A      5.403893   526A      5.430592   527A      5.450869  
     528A      5.457464   529A      5.489503   530A      5.500556  
     531A      5.518775   532A      5.574200   533A      5.599367  
     534A      5.609067   535A      5.619246   536A      5.622057  
     537A      5.644221   538A      5.653977   539A      5.656431  
     540A      5.671795   541A      5.737689   542A      5.739021  
     543A      5.767462   544A      5.775066   545A      5.777344  
     546A      5.799875   547A      5.815557   548A      5.820095  
     549A      5.824353   550A      5.853008   551A      5.862189  
     552A      5.879811   553A      5.889720   554A      5.900180  
     555A      5.910523   556A      5.929145   557A      5.947438  
     558A      5.963553   559A      5.989219   560A      6.018530  
     561A      6.026367   562A      6.052836   563A      6.061308  
     564A      6.139154   565A      6.183122   566A      6.209194  
     567A      6.300579   568A      6.323931   569A      6.433482  
     570A      6.477152   571A      6.493285   572A      6.501386  
     573A      6.516627   574A      6.549365   575A      6.559306  
     576A      6.565787   577A      6.585559   578A      6.627334  
     579A      6.751939   580A      6.755794   581A      6.940391  
     582A      6.970769   583A      7.007633   584A      7.035435  
     585A      7.109323   586A      7.199328   587A      7.223232  
     588A      7.291607   589A      7.326480   590A      7.343089  
     591A      7.386246   592A      7.416998   593A      7.436134  
     594A      7.450504   595A      7.473736   596A      7.684351  
     597A      7.701976   598A      7.739778   599A      7.789032  
     600A      7.881599   601A      7.902937   602A      8.007901  
     603A      8.195552   604A      8.318300   605A     12.170671  
     606A     13.691336   607A     13.827766   608A     13.876019  
     609A     14.110219   610A     14.143864   611A     14.221820  
     612A     14.504161   613A     14.683615   614A     14.707236  

    Final Occupation by Irrep:
              A 
    DOCC [    41 ]

  @DF-RHF Final Energy:  -499.19854618082439

   => Energetics <=

    Nuclear Repulsion Energy =            552.3722703783191719
    One-Electron Energy =               -1777.4224278514859634
    Two-Electron Energy =                 725.8516112923423407
    Total Energy =                       -499.1985461808244509

Computation Completed


Properties will be evaluated at   0.000000,   0.000000,   0.000000 [a0]

Properties computed using the SCF density matrix

  Nuclear Dipole Moment: [e a0]
     X:     6.7842      Y:     3.1558      Z:     1.8678

  Electronic Dipole Moment: [e a0]
     X:    -7.0022      Y:    -3.4322      Z:    -1.4365

  Dipole Moment: [e a0]
     X:    -0.2180      Y:    -0.2764      Z:     0.4312     Total:     0.5567

  Dipole Moment: [D]
     X:    -0.5541      Y:    -0.7027      Z:     1.0961     Total:     1.4150


*** tstop() called on r282 at Fri Sep 10 17:11:06 2021
Module time:
	user time   =     129.72 seconds =       2.16 minutes
	system time =       2.51 seconds =       0.04 minutes
	total time  =        132 seconds =       2.20 minutes
Total time:
	user time   =     129.72 seconds =       2.16 minutes
	system time =       2.51 seconds =       0.04 minutes
	total time  =        132 seconds =       2.20 minutes

  //>>>>>>>>>>>>>>>>>>>>>>>>>>>>>>>>>>>//
  //            Monomer A HF           //
  //<<<<<<<<<<<<<<<<<<<<<<<<<<<<<<<<<<<//


*** tstart() called on r282
*** at Fri Sep 10 17:11:06 2021

   => Loading Basis Set <=

    Name: JUN-CC-PVTZ
    Role: ORBITAL
    Keyword: BASIS
    atoms 1-3, 12-13, 20, 23               entry C          line   217 file /home/r08543048/miniconda3/share/psi4/basis/jun-cc-pvtz.gbs 
    atoms 4-5, 16                          entry O          line   305 file /home/r08543048/miniconda3/share/psi4/basis/jun-cc-pvtz.gbs 
    atoms 6-11, 14-15, 17-19, 21-22, 24-26 entry H          line    36 file /home/r08543048/miniconda3/share/psi4/basis/jun-cc-pvtz.gbs 


         ---------------------------------------------------------
                                   SCF
               by Justin Turney, Rob Parrish, Andy Simmonett
                          and Daniel G. A. Smith
                              RHF Reference
                        1 Threads,  20980 MiB Core
         ---------------------------------------------------------

  ==> Geometry <==

    Molecular point group: c1
    Full point group: C1

    Geometry (in Angstrom), charge = 0, multiplicity = 1:

       Center              X                  Y                   Z               Mass       
    ------------   -----------------  -----------------  -----------------  -----------------
         C           -4.181557010378     1.106108511288     0.467271309383    12.000000000000
         C           -3.609699010378    -0.166426488712    -0.131273690617    12.000000000000
         C           -2.106962010378    -0.168099488712    -0.174241690617    12.000000000000
         O           -1.406144010378     0.753233511288     0.219744309383    15.994914619570
         O           -1.617617010378    -1.297736488712    -0.696198690617    15.994914619570
         H           -3.873172010378     1.976467511288    -0.107894690617     1.007825032230
         H           -5.269171010378     1.063960511288     0.476590309383     1.007825032230
         H           -3.831442010378     1.245194511288     1.487898309383     1.007825032230
         H           -3.959455010378    -0.325290488712    -1.152785690617     1.007825032230
         H           -3.916893010378    -1.051193488712     0.428873309383     1.007825032230
         H           -0.628468010378    -1.221500488712    -0.692108690617     1.007825032230
      Gh(C)           2.791372989622    -0.006770488712     1.137808309383    12.000000000000
      Gh(C)           1.783675989622    -1.026308488712     0.635098309383    12.000000000000
      Gh(H)           2.260679989622     0.912250511288     1.407914309383     1.007825032230
      Gh(H)           3.209226989622    -0.405287488712     2.066819309383     1.007825032230
      Gh(O)           0.967751989622    -0.539892488712    -0.437815690617    15.994914619570
      Gh(H)           2.297966989622    -1.902313488712     0.238794309383     1.007825032230
      Gh(H)           1.145519989622    -1.354416488712     1.461529309383     1.007825032230
      Gh(H)           0.459048989622     0.222004511288    -0.103900690617     1.007825032230
      Gh(C)           3.933221989622     0.312252511288     0.174511309383    12.000000000000
      Gh(H)           4.694621989622     0.872246511288     0.721999309383     1.007825032230
      Gh(H)           4.405439989622    -0.625040488712    -0.133357690617     1.007825032230
      Gh(C)           3.521757989622     1.111459511288    -1.058255690617    12.000000000000
      Gh(H)           3.029021989622     2.039923511288    -0.764887690617     1.007825032230
      Gh(H)           4.394905989622     1.372581511288    -1.656099690617     1.007825032230
      Gh(H)           2.829415989622     0.552254511288    -1.682356690617     1.007825032230

  Running in c1 symmetry.

  Rotational constants: A =      0.09533  B =      0.01367  C =      0.01324 [cm^-1]
  Rotational constants: A =   2857.94836  B =    409.86595  C =    397.00864 [MHz]
  Nuclear repulsion =  178.619646272217494

  Charge       = 0
  Multiplicity = 1
  Electrons    = 40
  Nalpha       = 20
  Nbeta        = 20

  ==> Algorithm <==

  SCF Algorithm Type is DF.
  DIIS enabled.
  MOM disabled.
  Fractional occupation disabled.
  Guess Type is SAD.
  Energy threshold   = 1.00e-08
  Density threshold  = 1.00e-08
  Integral threshold = 0.00e+00

  ==> Primary Basis <==

  Basis Set: JUN-CC-PVTZ
    Blend: JUN-CC-PVTZ
    Number of shells: 226
    Number of basis function: 614
    Number of Cartesian functions: 690
    Spherical Harmonics?: true
    Max angular momentum: 3

   => Loading Basis Set <=

    Name: (JUN-CC-PVTZ AUX)
    Role: JKFIT
    Keyword: DF_BASIS_SCF
    atoms 1-3, 12-13, 20, 23               entry C          line   152 file /home/r08543048/miniconda3/share/psi4/basis/jun-cc-pvtz-jkfit.gbs 
    atoms 4-5, 16                          entry O          line   272 file /home/r08543048/miniconda3/share/psi4/basis/jun-cc-pvtz-jkfit.gbs 
    atoms 6-11, 14-15, 17-19, 21-22, 24-26 entry H          line    70 file /home/r08543048/miniconda3/share/psi4/basis/jun-cc-pvtz-jkfit.gbs 

  ==> Pre-Iterations <==

   -------------------------------------------------------
    Irrep   Nso     Nmo     Nalpha   Nbeta   Ndocc  Nsocc
   -------------------------------------------------------
     A        614     614       0       0       0       0
   -------------------------------------------------------
    Total     614     614      20      20      20       0
   -------------------------------------------------------

  ==> Integral Setup <==

  ==> DiskDFJK: Density-Fitted J/K Matrices <==

    J tasked:                  Yes
    K tasked:                  Yes
    wK tasked:                  No
    OpenMP threads:              1
    Integrals threads:           1
    Memory [MiB]:            15735
    Algorithm:                Core
    Integral Cache:           LOAD
    Schwarz Cutoff:          1E-12
    Fitting Condition:       1E-10

   => Auxiliary Basis Set <=

  Basis Set: (JUN-CC-PVTZ AUX)
    Blend: JUN-CC-PVTZ-JKFIT
    Number of shells: 450
    Number of basis function: 1430
    Number of Cartesian functions: 1720
    Spherical Harmonics?: true
    Max angular momentum: 4

  Minimum eigenvalue in the overlap matrix is 3.2839612100E-05.
  Using Symmetric Orthogonalization.

  SCF Guess: Superposition of Atomic Densities via on-the-fly atomic UHF.

  ==> Iterations <==

                           Total Energy        Delta E     RMS |[F,P]|

   @DF-RHF iter SAD:  -266.05711127015229   -2.66057e+02   0.00000e+00 
   @DF-RHF iter   1:  -266.74880155576511   -6.91690e-01   1.05974e-03 DIIS
   @DF-RHF iter   2:  -266.89638870442741   -1.47587e-01   6.29181e-04 DIIS
   @DF-RHF iter   3:  -266.94713287668850   -5.07442e-02   1.12424e-04 DIIS
   @DF-RHF iter   4:  -266.94997605020654   -2.84317e-03   5.30999e-05 DIIS
   @DF-RHF iter   5:  -266.95060957138861   -6.33521e-04   1.05374e-05 DIIS
   @DF-RHF iter   6:  -266.95065453932534   -4.49679e-05   5.12660e-06 DIIS
   @DF-RHF iter   7:  -266.95066364051638   -9.10119e-06   1.85996e-06 DIIS
   @DF-RHF iter   8:  -266.95066555097151   -1.91046e-06   6.69754e-07 DIIS
   @DF-RHF iter   9:  -266.95066582013874   -2.69167e-07   1.57928e-07 DIIS
   @DF-RHF iter  10:  -266.95066583381021   -1.36715e-08   4.82715e-08 DIIS
   @DF-RHF iter  11:  -266.95066583464160   -8.31392e-10   1.23180e-08 DIIS
   @DF-RHF iter  12:  -266.95066583469821   -5.66160e-11   2.84557e-09 DIIS
  Energy and wave function converged.


  ==> Post-Iterations <==

    Orbital Energies [Eh]
    ---------------------

    Doubly Occupied:                                                      

       1A    -20.620870     2A    -20.546831     3A    -11.386488  
       4A    -11.247842     5A    -11.221276     6A     -1.465681  
       7A     -1.354881     8A     -1.067280     9A     -0.916232  
      10A     -0.797967    11A     -0.703746    12A     -0.689844  
      13A     -0.662808    14A     -0.595255    15A     -0.593758  
      16A     -0.534871    17A     -0.524906    18A     -0.505216  
      19A     -0.479324    20A     -0.451437  

    Virtual:                                                              

      21A      0.029665    22A      0.046279    23A      0.049617  
      24A      0.051777    25A      0.061565    26A      0.063408  
      27A      0.071349    28A      0.084436    29A      0.086973  
      30A      0.091799    31A      0.096950    32A      0.099089  
      33A      0.101831    34A      0.107893    35A      0.114307  
      36A      0.122158    37A      0.123167    38A      0.129752  
      39A      0.131024    40A      0.140619    41A      0.149424  
      42A      0.154531    43A      0.159038    44A      0.163777  
      45A      0.169097    46A      0.175208    47A      0.180308  
      48A      0.189928    49A      0.200406    50A      0.204306  
      51A      0.210311    52A      0.214515    53A      0.226218  
      54A      0.234136    55A      0.244059    56A      0.245734  
      57A      0.257411    58A      0.259465    59A      0.262111  
      60A      0.267214    61A      0.287470    62A      0.291025  
      63A      0.295071    64A      0.300442    65A      0.301046  
      66A      0.305174    67A      0.309184    68A      0.314611  
      69A      0.318308    70A      0.330924    71A      0.336322  
      72A      0.337544    73A      0.341530    74A      0.345336  
      75A      0.352777    76A      0.358969    77A      0.370089  
      78A      0.374703    79A      0.378416    80A      0.382320  
      81A      0.391525    82A      0.395739    83A      0.400634  
      84A      0.402525    85A      0.413743    86A      0.421592  
      87A      0.429462    88A      0.432946    89A      0.437320  
      90A      0.442958    91A      0.448523    92A      0.459959  
      93A      0.461715    94A      0.470425    95A      0.479578  
      96A      0.490807    97A      0.494268    98A      0.499216  
      99A      0.507323   100A      0.508467   101A      0.513430  
     102A      0.517940   103A      0.526137   104A      0.536140  
     105A      0.539301   106A      0.545097   107A      0.547533  
     108A      0.557388   109A      0.561643   110A      0.574128  
     111A      0.579246   112A      0.596052   113A      0.598055  
     114A      0.607525   115A      0.609196   116A      0.617696  
     117A      0.623905   118A      0.632715   119A      0.645023  
     120A      0.648301   121A      0.652537   122A      0.664561  
     123A      0.667863   124A      0.680098   125A      0.684368  
     126A      0.693122   127A      0.699662   128A      0.706817  
     129A      0.713616   130A      0.717838   131A      0.722191  
     132A      0.732689   133A      0.740847   134A      0.746867  
     135A      0.751493   136A      0.772726   137A      0.777674  
     138A      0.783757   139A      0.795402   140A      0.803631  
     141A      0.806453   142A      0.817668   143A      0.825003  
     144A      0.836366   145A      0.844918   146A      0.855310  
     147A      0.872626   148A      0.881522   149A      0.885861  
     150A      0.892983   151A      0.905560   152A      0.915112  
     153A      0.925523   154A      0.934920   155A      0.951641  
     156A      0.955369   157A      0.979290   158A      0.988696  
     159A      0.994002   160A      1.007055   161A      1.019360  
     162A      1.036933   163A      1.044427   164A      1.056024  
     165A      1.065531   166A      1.080519   167A      1.086674  
     168A      1.093467   169A      1.099503   170A      1.114473  
     171A      1.122373   172A      1.132797   173A      1.145217  
     174A      1.151741   175A      1.163269   176A      1.168393  
     177A      1.183280   178A      1.194398   179A      1.201994  
     180A      1.216119   181A      1.225252   182A      1.228006  
     183A      1.237959   184A      1.245352   185A      1.248447  
     186A      1.259521   187A      1.264208   188A      1.273821  
     189A      1.283860   190A      1.289186   191A      1.310500  
     192A      1.315556   193A      1.322873   194A      1.325521  
     195A      1.341875   196A      1.347603   197A      1.352371  
     198A      1.360973   199A      1.361464   200A      1.372538  
     201A      1.381358   202A      1.396259   203A      1.398575  
     204A      1.411966   205A      1.421321   206A      1.429773  
     207A      1.435758   208A      1.444242   209A      1.446984  
     210A      1.457142   211A      1.464964   212A      1.468410  
     213A      1.483048   214A      1.485182   215A      1.489978  
     216A      1.495511   217A      1.501235   218A      1.529175  
     219A      1.532144   220A      1.542544   221A      1.551541  
     222A      1.556417   223A      1.563789   224A      1.570068  
     225A      1.577606   226A      1.580342   227A      1.592003  
     228A      1.601505   229A      1.611953   230A      1.624736  
     231A      1.627925   232A      1.644407   233A      1.651549  
     234A      1.670880   235A      1.679427   236A      1.686078  
     237A      1.691152   238A      1.713039   239A      1.723766  
     240A      1.741993   241A      1.753920   242A      1.755135  
     243A      1.775363   244A      1.783135   245A      1.795892  
     246A      1.799749   247A      1.821335   248A      1.826652  
     249A      1.831099   250A      1.850060   251A      1.874855  
     252A      1.890016   253A      1.892669   254A      1.902312  
     255A      1.912794   256A      1.922175   257A      1.953373  
     258A      1.961575   259A      1.966964   260A      1.984183  
     261A      2.029913   262A      2.041106   263A      2.060294  
     264A      2.092055   265A      2.103132   266A      2.119378  
     267A      2.135804   268A      2.163018   269A      2.194838  
     270A      2.212738   271A      2.229093   272A      2.242155  
     273A      2.257089   274A      2.287685   275A      2.298421  
     276A      2.327181   277A      2.355800   278A      2.366241  
     279A      2.388658   280A      2.408739   281A      2.434534  
     282A      2.447319   283A      2.456126   284A      2.492520  
     285A      2.507326   286A      2.518425   287A      2.538038  
     288A      2.562848   289A      2.579244   290A      2.595017  
     291A      2.620889   292A      2.647688   293A      2.656109  
     294A      2.666296   295A      2.676901   296A      2.710371  
     297A      2.741554   298A      2.805276   299A      2.829044  
     300A      2.855299   301A      2.875946   302A      2.892416  
     303A      2.928372   304A      2.947443   305A      2.969341  
     306A      2.973698   307A      3.018753   308A      3.027203  
     309A      3.034228   310A      3.074118   311A      3.093457  
     312A      3.108035   313A      3.115486   314A      3.130603  
     315A      3.136793   316A      3.178500   317A      3.206609  
     318A      3.240755   319A      3.257254   320A      3.293035  
     321A      3.304817   322A      3.341803   323A      3.361020  
     324A      3.377327   325A      3.379275   326A      3.433287  
     327A      3.449111   328A      3.463859   329A      3.475176  
     330A      3.486826   331A      3.494755   332A      3.505804  
     333A      3.509474   334A      3.514421   335A      3.522046  
     336A      3.554527   337A      3.559830   338A      3.577884  
     339A      3.581400   340A      3.597014   341A      3.609069  
     342A      3.612571   343A      3.623145   344A      3.628344  
     345A      3.648592   346A      3.653687   347A      3.660131  
     348A      3.676558   349A      3.692458   350A      3.694813  
     351A      3.720458   352A      3.727138   353A      3.743004  
     354A      3.757053   355A      3.768773   356A      3.773327  
     357A      3.784088   358A      3.789189   359A      3.801512  
     360A      3.811130   361A      3.830878   362A      3.838060  
     363A      3.858375   364A      3.867269   365A      3.870625  
     366A      3.876182   367A      3.881962   368A      3.896299  
     369A      3.900675   370A      3.910610   371A      3.914313  
     372A      3.953376   373A      3.962580   374A      3.966897  
     375A      3.977501   376A      3.995022   377A      3.996217  
     378A      4.024568   379A      4.059202   380A      4.078575  
     381A      4.084385   382A      4.089863   383A      4.114041  
     384A      4.121624   385A      4.134096   386A      4.151714  
     387A      4.189798   388A      4.190201   389A      4.211737  
     390A      4.217197   391A      4.231679   392A      4.237003  
     393A      4.250694   394A      4.258223   395A      4.272715  
     396A      4.286533   397A      4.304618   398A      4.315934  
     399A      4.326710   400A      4.348280   401A      4.353740  
     402A      4.363543   403A      4.366725   404A      4.386133  
     405A      4.409719   406A      4.411840   407A      4.416399  
     408A      4.424174   409A      4.440591   410A      4.443257  
     411A      4.462045   412A      4.472778   413A      4.480547  
     414A      4.485413   415A      4.493537   416A      4.500884  
     417A      4.523641   418A      4.542143   419A      4.543589  
     420A      4.563712   421A      4.567017   422A      4.578896  
     423A      4.584279   424A      4.603162   425A      4.621103  
     426A      4.633288   427A      4.635028   428A      4.644673  
     429A      4.655298   430A      4.671271   431A      4.676779  
     432A      4.692589   433A      4.696104   434A      4.708425  
     435A      4.710110   436A      4.716667   437A      4.720235  
     438A      4.755436   439A      4.758353   440A      4.759976  
     441A      4.763542   442A      4.781676   443A      4.796288  
     444A      4.802651   445A      4.813216   446A      4.826432  
     447A      4.832689   448A      4.842077   449A      4.850868  
     450A      4.858270   451A      4.864328   452A      4.880674  
     453A      4.884664   454A      4.909014   455A      4.911558  
     456A      4.919963   457A      4.930885   458A      4.933393  
     459A      4.941462   460A      4.943027   461A      4.963454  
     462A      4.979574   463A      4.996006   464A      5.000661  
     465A      5.009664   466A      5.025188   467A      5.036564  
     468A      5.055813   469A      5.064471   470A      5.082287  
     471A      5.096665   472A      5.100056   473A      5.115036  
     474A      5.119530   475A      5.131039   476A      5.136086  
     477A      5.149044   478A      5.154306   479A      5.173828  
     480A      5.225644   481A      5.238399   482A      5.250145  
     483A      5.257428   484A      5.274806   485A      5.283724  
     486A      5.290095   487A      5.314581   488A      5.317542  
     489A      5.335945   490A      5.354378   491A      5.385175  
     492A      5.388353   493A      5.422893   494A      5.442041  
     495A      5.455602   496A      5.489015   497A      5.499263  
     498A      5.542271   499A      5.568909   500A      5.591628  
     501A      5.616563   502A      5.633986   503A      5.644239  
     504A      5.647952   505A      5.650713   506A      5.683223  
     507A      5.703469   508A      5.734806   509A      5.738173  
     510A      5.740781   511A      5.791448   512A      5.802520  
     513A      5.820061   514A      5.825397   515A      5.862833  
     516A      5.870526   517A      5.893119   518A      5.906314  
     519A      5.908687   520A      5.942322   521A      5.963231  
     522A      5.981516   523A      5.997214   524A      6.029514  
     525A      6.054805   526A      6.064645   527A      6.086288  
     528A      6.127254   529A      6.155594   530A      6.193260  
     531A      6.237583   532A      6.243354   533A      6.270840  
     534A      6.303256   535A      6.350201   536A      6.382094  
     537A      6.388818   538A      6.442836   539A      6.465688  
     540A      6.471823   541A      6.483301   542A      6.488235  
     543A      6.501192   544A      6.546676   545A      6.555128  
     546A      6.662396   547A      6.748151   548A      6.753167  
     549A      6.768061   550A      6.808690   551A      6.917330  
     552A      6.955060   553A      6.957290   554A      6.959241  
     555A      7.016646   556A      7.100660   557A      7.134657  
     558A      7.208977   559A      7.289755   560A      7.303133  
     561A      7.319398   562A      7.363000   563A      7.392789  
     564A      7.396272   565A      7.413075   566A      7.451512  
     567A      7.455058   568A      7.502395   569A      7.555106  
     570A      7.602082   571A      7.675028   572A      7.682619  
     573A      7.696894   574A      7.705887   575A      7.747206  
     576A      7.771786   577A      7.816094   578A      7.820900  
     579A      7.852418   580A      7.867703   581A      7.909674  
     582A      7.954840   583A      7.977760   584A      8.012984  
     585A      8.115025   586A      8.196334   587A      8.249441  
     588A      8.314320   589A      8.351853   590A      8.523816  
     591A      8.743925   592A      9.546405   593A      9.598670  
     594A      9.643326   595A      9.844043   596A      9.929146  
     597A      9.976852   598A     10.147767   599A     10.272529  
     600A     10.410217   601A     11.217357   602A     11.808016  
     603A     12.171470   604A     12.786167   605A     13.636412  
     606A     13.879233   607A     14.140754   608A     14.486841  
     609A     14.701385   610A     43.929442   611A     44.381706  
     612A     45.383497   613A     45.756292   614A     61.863097  

    Final Occupation by Irrep:
              A 
    DOCC [    20 ]

  @DF-RHF Final Energy:  -266.95066583469821

   => Energetics <=

    Nuclear Repulsion Energy =            178.6196462722174942
    One-Electron Energy =                -718.4075986398963778
    Two-Electron Energy =                 272.8372865329806132
    Total Energy =                       -266.9506658346982135

Computation Completed


Properties will be evaluated at   0.000000,   0.000000,   0.000000 [a0]

Properties computed using the SCF density matrix

  Nuclear Dipole Moment: [e a0]
     X:  -198.5308      Y:     3.7060      Z:    -4.5363

  Electronic Dipole Moment: [e a0]
     X:   198.0806      Y:    -4.2894      Z:     4.2850

  Dipole Moment: [e a0]
     X:    -0.4503      Y:    -0.5835      Z:    -0.2513     Total:     0.7787

  Dipole Moment: [D]
     X:    -1.1445      Y:    -1.4831      Z:    -0.6387     Total:     1.9792


*** tstop() called on r282 at Fri Sep 10 17:12:33 2021
Module time:
	user time   =      85.80 seconds =       1.43 minutes
	system time =       1.15 seconds =       0.02 minutes
	total time  =         87 seconds =       1.45 minutes
Total time:
	user time   =     215.53 seconds =       3.59 minutes
	system time =       3.66 seconds =       0.06 minutes
	total time  =        219 seconds =       3.65 minutes

  //>>>>>>>>>>>>>>>>>>>>>>>>>>>>>>>>>>>//
  //            Monomer B HF           //
  //<<<<<<<<<<<<<<<<<<<<<<<<<<<<<<<<<<<//


*** tstart() called on r282
*** at Fri Sep 10 17:12:33 2021

   => Loading Basis Set <=

    Name: JUN-CC-PVTZ
    Role: ORBITAL
    Keyword: BASIS
    atoms 1-3, 12-13, 20, 23               entry C          line   217 file /home/r08543048/miniconda3/share/psi4/basis/jun-cc-pvtz.gbs 
    atoms 4-5, 16                          entry O          line   305 file /home/r08543048/miniconda3/share/psi4/basis/jun-cc-pvtz.gbs 
    atoms 6-11, 14-15, 17-19, 21-22, 24-26 entry H          line    36 file /home/r08543048/miniconda3/share/psi4/basis/jun-cc-pvtz.gbs 


         ---------------------------------------------------------
                                   SCF
               by Justin Turney, Rob Parrish, Andy Simmonett
                          and Daniel G. A. Smith
                              RHF Reference
                        1 Threads,  20980 MiB Core
         ---------------------------------------------------------

  ==> Geometry <==

    Molecular point group: c1
    Full point group: C1

    Geometry (in Angstrom), charge = 0, multiplicity = 1:

       Center              X                  Y                   Z               Mass       
    ------------   -----------------  -----------------  -----------------  -----------------
      Gh(C)          -4.181557010378     1.106108511288     0.467271309383    12.000000000000
      Gh(C)          -3.609699010378    -0.166426488712    -0.131273690617    12.000000000000
      Gh(C)          -2.106962010378    -0.168099488712    -0.174241690617    12.000000000000
      Gh(O)          -1.406144010378     0.753233511288     0.219744309383    15.994914619570
      Gh(O)          -1.617617010378    -1.297736488712    -0.696198690617    15.994914619570
      Gh(H)          -3.873172010378     1.976467511288    -0.107894690617     1.007825032230
      Gh(H)          -5.269171010378     1.063960511288     0.476590309383     1.007825032230
      Gh(H)          -3.831442010378     1.245194511288     1.487898309383     1.007825032230
      Gh(H)          -3.959455010378    -0.325290488712    -1.152785690617     1.007825032230
      Gh(H)          -3.916893010378    -1.051193488712     0.428873309383     1.007825032230
      Gh(H)          -0.628468010378    -1.221500488712    -0.692108690617     1.007825032230
         C            2.791372989622    -0.006770488712     1.137808309383    12.000000000000
         C            1.783675989622    -1.026308488712     0.635098309383    12.000000000000
         H            2.260679989622     0.912250511288     1.407914309383     1.007825032230
         H            3.209226989622    -0.405287488712     2.066819309383     1.007825032230
         O            0.967751989622    -0.539892488712    -0.437815690617    15.994914619570
         H            2.297966989622    -1.902313488712     0.238794309383     1.007825032230
         H            1.145519989622    -1.354416488712     1.461529309383     1.007825032230
         H            0.459048989622     0.222004511288    -0.103900690617     1.007825032230
         C            3.933221989622     0.312252511288     0.174511309383    12.000000000000
         H            4.694621989622     0.872246511288     0.721999309383     1.007825032230
         H            4.405439989622    -0.625040488712    -0.133357690617     1.007825032230
         C            3.521757989622     1.111459511288    -1.058255690617    12.000000000000
         H            3.029021989622     2.039923511288    -0.764887690617     1.007825032230
         H            4.394905989622     1.372581511288    -1.656099690617     1.007825032230
         H            2.829415989622     0.552254511288    -1.682356690617     1.007825032230

  Running in c1 symmetry.

  Rotational constants: A =      0.09533  B =      0.01367  C =      0.01324 [cm^-1]
  Rotational constants: A =   2857.94836  B =    409.86595  C =    397.00864 [MHz]
  Nuclear repulsion =  192.187873989603759

  Charge       = 0
  Multiplicity = 1
  Electrons    = 42
  Nalpha       = 21
  Nbeta        = 21

  ==> Algorithm <==

  SCF Algorithm Type is DF.
  DIIS enabled.
  MOM disabled.
  Fractional occupation disabled.
  Guess Type is SAD.
  Energy threshold   = 1.00e-08
  Density threshold  = 1.00e-08
  Integral threshold = 0.00e+00

  ==> Primary Basis <==

  Basis Set: JUN-CC-PVTZ
    Blend: JUN-CC-PVTZ
    Number of shells: 226
    Number of basis function: 614
    Number of Cartesian functions: 690
    Spherical Harmonics?: true
    Max angular momentum: 3

   => Loading Basis Set <=

    Name: (JUN-CC-PVTZ AUX)
    Role: JKFIT
    Keyword: DF_BASIS_SCF
    atoms 1-3, 12-13, 20, 23               entry C          line   152 file /home/r08543048/miniconda3/share/psi4/basis/jun-cc-pvtz-jkfit.gbs 
    atoms 4-5, 16                          entry O          line   272 file /home/r08543048/miniconda3/share/psi4/basis/jun-cc-pvtz-jkfit.gbs 
    atoms 6-11, 14-15, 17-19, 21-22, 24-26 entry H          line    70 file /home/r08543048/miniconda3/share/psi4/basis/jun-cc-pvtz-jkfit.gbs 

  ==> Pre-Iterations <==

   -------------------------------------------------------
    Irrep   Nso     Nmo     Nalpha   Nbeta   Ndocc  Nsocc
   -------------------------------------------------------
     A        614     614       0       0       0       0
   -------------------------------------------------------
    Total     614     614      21      21      21       0
   -------------------------------------------------------

  ==> Integral Setup <==

  ==> DiskDFJK: Density-Fitted J/K Matrices <==

    J tasked:                  Yes
    K tasked:                  Yes
    wK tasked:                  No
    OpenMP threads:              1
    Integrals threads:           1
    Memory [MiB]:            15735
    Algorithm:                Core
    Integral Cache:           LOAD
    Schwarz Cutoff:          1E-12
    Fitting Condition:       1E-10

   => Auxiliary Basis Set <=

  Basis Set: (JUN-CC-PVTZ AUX)
    Blend: JUN-CC-PVTZ-JKFIT
    Number of shells: 450
    Number of basis function: 1430
    Number of Cartesian functions: 1720
    Spherical Harmonics?: true
    Max angular momentum: 4

  Minimum eigenvalue in the overlap matrix is 3.2839612100E-05.
  Using Symmetric Orthogonalization.

  SCF Guess: Superposition of Atomic Densities via on-the-fly atomic UHF.

  ==> Iterations <==

                           Total Energy        Delta E     RMS |[F,P]|

   @DF-RHF iter SAD:  -231.55148120531265   -2.31551e+02   0.00000e+00 
   @DF-RHF iter   1:  -232.00655967987487   -4.55078e-01   1.03225e-03 DIIS
   @DF-RHF iter   2:  -232.18380210349881   -1.77242e-01   5.50427e-04 DIIS
   @DF-RHF iter   3:  -232.23256765211539   -4.87655e-02   9.43421e-05 DIIS
   @DF-RHF iter   4:  -232.23532436905367   -2.75672e-03   3.24396e-05 DIIS
   @DF-RHF iter   5:  -232.23555061061523   -2.26242e-04   8.13761e-06 DIIS
   @DF-RHF iter   6:  -232.23556852784108   -1.79172e-05   1.84068e-06 DIIS
   @DF-RHF iter   7:  -232.23556985449375   -1.32665e-06   4.54363e-07 DIIS
   @DF-RHF iter   8:  -232.23556993895340   -8.44597e-08   1.45517e-07 DIIS
   @DF-RHF iter   9:  -232.23556994812131   -9.16791e-09   4.06072e-08 DIIS
   @DF-RHF iter  10:  -232.23556994894795   -8.26645e-10   9.46570e-09 DIIS
  Energy and wave function converged.


  ==> Post-Iterations <==

    Orbital Energies [Eh]
    ---------------------

    Doubly Occupied:                                                      

       1A    -20.554328     2A    -11.272099     3A    -11.220772  
       4A    -11.216854     5A    -11.201516     6A     -1.350345  
       7A     -1.068597     8A     -0.972691     9A     -0.866174  
      10A     -0.790308    11A     -0.675200    12A     -0.638124  
      13A     -0.626039    14A     -0.581054    15A     -0.559686  
      16A     -0.534435    17A     -0.504150    18A     -0.495971  
      19A     -0.473050    20A     -0.459874    21A     -0.425483  

    Virtual:                                                              

      22A      0.030025    23A      0.048210    24A      0.051009  
      25A      0.055212    26A      0.058745    27A      0.065690  
      28A      0.068523    29A      0.077082    30A      0.091602  
      31A      0.092005    32A      0.094710    33A      0.097198  
      34A      0.103237    35A      0.106260    36A      0.115046  
      37A      0.121554    38A      0.127159    39A      0.132014  
      40A      0.136203    41A      0.145662    42A      0.149557  
      43A      0.155637    44A      0.161657    45A      0.164717  
      46A      0.179966    47A      0.183860    48A      0.196121  
      49A      0.196624    50A      0.200548    51A      0.210940  
      52A      0.212618    53A      0.216735    54A      0.220562  
      55A      0.228632    56A      0.243492    57A      0.250106  
      58A      0.252783    59A      0.258803    60A      0.270655  
      61A      0.278417    62A      0.288905    63A      0.292136  
      64A      0.297195    65A      0.304261    66A      0.307298  
      67A      0.311406    68A      0.316739    69A      0.319768  
      70A      0.329542    71A      0.336224    72A      0.338889  
      73A      0.343689    74A      0.351027    75A      0.355127  
      76A      0.359253    77A      0.365236    78A      0.372149  
      79A      0.375514    80A      0.377304    81A      0.384816  
      82A      0.389530    83A      0.401899    84A      0.403750  
      85A      0.409357    86A      0.415730    87A      0.422482  
      88A      0.422775    89A      0.431670    90A      0.435557  
      91A      0.448598    92A      0.455320    93A      0.457239  
      94A      0.461922    95A      0.467313    96A      0.478746  
      97A      0.483138    98A      0.485449    99A      0.488856  
     100A      0.495460   101A      0.505539   102A      0.511444  
     103A      0.520316   104A      0.524820   105A      0.529734  
     106A      0.534319   107A      0.537371   108A      0.543983  
     109A      0.551858   110A      0.558130   111A      0.561467  
     112A      0.568651   113A      0.582758   114A      0.586081  
     115A      0.594212   116A      0.603054   117A      0.612510  
     118A      0.631429   119A      0.635214   120A      0.642055  
     121A      0.652450   122A      0.657346   123A      0.666576  
     124A      0.671141   125A      0.680928   126A      0.693814  
     127A      0.699162   128A      0.704805   129A      0.722247  
     130A      0.726812   131A      0.730971   132A      0.737200  
     133A      0.749558   134A      0.761662   135A      0.766407  
     136A      0.780139   137A      0.786536   138A      0.793601  
     139A      0.801576   140A      0.812630   141A      0.815252  
     142A      0.829181   143A      0.837079   144A      0.840685  
     145A      0.843401   146A      0.859106   147A      0.864189  
     148A      0.874710   149A      0.880547   150A      0.887415  
     151A      0.891244   152A      0.904132   153A      0.906830  
     154A      0.907535   155A      0.921184   156A      0.932838  
     157A      0.944341   158A      0.965096   159A      0.969728  
     160A      0.983784   161A      0.994867   162A      1.005095  
     163A      1.013430   164A      1.020260   165A      1.026532  
     166A      1.033333   167A      1.047161   168A      1.056955  
     169A      1.069754   170A      1.071898   171A      1.081815  
     172A      1.088433   173A      1.103898   174A      1.110630  
     175A      1.113528   176A      1.124805   177A      1.145683  
     178A      1.153057   179A      1.164130   180A      1.170003  
     181A      1.184805   182A      1.199373   183A      1.208756  
     184A      1.217591   185A      1.228101   186A      1.232048  
     187A      1.240759   188A      1.247058   189A      1.250159  
     190A      1.267462   191A      1.280701   192A      1.283570  
     193A      1.287120   194A      1.301893   195A      1.314809  
     196A      1.320954   197A      1.328174   198A      1.334582  
     199A      1.348039   200A      1.355703   201A      1.371485  
     202A      1.375755   203A      1.387933   204A      1.391886  
     205A      1.400532   206A      1.408215   207A      1.424401  
     208A      1.428574   209A      1.435199   210A      1.443340  
     211A      1.455745   212A      1.473412   213A      1.480889  
     214A      1.492433   215A      1.505593   216A      1.519053  
     217A      1.524336   218A      1.536738   219A      1.539456  
     220A      1.546490   221A      1.552790   222A      1.564846  
     223A      1.572043   224A      1.578552   225A      1.584605  
     226A      1.586954   227A      1.592696   228A      1.598311  
     229A      1.615416   230A      1.621627   231A      1.636802  
     232A      1.641506   233A      1.648304   234A      1.670412  
     235A      1.684793   236A      1.690464   237A      1.708353  
     238A      1.712119   239A      1.722352   240A      1.729370  
     241A      1.754835   242A      1.766605   243A      1.774555  
     244A      1.777470   245A      1.784988   246A      1.798021  
     247A      1.813925   248A      1.815824   249A      1.826234  
     250A      1.832697   251A      1.857729   252A      1.881194  
     253A      1.883968   254A      1.889232   255A      1.917389  
     256A      1.928881   257A      1.935646   258A      1.945325  
     259A      1.951819   260A      1.961367   261A      1.968112  
     262A      1.971836   263A      1.993190   264A      2.011671  
     265A      2.045540   266A      2.059128   267A      2.084525  
     268A      2.096637   269A      2.114345   270A      2.151622  
     271A      2.170628   272A      2.182532   273A      2.211562  
     274A      2.264813   275A      2.321116   276A      2.358989  
     277A      2.369631   278A      2.409593   279A      2.446459  
     280A      2.455303   281A      2.501079   282A      2.509879  
     283A      2.534415   284A      2.559778   285A      2.589245  
     286A      2.599146   287A      2.618087   288A      2.659071  
     289A      2.667205   290A      2.746678   291A      2.772148  
     292A      2.790973   293A      2.812769   294A      2.823376  
     295A      2.826098   296A      2.832844   297A      2.865368  
     298A      2.882004   299A      2.897474   300A      2.912936  
     301A      2.933518   302A      2.940992   303A      2.964060  
     304A      2.976628   305A      2.989331   306A      2.993056  
     307A      3.012150   308A      3.014129   309A      3.037581  
     310A      3.054689   311A      3.078419   312A      3.079558  
     313A      3.113783   314A      3.118344   315A      3.130347  
     316A      3.134170   317A      3.162740   318A      3.175821  
     319A      3.184437   320A      3.212355   321A      3.227950  
     322A      3.247246   323A      3.281749   324A      3.291897  
     325A      3.312061   326A      3.333870   327A      3.347608  
     328A      3.374520   329A      3.405607   330A      3.413304  
     331A      3.429689   332A      3.440388   333A      3.443596  
     334A      3.453447   335A      3.455774   336A      3.469823  
     337A      3.482737   338A      3.491330   339A      3.504028  
     340A      3.507258   341A      3.519400   342A      3.530860  
     343A      3.541716   344A      3.544322   345A      3.562401  
     346A      3.569929   347A      3.582080   348A      3.598359  
     349A      3.601784   350A      3.609022   351A      3.611173  
     352A      3.627902   353A      3.629506   354A      3.646043  
     355A      3.670552   356A      3.684466   357A      3.695183  
     358A      3.700226   359A      3.714125   360A      3.735207  
     361A      3.753193   362A      3.764037   363A      3.770944  
     364A      3.777168   365A      3.791018   366A      3.803191  
     367A      3.804265   368A      3.822421   369A      3.826652  
     370A      3.840746   371A      3.850143   372A      3.858663  
     373A      3.869735   374A      3.879566   375A      3.883337  
     376A      3.904530   377A      3.911340   378A      3.912516  
     379A      3.944656   380A      3.950425   381A      3.965932  
     382A      3.976793   383A      3.981564   384A      3.987351  
     385A      4.016989   386A      4.024469   387A      4.032912  
     388A      4.045412   389A      4.088110   390A      4.098282  
     391A      4.110802   392A      4.119329   393A      4.135707  
     394A      4.149888   395A      4.165414   396A      4.171226  
     397A      4.192456   398A      4.198972   399A      4.222260  
     400A      4.246738   401A      4.250757   402A      4.265569  
     403A      4.269963   404A      4.279058   405A      4.287255  
     406A      4.302143   407A      4.309351   408A      4.318947  
     409A      4.340363   410A      4.351854   411A      4.370304  
     412A      4.382878   413A      4.390574   414A      4.396101  
     415A      4.407285   416A      4.419481   417A      4.423782  
     418A      4.438516   419A      4.456423   420A      4.467469  
     421A      4.473848   422A      4.487661   423A      4.492917  
     424A      4.497174   425A      4.510717   426A      4.525620  
     427A      4.534413   428A      4.551081   429A      4.553215  
     430A      4.559397   431A      4.580430   432A      4.589501  
     433A      4.598127   434A      4.607194   435A      4.620590  
     436A      4.636211   437A      4.638972   438A      4.646966  
     439A      4.656534   440A      4.675934   441A      4.682215  
     442A      4.687911   443A      4.699540   444A      4.716820  
     445A      4.720091   446A      4.740215   447A      4.753765  
     448A      4.767641   449A      4.770724   450A      4.777890  
     451A      4.791737   452A      4.802560   453A      4.813808  
     454A      4.818409   455A      4.825646   456A      4.842563  
     457A      4.849143   458A      4.856227   459A      4.864450  
     460A      4.886395   461A      4.899306   462A      4.905911  
     463A      4.908110   464A      4.921370   465A      4.947169  
     466A      4.953977   467A      4.961561   468A      4.976647  
     469A      4.985971   470A      4.990279   471A      5.016748  
     472A      5.019282   473A      5.042643   474A      5.047512  
     475A      5.053169   476A      5.072736   477A      5.085818  
     478A      5.102951   479A      5.114889   480A      5.141731  
     481A      5.158529   482A      5.171839   483A      5.181418  
     484A      5.195739   485A      5.211032   486A      5.238616  
     487A      5.256446   488A      5.278071   489A      5.278853  
     490A      5.303519   491A      5.313539   492A      5.319448  
     493A      5.327468   494A      5.361434   495A      5.370196  
     496A      5.400385   497A      5.419169   498A      5.431260  
     499A      5.448541   500A      5.476520   501A      5.503424  
     502A      5.523100   503A      5.553940   504A      5.564483  
     505A      5.570651   506A      5.588419   507A      5.618434  
     508A      5.649117   509A      5.660201   510A      5.667844  
     511A      5.696223   512A      5.749759   513A      5.753659  
     514A      5.770676   515A      5.777125   516A      5.797561  
     517A      5.814433   518A      5.826670   519A      5.839661  
     520A      5.863384   521A      5.880595   522A      5.905685  
     523A      5.922140   524A      5.946600   525A      5.964066  
     526A      5.997218   527A      6.018070   528A      6.055794  
     529A      6.095034   530A      6.112117   531A      6.173544  
     532A      6.198950   533A      6.209875   534A      6.277632  
     535A      6.307040   536A      6.338350   537A      6.380591  
     538A      6.435140   539A      6.444487   540A      6.456507  
     541A      6.459152   542A      6.493892   543A      6.516625  
     544A      6.541416   545A      6.556404   546A      6.567871  
     547A      6.579556   548A      6.589919   549A      6.628368  
     550A      6.676932   551A      6.821208   552A      6.824877  
     553A      6.897001   554A      7.007493   555A      7.032854  
     556A      7.070206   557A      7.153614   558A      7.205698  
     559A      7.221045   560A      7.273488   561A      7.379847  
     562A      7.422979   563A      7.462119   564A      7.517195  
     565A      7.533113   566A      7.601108   567A      7.633606  
     568A      7.685278   569A      7.711146   570A      7.790047  
     571A      7.797264   572A      7.844762   573A      7.862399  
     574A      7.915460   575A      7.959904   576A      7.989626  
     577A      8.049679   578A      8.178470   579A      8.209772  
     580A      8.260262   581A      8.521600   582A      8.679447  
     583A      8.869559   584A      9.154041   585A      9.442653  
     586A      9.678203   587A      9.736092   588A      9.793842  
     589A      9.875016   590A      9.904332   591A      9.927469  
     592A      9.963497   593A      9.977050   594A     10.137755  
     595A     10.407165   596A     10.504150   597A     11.036434  
     598A     11.385571   599A     11.577722   600A     11.625924  
     601A     12.038400   602A     13.127501   603A     13.689582  
     604A     13.750779   605A     13.846920   606A     13.956310  
     607A     14.123085   608A     14.248417   609A     14.685209  
     610A     43.008782   611A     45.104164   612A     45.807427  
     613A     61.032823   614A     62.004511  

    Final Occupation by Irrep:
              A 
    DOCC [    21 ]

  @DF-RHF Final Energy:  -232.23556994894795

   => Energetics <=

    Nuclear Repulsion Energy =            192.1878739896037587
    One-Electron Energy =                -695.8733852161753930
    Two-Electron Energy =                 271.4499412776236795
    Total Energy =                       -232.2355699489479548

Computation Completed


Properties will be evaluated at   0.000000,   0.000000,   0.000000 [a0]

Properties computed using the SCF density matrix

  Nuclear Dipole Moment: [e a0]
     X:   205.3150      Y:    -0.5502      Z:     6.4041

  Electronic Dipole Moment: [e a0]
     X:  -205.2311      Y:     0.7895      Z:    -5.7550

  Dipole Moment: [e a0]
     X:     0.0839      Y:     0.2393      Z:     0.6491     Total:     0.6968

  Dipole Moment: [D]
     X:     0.2134      Y:     0.6083      Z:     1.6498     Total:     1.7712


*** tstop() called on r282 at Fri Sep 10 17:13:53 2021
Module time:
	user time   =      77.90 seconds =       1.30 minutes
	system time =       1.98 seconds =       0.03 minutes
	total time  =         80 seconds =       1.33 minutes
Total time:
	user time   =     293.43 seconds =       4.89 minutes
	system time =       5.64 seconds =       0.09 minutes
	total time  =        299 seconds =       4.98 minutes
  Constructing Basis Sets for SAPT...

   => Loading Basis Set <=

    Name: (JUN-CC-PVTZ AUX)
    Role: RIFIT
    Keyword: DF_BASIS_SAPT
    atoms 1-3, 12-13, 20, 23               entry C          line   132 file /home/r08543048/miniconda3/share/psi4/basis/jun-cc-pvtz-ri.gbs 
    atoms 4-5, 16                          entry O          line   244 file /home/r08543048/miniconda3/share/psi4/basis/jun-cc-pvtz-ri.gbs 
    atoms 6-11, 14-15, 17-19, 21-22, 24-26 entry H          line    30 file /home/r08543048/miniconda3/share/psi4/basis/jun-cc-pvtz-ri.gbs 


  //>>>>>>>>>>>>>>>>>>>>>>>>>>>>>>>>>>>//
  //               SAPT0               //
  //<<<<<<<<<<<<<<<<<<<<<<<<<<<<<<<<<<<//


*** tstart() called on r282
*** at Fri Sep 10 17:13:53 2021

        SAPT0  
    Ed Hohenstein
     6 June 2009

      Orbital Information
  --------------------------
    NSO        =       614
    NMO        =       614
    NRI        =      1450
    NOCC A     =        20
    NOCC B     =        21
    FOCC A     =         0
    FOCC B     =         0
    NVIR A     =       594
    NVIR B     =       593

    Elst10,r            =    -0.036702393557 [Eh]
    Exch10              =     0.038296862431 [Eh]
    Exch10 (S^2)        =     0.037794986698 [Eh]

    Iter     Energy [mEh]          dE [mEh]         Residual      Time [s]
       1      -6.96452844       6.964528435      15.064041213             1
       2      -8.43877230       1.474243862       8.089318290             3
       3      -8.75340465       0.314632353       2.288680609             5
       4      -8.67593393      -0.077470718       0.827026814             7
       5      -8.67226659      -0.003667340       0.285919359             9
       6      -8.67888165       0.006615061       0.102996312            10
       7      -8.67909183       0.000210174       0.028648692            12
       8      -8.67862166      -0.000470169       0.010004326            14
       9      -8.67853982      -0.000081836       0.002887661            16
      10      -8.67858963       0.000049810       0.000685018            18
      11      -8.67859096       0.000001327       0.000157714            19
      12      -8.67858864      -0.000002319       0.000038791            21
      13      -8.67858866       0.000000018       0.000010822            23
      14      -8.67858878       0.000000124       0.000002782            25
      15      -8.67858878      -0.000000002       0.000000777            27

    CHF Iterations converged


    Iter     Energy [mEh]          dE [mEh]         Residual      Time [s]
       1      -9.67714346       9.677143456      19.426932670             2
       2     -11.98815984       2.311016386       8.926867563             4
       3     -12.36523606       0.377076216       2.537923358             7
       4     -12.32079247      -0.044443589       0.832419607             9
       5     -12.29294755      -0.027844917       0.208524541            11
       6     -12.29472741       0.001779859       0.076219950            13
       7     -12.29687348       0.002146074       0.020139722            15
       8     -12.29660200      -0.000271487       0.006190389            17
       9     -12.29649759      -0.000104407       0.001751518            19
      10     -12.29651881       0.000021219       0.000579470            21
      11     -12.29652770       0.000008891       0.000131338            23
      12     -12.29652548      -0.000002224       0.000036831            24
      13     -12.29652525      -0.000000224       0.000011035            26
      14     -12.29652539       0.000000139       0.000002774            28
      15     -12.29652541       0.000000018       0.000000634            30

    CHF Iterations converged

    Ind20,r (A<-B)      =    -0.008678588782 [Eh]
    Ind20,r (B<-A)      =    -0.012296525409 [Eh]
    Ind20,r             =    -0.020975114190 [Eh]
    Exch-Ind20,r (A<-B) =     0.006075567300 [Eh]
    Exch-Ind20,r (B<-A) =     0.006769178874 [Eh]
    Exch-Ind20,r        =     0.012844746174 [Eh]
    Disp20              =    -0.013447962311 [Eh]
    Disp20 (SS)         =    -0.006723981155 [Eh]
    Disp20 (OS)         =    -0.006723981155 [Eh]
    Exch-Disp20         =     0.002730719694 [Eh]
    Exch-Disp20 (SS)    =     0.001712975272 [Eh]
    Exch-Disp20 (OS)    =     0.001017744422 [Eh]

    SAPT Results 
  --------------------------------------------------------------------------------------------------------
    Electrostatics                -36.70239356 [mEh]     -23.03109967 [kcal/mol]     -96.36212101 [kJ/mol]
      Elst10,r                    -36.70239356 [mEh]     -23.03109967 [kcal/mol]     -96.36212101 [kJ/mol]

    Exchange                       38.29686243 [mEh]      24.03164399 [kcal/mol]     100.54839846 [kJ/mol]
      Exch10                       38.29686243 [mEh]      24.03164399 [kcal/mol]     100.54839846 [kJ/mol]
      Exch10(S^2)                  37.79498670 [mEh]      23.71671221 [kcal/mol]      99.23072390 [kJ/mol]

    Induction                     -13.90486605 [mEh]      -8.72543518 [kcal/mol]     -36.50722079 [kJ/mol]
      Ind20,r                     -20.97511419 [mEh]     -13.16208287 [kcal/mol]     -55.07015472 [kJ/mol]
      Exch-Ind20,r                 12.84474617 [mEh]       8.06019991 [kcal/mol]      33.72387643 [kJ/mol]
      delta HF,r (2)               -5.77449804 [mEh]      -3.62355222 [kcal/mol]     -15.16094250 [kJ/mol]

    Dispersion                    -10.71724262 [mEh]      -6.72517127 [kcal/mol]     -28.13811661 [kJ/mol]
      Disp20                      -13.44796231 [mEh]      -8.43872375 [kcal/mol]     -35.30762018 [kJ/mol]
      Exch-Disp20                   2.73071969 [mEh]       1.71355248 [kcal/mol]       7.16950357 [kJ/mol]
      Disp20 (SS)                  -6.72398116 [mEh]      -4.21936188 [kcal/mol]     -17.65381009 [kJ/mol]
      Disp20 (OS)                  -6.72398116 [mEh]      -4.21936188 [kcal/mol]     -17.65381009 [kJ/mol]
      Exch-Disp20 (SS)              1.71297527 [mEh]       1.07490821 [kcal/mol]       4.49741596 [kJ/mol]
      Exch-Disp20 (OS)              1.01774442 [mEh]       0.63864427 [kcal/mol]       2.67208761 [kJ/mol]

  Total HF                        -12.31039718 [mEh]      -7.72489086 [kcal/mol]     -32.32094334 [kJ/mol]
  Total SAPT0                     -23.02763980 [mEh]     -14.45006213 [kcal/mol]     -60.45905995 [kJ/mol]

  Special recipe for scaled SAPT0 (see Manual):
    Electrostatics sSAPT0         -36.70239356 [mEh]     -23.03109967 [kcal/mol]     -96.36212101 [kJ/mol]
    Exchange sSAPT0                38.29686243 [mEh]      24.03164399 [kcal/mol]     100.54839846 [kJ/mol]
    Induction sSAPT0              -13.38634909 [mEh]      -8.40006087 [kcal/mol]     -35.14585469 [kJ/mol]
    Dispersion sSAPT0             -10.60700887 [mEh]      -6.65599855 [kcal/mol]     -27.84869795 [kJ/mol]
  Total sSAPT0                    -22.39888908 [mEh]     -14.05551510 [kcal/mol]     -58.80827519 [kJ/mol]
  --------------------------------------------------------------------------------------------------------

*** tstop() called on r282 at Fri Sep 10 17:18:16 2021
Module time:
	user time   =     230.11 seconds =       3.84 minutes
	system time =      31.33 seconds =       0.52 minutes
	total time  =        263 seconds =       4.38 minutes
Total time:
	user time   =     523.72 seconds =       8.73 minutes
	system time =      36.98 seconds =       0.62 minutes
	total time  =        562 seconds =       9.37 minutes

    Psi4 stopped on: Friday, 10 September 2021 05:18PM
    Psi4 wall time for execution: 0:09:22.84

*** Psi4 exiting successfully. Buy a developer a beer!
