
    -----------------------------------------------------------------------
          Psi4: An Open-Source Ab Initio Electronic Structure Package
                               Psi4 1.3.2 release

                         Git: Rev {HEAD} ecbda83 


    R. M. Parrish, L. A. Burns, D. G. A. Smith, A. C. Simmonett,
    A. E. DePrince III, E. G. Hohenstein, U. Bozkaya, A. Yu. Sokolov,
    R. Di Remigio, R. M. Richard, J. F. Gonthier, A. M. James,
    H. R. McAlexander, A. Kumar, M. Saitow, X. Wang, B. P. Pritchard,
    P. Verma, H. F. Schaefer III, K. Patkowski, R. A. King, E. F. Valeev,
    F. A. Evangelista, J. M. Turney, T. D. Crawford, and C. D. Sherrill,
    J. Chem. Theory Comput. 13(7) pp 3185--3197 (2017).
    (doi: 10.1021/acs.jctc.7b00174)


                         Additional Contributions by
    P. Kraus, H. Kruse, M. H. Lechner, M. C. Schieber, R. A. Shaw,
    A. Alenaizan, R. Galvelis, Z. L. Glick, S. Lehtola, and J. P. Misiewicz

    -----------------------------------------------------------------------


    Psi4 started on: Friday, 10 September 2021 05:02PM

    Process ID: 56884
    Host:       r282
    PSIDATADIR: /home/r08543048/miniconda3/share/psi4
    Memory:     500.0 MiB
    Threads:    1
    
  ==> Input File <==

--------------------------------------------------------------------------
# Any line starting with the # character is a comment line
#! Sample  computation

memory 22 gb

molecule Dimer {
0 1
 C -2.614624    0.184604    0.093281
 O -1.814554    0.694563    0.864243
 O -2.255608   -0.505086   -0.994309
 H -1.263801   -0.505669   -1.029828
 C -4.102587    0.258640    0.250573
 H -4.349878    0.806645    1.152415
 H -4.531481    0.751540   -0.619883
 H -4.513441   -0.748090    0.292975







    
    
    
 --
0 1
 C  2.337562   -0.693121    0.847138 
 C  1.209464   -1.214002   -0.026696
 H  1.915744   -0.039232    1.617626
 H  2.756694   -1.556470    1.371929
 O  0.395904   -0.175110   -0.585916
 H  1.613315   -1.761107   -0.879033
 H  0.581973   -1.901154    0.549322
 H -0.018294    0.310022    0.151424
 C  3.458765    0.030188    0.103344
 H  4.297463    0.157360    0.791426
 H  3.819591   -0.615573   -0.702314
 C  3.071706    1.393145   -0.462565
 H  2.688823    2.040588    0.328059
 H  3.937445    1.885231   -0.905643
 H  2.298196    1.304241   -1.221070
 
 







units angstrom

no_reorient
symmetry c1
}

set globals{
  basis jun-cc-pvtz
}

energy('sapt0')


--------------------------------------------------------------------------

  Memory set to  20.489 GiB by Python driver.

  //>>>>>>>>>>>>>>>>>>>>>>>>>>>>>>>>>>>//
  //              Dimer HF             //
  //<<<<<<<<<<<<<<<<<<<<<<<<<<<<<<<<<<<//


*** tstart() called on r282
*** at Fri Sep 10 17:02:42 2021

   => Loading Basis Set <=

    Name: JUN-CC-PVTZ
    Role: ORBITAL
    Keyword: BASIS
    atoms 1, 5, 9-10, 17, 20                 entry C          line   217 file /home/r08543048/miniconda3/share/psi4/basis/jun-cc-pvtz.gbs 
    atoms 2-3, 13                            entry O          line   305 file /home/r08543048/miniconda3/share/psi4/basis/jun-cc-pvtz.gbs 
    atoms 4, 6-8, 11-12, 14-16, 18-19, 21-23 entry H          line    36 file /home/r08543048/miniconda3/share/psi4/basis/jun-cc-pvtz.gbs 


         ---------------------------------------------------------
                                   SCF
               by Justin Turney, Rob Parrish, Andy Simmonett
                          and Daniel G. A. Smith
                              RHF Reference
                        1 Threads,  20980 MiB Core
         ---------------------------------------------------------

  ==> Geometry <==

    Molecular point group: c1
    Full point group: C1

    Geometry (in Angstrom), charge = 0, multiplicity = 1:

       Center              X                  Y                   Z               Mass       
    ------------   -----------------  -----------------  -----------------  -----------------
         C           -2.546452429995     0.185554203439     0.099893837188    12.000000000000
         O           -1.746382429995     0.695513203439     0.870855837188    15.994914619570
         O           -2.187436429995    -0.504135796561    -0.987696162812    15.994914619570
         H           -1.195629429995    -0.504718796561    -1.023215162812     1.007825032230
         C           -4.034415429995     0.259590203439     0.257185837188    12.000000000000
         H           -4.281706429995     0.807595203439     1.159027837188     1.007825032230
         H           -4.463309429995     0.752490203439    -0.613270162812     1.007825032230
         H           -4.445269429995    -0.747139796561     0.299587837188     1.007825032230
         C            2.405733570005    -0.692170796561     0.853750837188    12.000000000000
         C            1.277635570005    -1.213051796561    -0.020083162812    12.000000000000
         H            1.983915570005    -0.038281796561     1.624238837188     1.007825032230
         H            2.824865570005    -1.555519796561     1.378541837188     1.007825032230
         O            0.464075570005    -0.174159796561    -0.579303162812    15.994914619570
         H            1.681486570005    -1.760156796561    -0.872420162812     1.007825032230
         H            0.650144570005    -1.900203796561     0.555934837188     1.007825032230
         H            0.049877570005     0.310972203439     0.158036837188     1.007825032230
         C            3.526936570005     0.031138203439     0.109956837188    12.000000000000
         H            4.365634570005     0.158310203439     0.798038837188     1.007825032230
         H            3.887762570005    -0.614622796561    -0.695701162812     1.007825032230
         C            3.139877570005     1.394095203439    -0.455952162812    12.000000000000
         H            2.756994570005     2.041538203439     0.334671837188     1.007825032230
         H            4.005616570005     1.886181203439    -0.899030162812     1.007825032230
         H            2.366367570005     1.305191203439    -1.214457162812     1.007825032230

  Running in c1 symmetry.

  Rotational constants: A =      0.12128  B =      0.01766  C =      0.01721 [cm^-1]
  Rotational constants: A =   3635.83783  B =    529.31218  C =    515.96699 [MHz]
  Nuclear repulsion =  469.093618758892887

  Charge       = 0
  Multiplicity = 1
  Electrons    = 74
  Nalpha       = 37
  Nbeta        = 37

  ==> Algorithm <==

  SCF Algorithm Type is DF.
  DIIS enabled.
  MOM disabled.
  Fractional occupation disabled.
  Guess Type is SAD.
  Energy threshold   = 1.00e-08
  Density threshold  = 1.00e-08
  Integral threshold = 0.00e+00

  ==> Primary Basis <==

  Basis Set: JUN-CC-PVTZ
    Blend: JUN-CC-PVTZ
    Number of shells: 201
    Number of basis function: 547
    Number of Cartesian functions: 615
    Spherical Harmonics?: true
    Max angular momentum: 3

   => Loading Basis Set <=

    Name: (JUN-CC-PVTZ AUX)
    Role: JKFIT
    Keyword: DF_BASIS_SCF
    atoms 1, 5, 9-10, 17, 20                 entry C          line   152 file /home/r08543048/miniconda3/share/psi4/basis/jun-cc-pvtz-jkfit.gbs 
    atoms 2-3, 13                            entry O          line   272 file /home/r08543048/miniconda3/share/psi4/basis/jun-cc-pvtz-jkfit.gbs 
    atoms 4, 6-8, 11-12, 14-16, 18-19, 21-23 entry H          line    70 file /home/r08543048/miniconda3/share/psi4/basis/jun-cc-pvtz-jkfit.gbs 

  ==> Pre-Iterations <==

   -------------------------------------------------------
    Irrep   Nso     Nmo     Nalpha   Nbeta   Ndocc  Nsocc
   -------------------------------------------------------
     A        547     547       0       0       0       0
   -------------------------------------------------------
    Total     547     547      37      37      37       0
   -------------------------------------------------------

  ==> Integral Setup <==

  ==> DiskDFJK: Density-Fitted J/K Matrices <==

    J tasked:                  Yes
    K tasked:                  Yes
    wK tasked:                  No
    OpenMP threads:              1
    Integrals threads:           1
    Memory [MiB]:            15735
    Algorithm:                Core
    Integral Cache:           SAVE
    Schwarz Cutoff:          1E-12
    Fitting Condition:       1E-10

   => Auxiliary Basis Set <=

  Basis Set: (JUN-CC-PVTZ AUX)
    Blend: JUN-CC-PVTZ-JKFIT
    Number of shells: 401
    Number of basis function: 1275
    Number of Cartesian functions: 1534
    Spherical Harmonics?: true
    Max angular momentum: 4

  Minimum eigenvalue in the overlap matrix is 3.9981716844E-05.
  Using Symmetric Orthogonalization.

  SCF Guess: Superposition of Atomic Densities via on-the-fly atomic UHF.

  ==> Iterations <==

                           Total Energy        Delta E     RMS |[F,P]|

   @DF-RHF iter SAD:  -458.80182985795403   -4.58802e+02   0.00000e+00 
   @DF-RHF iter   1:  -459.79001300813212   -9.88183e-01   1.53762e-03 DIIS
   @DF-RHF iter   2:  -460.06787273598695   -2.77860e-01   8.28800e-04 DIIS
   @DF-RHF iter   3:  -460.14498280144892   -7.71101e-02   1.49289e-04 DIIS
   @DF-RHF iter   4:  -460.14964304443606   -4.66024e-03   6.68935e-05 DIIS
   @DF-RHF iter   5:  -460.15036707794678   -7.24034e-04   1.53513e-05 DIIS
   @DF-RHF iter   6:  -460.15042630652806   -5.92286e-05   6.47725e-06 DIIS
   @DF-RHF iter   7:  -460.15043694637933   -1.06399e-05   2.14731e-06 DIIS
   @DF-RHF iter   8:  -460.15043884720347   -1.90082e-06   9.49348e-07 DIIS
   @DF-RHF iter   9:  -460.15043921180109   -3.64598e-07   2.82784e-07 DIIS
   @DF-RHF iter  10:  -460.15043924671897   -3.49179e-08   7.63972e-08 DIIS
   @DF-RHF iter  11:  -460.15043924895321   -2.23423e-09   2.19172e-08 DIIS
   @DF-RHF iter  12:  -460.15043924909344   -1.40233e-10   8.46171e-09 DIIS
  Energy and wave function converged.


  ==> Post-Iterations <==

    Orbital Energies [Eh]
    ---------------------

    Doubly Occupied:                                                      

       1A    -20.597466     2A    -20.562269     3A    -20.549218  
       4A    -11.389562     5A    -11.277981     6A    -11.241579  
       7A    -11.221823     8A    -11.217274     9A    -11.201257  
      10A     -1.458058    11A     -1.365239    12A     -1.353647  
      13A     -1.070494    14A     -1.025615    15A     -0.975609  
      16A     -0.870963    17A     -0.816717    18A     -0.792911  
      19A     -0.711224    20A     -0.696295    21A     -0.666786  
      22A     -0.647314    23A     -0.640516    24A     -0.633794  
      25A     -0.586117    26A     -0.576989    27A     -0.574768  
      28A     -0.557070    29A     -0.554760    30A     -0.538086  
      31A     -0.509799    32A     -0.499215    33A     -0.478794  
      34A     -0.473436    35A     -0.463180    36A     -0.455137  
      37A     -0.431048  

    Virtual:                                                              

      38A      0.046213    39A      0.052263    40A      0.058128  
      41A      0.062531    42A      0.065346    43A      0.077047  
      44A      0.081733    45A      0.092067    46A      0.095053  
      47A      0.097387    48A      0.101122    49A      0.102100  
      50A      0.122412    51A      0.131211    52A      0.132375  
      53A      0.134446    54A      0.144963    55A      0.148882  
      56A      0.160907    57A      0.166440    58A      0.170477  
      59A      0.186109    60A      0.191080    61A      0.199870  
      62A      0.201850    63A      0.207280    64A      0.209050  
      65A      0.226975    66A      0.232647    67A      0.240756  
      68A      0.249989    69A      0.253506    70A      0.261826  
      71A      0.267843    72A      0.281197    73A      0.283091  
      74A      0.286858    75A      0.289297    76A      0.293768  
      77A      0.304350    78A      0.309069    79A      0.314228  
      80A      0.316157    81A      0.322894    82A      0.331672  
      83A      0.332428    84A      0.341193    85A      0.343490  
      86A      0.347848    87A      0.353164    88A      0.354752  
      89A      0.363386    90A      0.371504    91A      0.380763  
      92A      0.390295    93A      0.398518    94A      0.401115  
      95A      0.409436    96A      0.415457    97A      0.426467  
      98A      0.431870    99A      0.434697   100A      0.440781  
     101A      0.449099   102A      0.461635   103A      0.467309  
     104A      0.477573   105A      0.481494   106A      0.489547  
     107A      0.493272   108A      0.504683   109A      0.515718  
     110A      0.518673   111A      0.522206   112A      0.532931  
     113A      0.540339   114A      0.541530   115A      0.555989  
     116A      0.558114   117A      0.568472   118A      0.581504  
     119A      0.585396   120A      0.591376   121A      0.603209  
     122A      0.615907   123A      0.629263   124A      0.630701  
     125A      0.648441   126A      0.657024   127A      0.664897  
     128A      0.668500   129A      0.672242   130A      0.684003  
     131A      0.691927   132A      0.698190   133A      0.709011  
     134A      0.714980   135A      0.715860   136A      0.726080  
     137A      0.735342   138A      0.749860   139A      0.755695  
     140A      0.774064   141A      0.783107   142A      0.788631  
     143A      0.793174   144A      0.801123   145A      0.803806  
     146A      0.812353   147A      0.823314   148A      0.831055  
     149A      0.837635   150A      0.839591   151A      0.845145  
     152A      0.848302   153A      0.862839   154A      0.875912  
     155A      0.880786   156A      0.889837   157A      0.897281  
     158A      0.899139   159A      0.912571   160A      0.918338  
     161A      0.922325   162A      0.924397   163A      0.945806  
     164A      0.959169   165A      0.964471   166A      0.980753  
     167A      0.985131   168A      1.005555   169A      1.012255  
     170A      1.019847   171A      1.031955   172A      1.048105  
     173A      1.064251   174A      1.072316   175A      1.082296  
     176A      1.094547   177A      1.111626   178A      1.114452  
     179A      1.139746   180A      1.145801   181A      1.162409  
     182A      1.182660   183A      1.191011   184A      1.204257  
     185A      1.216459   186A      1.232065   187A      1.242658  
     188A      1.262172   189A      1.271375   190A      1.276484  
     191A      1.282061   192A      1.296287   193A      1.304024  
     194A      1.323208   195A      1.329083   196A      1.337308  
     197A      1.351432   198A      1.360443   199A      1.368386  
     200A      1.372023   201A      1.381564   202A      1.382818  
     203A      1.390370   204A      1.400729   205A      1.409120  
     206A      1.422328   207A      1.442059   208A      1.446827  
     209A      1.459104   210A      1.467116   211A      1.471760  
     212A      1.479376   213A      1.496546   214A      1.513054  
     215A      1.517829   216A      1.535396   217A      1.538685  
     218A      1.550741   219A      1.551780   220A      1.566501  
     221A      1.574552   222A      1.580056   223A      1.585942  
     224A      1.597973   225A      1.606161   226A      1.607552  
     227A      1.617364   228A      1.638550   229A      1.648165  
     230A      1.659469   231A      1.676126   232A      1.683954  
     233A      1.693773   234A      1.718850   235A      1.724154  
     236A      1.728993   237A      1.743762   238A      1.771268  
     239A      1.776103   240A      1.781757   241A      1.791210  
     242A      1.817449   243A      1.819341   244A      1.832563  
     245A      1.836461   246A      1.853438   247A      1.875986  
     248A      1.912889   249A      1.917536   250A      1.920395  
     251A      1.949334   252A      1.963479   253A      1.972373  
     254A      1.976808   255A      1.998105   256A      2.038815  
     257A      2.085943   258A      2.100664   259A      2.151934  
     260A      2.222547   261A      2.233770   262A      2.293458  
     263A      2.314262   264A      2.356833   265A      2.369573  
     266A      2.415918   267A      2.434271   268A      2.449435  
     269A      2.468165   270A      2.526040   271A      2.550917  
     272A      2.599565   273A      2.614000   274A      2.641866  
     275A      2.651021   276A      2.710273   277A      2.753138  
     278A      2.785586   279A      2.800248   280A      2.814168  
     281A      2.819379   282A      2.839307   283A      2.845240  
     284A      2.871083   285A      2.892156   286A      2.901895  
     287A      2.912972   288A      2.930441   289A      2.953214  
     290A      2.964334   291A      2.972782   292A      3.006666  
     293A      3.008922   294A      3.029415   295A      3.049860  
     296A      3.069093   297A      3.083616   298A      3.097133  
     299A      3.101177   300A      3.123779   301A      3.126976  
     302A      3.141059   303A      3.159991   304A      3.173631  
     305A      3.183219   306A      3.197056   307A      3.203470  
     308A      3.214396   309A      3.236011   310A      3.242264  
     311A      3.274441   312A      3.281199   313A      3.289432  
     314A      3.320551   315A      3.329359   316A      3.353649  
     317A      3.369259   318A      3.372315   319A      3.386489  
     320A      3.400442   321A      3.412111   322A      3.424465  
     323A      3.430550   324A      3.441317   325A      3.443689  
     326A      3.450798   327A      3.464190   328A      3.469987  
     329A      3.477910   330A      3.486953   331A      3.497346  
     332A      3.502614   333A      3.508463   334A      3.523432  
     335A      3.538372   336A      3.552367   337A      3.560809  
     338A      3.569946   339A      3.577107   340A      3.587400  
     341A      3.596364   342A      3.604514   343A      3.618584  
     344A      3.623881   345A      3.642761   346A      3.650429  
     347A      3.661979   348A      3.689750   349A      3.694946  
     350A      3.710026   351A      3.714931   352A      3.749147  
     353A      3.755668   354A      3.767010   355A      3.771695  
     356A      3.777839   357A      3.780381   358A      3.788223  
     359A      3.796000   360A      3.813691   361A      3.827164  
     362A      3.832781   363A      3.836575   364A      3.849312  
     365A      3.870946   366A      3.876908   367A      3.888347  
     368A      3.912469   369A      3.938781   370A      3.949001  
     371A      3.965719   372A      3.978592   373A      3.980586  
     374A      4.001186   375A      4.019896   376A      4.029748  
     377A      4.057510   378A      4.083332   379A      4.105338  
     380A      4.115047   381A      4.131127   382A      4.139865  
     383A      4.159024   384A      4.174481   385A      4.190789  
     386A      4.195276   387A      4.217811   388A      4.241314  
     389A      4.257627   390A      4.272056   391A      4.279956  
     392A      4.285149   393A      4.299339   394A      4.309282  
     395A      4.328062   396A      4.333094   397A      4.336082  
     398A      4.347000   399A      4.349319   400A      4.367106  
     401A      4.373894   402A      4.400187   403A      4.411928  
     404A      4.415860   405A      4.427594   406A      4.437452  
     407A      4.442051   408A      4.464269   409A      4.474665  
     410A      4.480944   411A      4.496400   412A      4.508059  
     413A      4.516693   414A      4.535252   415A      4.544874  
     416A      4.555144   417A      4.558348   418A      4.574517  
     419A      4.598651   420A      4.598944   421A      4.609115  
     422A      4.623329   423A      4.632230   424A      4.649265  
     425A      4.661750   426A      4.668117   427A      4.686293  
     428A      4.695388   429A      4.728012   430A      4.733873  
     431A      4.765748   432A      4.778975   433A      4.785166  
     434A      4.803846   435A      4.815526   436A      4.823462  
     437A      4.849960   438A      4.854186   439A      4.885298  
     440A      4.898701   441A      4.910505   442A      4.959019  
     443A      4.993879   444A      5.021283   445A      5.049590  
     446A      5.066585   447A      5.080291   448A      5.103938  
     449A      5.120629   450A      5.135019   451A      5.150929  
     452A      5.155755   453A      5.201456   454A      5.202782  
     455A      5.238397   456A      5.261558   457A      5.300815  
     458A      5.303208   459A      5.313011   460A      5.327494  
     461A      5.353883   462A      5.364963   463A      5.387757  
     464A      5.401314   465A      5.429747   466A      5.442563  
     467A      5.450112   468A      5.498043   469A      5.515095  
     470A      5.517234   471A      5.561728   472A      5.574918  
     473A      5.587818   474A      5.607426   475A      5.619596  
     476A      5.640302   477A      5.653062   478A      5.662867  
     479A      5.681586   480A      5.685553   481A      5.723105  
     482A      5.767039   483A      5.775534   484A      5.789106  
     485A      5.805408   486A      5.818344   487A      5.852133  
     488A      5.861134   489A      5.879549   490A      5.884091  
     491A      5.896753   492A      5.898405   493A      5.930225  
     494A      5.957864   495A      5.961818   496A      6.014574  
     497A      6.050530   498A      6.059019   499A      6.133584  
     500A      6.159439   501A      6.206811   502A      6.285252  
     503A      6.322666   504A      6.416839   505A      6.432593  
     506A      6.438349   507A      6.513149   508A      6.515930  
     509A      6.547575   510A      6.563152   511A      6.584640  
     512A      6.625143   513A      6.729700   514A      6.747703  
     515A      6.933631   516A      6.964745   517A      7.000514  
     518A      7.028847   519A      7.101783   520A      7.190922  
     521A      7.212367   522A      7.277022   523A      7.301493  
     524A      7.333119   525A      7.372822   526A      7.382071  
     527A      7.432680   528A      7.447822   529A      7.466463  
     530A      7.673934   531A      7.695752   532A      7.732298  
     533A      7.775250   534A      7.868022   535A      7.884735  
     536A      7.987336   537A      8.184377   538A      8.316512  
     539A     12.120843   540A     13.678780   541A     13.784916  
     542A     13.841633   543A     14.082956   544A     14.180103  
     545A     14.396823   546A     14.682614   547A     14.735539  

    Final Occupation by Irrep:
              A 
    DOCC [    37 ]

  @DF-RHF Final Energy:  -460.15043924909344

   => Energetics <=

    Nuclear Repulsion Energy =            469.0936187588928874
    One-Electron Energy =               -1559.1240979691356188
    Two-Electron Energy =                 629.8800399611492367
    Total Energy =                       -460.1504392490934379

Computation Completed


Properties will be evaluated at   0.000000,   0.000000,   0.000000 [a0]

Properties computed using the SCF density matrix

  Nuclear Dipole Moment: [e a0]
     X:     9.5331      Y:     0.1329      Z:     0.9247

  Electronic Dipole Moment: [e a0]
     X:    -9.7550      Y:    -0.6217      Z:    -0.7530

  Dipole Moment: [e a0]
     X:    -0.2219      Y:    -0.4889      Z:     0.1717     Total:     0.5637

  Dipole Moment: [D]
     X:    -0.5639      Y:    -1.2426      Z:     0.4364     Total:     1.4327


*** tstop() called on r282 at Fri Sep 10 17:04:07 2021
Module time:
	user time   =      82.89 seconds =       1.38 minutes
	system time =       1.78 seconds =       0.03 minutes
	total time  =         85 seconds =       1.42 minutes
Total time:
	user time   =      82.89 seconds =       1.38 minutes
	system time =       1.78 seconds =       0.03 minutes
	total time  =         85 seconds =       1.42 minutes

  //>>>>>>>>>>>>>>>>>>>>>>>>>>>>>>>>>>>//
  //            Monomer A HF           //
  //<<<<<<<<<<<<<<<<<<<<<<<<<<<<<<<<<<<//


*** tstart() called on r282
*** at Fri Sep 10 17:04:07 2021

   => Loading Basis Set <=

    Name: JUN-CC-PVTZ
    Role: ORBITAL
    Keyword: BASIS
    atoms 1, 5, 9-10, 17, 20                 entry C          line   217 file /home/r08543048/miniconda3/share/psi4/basis/jun-cc-pvtz.gbs 
    atoms 2-3, 13                            entry O          line   305 file /home/r08543048/miniconda3/share/psi4/basis/jun-cc-pvtz.gbs 
    atoms 4, 6-8, 11-12, 14-16, 18-19, 21-23 entry H          line    36 file /home/r08543048/miniconda3/share/psi4/basis/jun-cc-pvtz.gbs 


         ---------------------------------------------------------
                                   SCF
               by Justin Turney, Rob Parrish, Andy Simmonett
                          and Daniel G. A. Smith
                              RHF Reference
                        1 Threads,  20980 MiB Core
         ---------------------------------------------------------

  ==> Geometry <==

    Molecular point group: c1
    Full point group: C1

    Geometry (in Angstrom), charge = 0, multiplicity = 1:

       Center              X                  Y                   Z               Mass       
    ------------   -----------------  -----------------  -----------------  -----------------
         C           -2.546452429995     0.185554203439     0.099893837188    12.000000000000
         O           -1.746382429995     0.695513203439     0.870855837188    15.994914619570
         O           -2.187436429995    -0.504135796561    -0.987696162812    15.994914619570
         H           -1.195629429995    -0.504718796561    -1.023215162812     1.007825032230
         C           -4.034415429995     0.259590203439     0.257185837188    12.000000000000
         H           -4.281706429995     0.807595203439     1.159027837188     1.007825032230
         H           -4.463309429995     0.752490203439    -0.613270162812     1.007825032230
         H           -4.445269429995    -0.747139796561     0.299587837188     1.007825032230
      Gh(C)           2.405733570005    -0.692170796561     0.853750837188    12.000000000000
      Gh(C)           1.277635570005    -1.213051796561    -0.020083162812    12.000000000000
      Gh(H)           1.983915570005    -0.038281796561     1.624238837188     1.007825032230
      Gh(H)           2.824865570005    -1.555519796561     1.378541837188     1.007825032230
      Gh(O)           0.464075570005    -0.174159796561    -0.579303162812    15.994914619570
      Gh(H)           1.681486570005    -1.760156796561    -0.872420162812     1.007825032230
      Gh(H)           0.650144570005    -1.900203796561     0.555934837188     1.007825032230
      Gh(H)           0.049877570005     0.310972203439     0.158036837188     1.007825032230
      Gh(C)           3.526936570005     0.031138203439     0.109956837188    12.000000000000
      Gh(H)           4.365634570005     0.158310203439     0.798038837188     1.007825032230
      Gh(H)           3.887762570005    -0.614622796561    -0.695701162812     1.007825032230
      Gh(C)           3.139877570005     1.394095203439    -0.455952162812    12.000000000000
      Gh(H)           2.756994570005     2.041538203439     0.334671837188     1.007825032230
      Gh(H)           4.005616570005     1.886181203439    -0.899030162812     1.007825032230
      Gh(H)           2.366367570005     1.305191203439    -1.214457162812     1.007825032230

  Running in c1 symmetry.

  Rotational constants: A =      0.12128  B =      0.01766  C =      0.01721 [cm^-1]
  Rotational constants: A =   3635.83783  B =    529.31218  C =    515.96699 [MHz]
  Nuclear repulsion =  121.098660524091684

  Charge       = 0
  Multiplicity = 1
  Electrons    = 32
  Nalpha       = 16
  Nbeta        = 16

  ==> Algorithm <==

  SCF Algorithm Type is DF.
  DIIS enabled.
  MOM disabled.
  Fractional occupation disabled.
  Guess Type is SAD.
  Energy threshold   = 1.00e-08
  Density threshold  = 1.00e-08
  Integral threshold = 0.00e+00

  ==> Primary Basis <==

  Basis Set: JUN-CC-PVTZ
    Blend: JUN-CC-PVTZ
    Number of shells: 201
    Number of basis function: 547
    Number of Cartesian functions: 615
    Spherical Harmonics?: true
    Max angular momentum: 3

   => Loading Basis Set <=

    Name: (JUN-CC-PVTZ AUX)
    Role: JKFIT
    Keyword: DF_BASIS_SCF
    atoms 1, 5, 9-10, 17, 20                 entry C          line   152 file /home/r08543048/miniconda3/share/psi4/basis/jun-cc-pvtz-jkfit.gbs 
    atoms 2-3, 13                            entry O          line   272 file /home/r08543048/miniconda3/share/psi4/basis/jun-cc-pvtz-jkfit.gbs 
    atoms 4, 6-8, 11-12, 14-16, 18-19, 21-23 entry H          line    70 file /home/r08543048/miniconda3/share/psi4/basis/jun-cc-pvtz-jkfit.gbs 

  ==> Pre-Iterations <==

   -------------------------------------------------------
    Irrep   Nso     Nmo     Nalpha   Nbeta   Ndocc  Nsocc
   -------------------------------------------------------
     A        547     547       0       0       0       0
   -------------------------------------------------------
    Total     547     547      16      16      16       0
   -------------------------------------------------------

  ==> Integral Setup <==

  ==> DiskDFJK: Density-Fitted J/K Matrices <==

    J tasked:                  Yes
    K tasked:                  Yes
    wK tasked:                  No
    OpenMP threads:              1
    Integrals threads:           1
    Memory [MiB]:            15735
    Algorithm:                Core
    Integral Cache:           LOAD
    Schwarz Cutoff:          1E-12
    Fitting Condition:       1E-10

   => Auxiliary Basis Set <=

  Basis Set: (JUN-CC-PVTZ AUX)
    Blend: JUN-CC-PVTZ-JKFIT
    Number of shells: 401
    Number of basis function: 1275
    Number of Cartesian functions: 1534
    Spherical Harmonics?: true
    Max angular momentum: 4

  Minimum eigenvalue in the overlap matrix is 3.9981716844E-05.
  Using Symmetric Orthogonalization.

  SCF Guess: Superposition of Atomic Densities via on-the-fly atomic UHF.

  ==> Iterations <==

                           Total Energy        Delta E     RMS |[F,P]|

   @DF-RHF iter SAD:  -226.99920031867919   -2.26999e+02   0.00000e+00 
   @DF-RHF iter   1:  -227.74246078001460   -7.43260e-01   1.09608e-03 DIIS
   @DF-RHF iter   2:  -227.85609599267286   -1.13635e-01   6.78955e-04 DIIS
   @DF-RHF iter   3:  -227.89954323292062   -4.34472e-02   1.11842e-04 DIIS
   @DF-RHF iter   4:  -227.90181343327410   -2.27020e-03   5.06595e-05 DIIS
   @DF-RHF iter   5:  -227.90231373623843   -5.00303e-04   1.23545e-05 DIIS
   @DF-RHF iter   6:  -227.90235596498982   -4.22288e-05   5.85759e-06 DIIS
   @DF-RHF iter   7:  -227.90236657248113   -1.06075e-05   1.97400e-06 DIIS
   @DF-RHF iter   8:  -227.90236839426774   -1.82179e-06   5.42424e-07 DIIS
   @DF-RHF iter   9:  -227.90236855097140   -1.56704e-07   1.14568e-07 DIIS
   @DF-RHF iter  10:  -227.90236855682343   -5.85203e-09   2.87611e-08 DIIS
   @DF-RHF iter  11:  -227.90236855706593   -2.42494e-10   7.56611e-09 DIIS
  Energy and wave function converged.


  ==> Post-Iterations <==

    Orbital Energies [Eh]
    ---------------------

    Doubly Occupied:                                                      

       1A    -20.623085     2A    -20.548399     3A    -11.391153  
       4A    -11.245266     5A     -1.467755     6A     -1.356148  
       7A     -1.029405     8A     -0.828095     9A     -0.705760  
      10A     -0.681658    11A     -0.654184    12A     -0.581466  
      13A     -0.574715    14A     -0.564512    15A     -0.480070  
      16A     -0.454347  

    Virtual:                                                              

      17A      0.029724    18A      0.043740    19A      0.048501  
      20A      0.053029    21A      0.062250    22A      0.073313  
      23A      0.079088    24A      0.086875    25A      0.089603  
      26A      0.092287    27A      0.099018    28A      0.101030  
      29A      0.109453    30A      0.121108    31A      0.129717  
      32A      0.131325    33A      0.134130    34A      0.141139  
      35A      0.148531    36A      0.153290    37A      0.161425  
      38A      0.166438    39A      0.170941    40A      0.175961  
      41A      0.179782    42A      0.195189    43A      0.197491  
      44A      0.204922    45A      0.212074    46A      0.220555  
      47A      0.231292    48A      0.244384    49A      0.249984  
      50A      0.259090    51A      0.263663    52A      0.268557  
      53A      0.276148    54A      0.284300    55A      0.285087  
      56A      0.296258    57A      0.299146    58A      0.308981  
      59A      0.311173    60A      0.317664    61A      0.326159  
      62A      0.332012    63A      0.335063    64A      0.348615  
      65A      0.353539    66A      0.358402    67A      0.360334  
      68A      0.370322    69A      0.376601    70A      0.387399  
      71A      0.392468    72A      0.394786    73A      0.404447  
      74A      0.412409    75A      0.414604    76A      0.424645  
      77A      0.433388    78A      0.439638    79A      0.445598  
      80A      0.459933    81A      0.463118    82A      0.470275  
      83A      0.484090    84A      0.491422    85A      0.493981  
      86A      0.497990    87A      0.502609    88A      0.511099  
      89A      0.518743    90A      0.522801    91A      0.530526  
      92A      0.542886    93A      0.548367    94A      0.561185  
      95A      0.565735    96A      0.579616    97A      0.587854  
      98A      0.602064    99A      0.603066   100A      0.611307  
     101A      0.613034   102A      0.624981   103A      0.630133  
     104A      0.640508   105A      0.649306   106A      0.655019  
     107A      0.659568   108A      0.664183   109A      0.670215  
     110A      0.675610   111A      0.689954   112A      0.692733  
     113A      0.702585   114A      0.705271   115A      0.716621  
     116A      0.723461   117A      0.727432   118A      0.743311  
     119A      0.774742   120A      0.783230   121A      0.788011  
     122A      0.799402   123A      0.802737   124A      0.813558  
     125A      0.828970   126A      0.831686   127A      0.838046  
     128A      0.851885   129A      0.856177   130A      0.877938  
     131A      0.885618   132A      0.898916   133A      0.921573  
     134A      0.931281   135A      0.939906   136A      0.960355  
     137A      0.967298   138A      0.981277   139A      0.992013  
     140A      1.020035   141A      1.027659   142A      1.034497  
     143A      1.061287   144A      1.065213   145A      1.073732  
     146A      1.086476   147A      1.095036   148A      1.104299  
     149A      1.113635   150A      1.139284   151A      1.139702  
     152A      1.159961   153A      1.165274   154A      1.166389  
     155A      1.186696   156A      1.187952   157A      1.199238  
     158A      1.208604   159A      1.233569   160A      1.236546  
     161A      1.244047   162A      1.245286   163A      1.256797  
     164A      1.264120   165A      1.269809   166A      1.276917  
     167A      1.280452   168A      1.285028   169A      1.306034  
     170A      1.317924   171A      1.323295   172A      1.329662  
     173A      1.338625   174A      1.344046   175A      1.357630  
     176A      1.362858   177A      1.366106   178A      1.376030  
     179A      1.382341   180A      1.393463   181A      1.408571  
     182A      1.417554   183A      1.421621   184A      1.436830  
     185A      1.451072   186A      1.462886   187A      1.473285  
     188A      1.480633   189A      1.485331   190A      1.492908  
     191A      1.523404   192A      1.525443   193A      1.527697  
     194A      1.539942   195A      1.551961   196A      1.560133  
     197A      1.564783   198A      1.567290   199A      1.575472  
     200A      1.584660   201A      1.594628   202A      1.601194  
     203A      1.617343   204A      1.626589   205A      1.648254  
     206A      1.661787   207A      1.669659   208A      1.678816  
     209A      1.706162   210A      1.718650   211A      1.723287  
     212A      1.739210   213A      1.748232   214A      1.773973  
     215A      1.777323   216A      1.781241   217A      1.810248  
     218A      1.826108   219A      1.838161   220A      1.863489  
     221A      1.870195   222A      1.885126   223A      1.889832  
     224A      1.920795   225A      1.926391   226A      1.954008  
     227A      1.959417   228A      1.973965   229A      2.026541  
     230A      2.044518   231A      2.065875   232A      2.095834  
     233A      2.108634   234A      2.117794   235A      2.157960  
     236A      2.177711   237A      2.207098   238A      2.213037  
     239A      2.228464   240A      2.239223   241A      2.267705  
     242A      2.291112   243A      2.314917   244A      2.339344  
     245A      2.361175   246A      2.376854   247A      2.391600  
     248A      2.427324   249A      2.437655   250A      2.448350  
     251A      2.453838   252A      2.497626   253A      2.512591  
     254A      2.532164   255A      2.553203   256A      2.571957  
     257A      2.579940   258A      2.600807   259A      2.626886  
     260A      2.637779   261A      2.655690   262A      2.675471  
     263A      2.702670   264A      2.735342   265A      2.773982  
     266A      2.842559   267A      2.844754   268A      2.881735  
     269A      2.929635   270A      2.960067   271A      2.965702  
     272A      2.998140   273A      3.020698   274A      3.070286  
     275A      3.091946   276A      3.095966   277A      3.117196  
     278A      3.183716   279A      3.198835   280A      3.200355  
     281A      3.263779   282A      3.285178   283A      3.341772  
     284A      3.349323   285A      3.381686   286A      3.415268  
     287A      3.433077   288A      3.435713   289A      3.457139  
     290A      3.491248   291A      3.506967   292A      3.516026  
     293A      3.550095   294A      3.559641   295A      3.578180  
     296A      3.583775   297A      3.594930   298A      3.608180  
     299A      3.617341   300A      3.620889   301A      3.640447  
     302A      3.649716   303A      3.676710   304A      3.687303  
     305A      3.694881   306A      3.701383   307A      3.710477  
     308A      3.725373   309A      3.743445   310A      3.757723  
     311A      3.762838   312A      3.770777   313A      3.776790  
     314A      3.782653   315A      3.800899   316A      3.813301  
     317A      3.824533   318A      3.829787   319A      3.840266  
     320A      3.859434   321A      3.868745   322A      3.872150  
     323A      3.884882   324A      3.901191   325A      3.917978  
     326A      3.958303   327A      3.967363   328A      3.970944  
     329A      3.988051   330A      4.002242   331A      4.023637  
     332A      4.052965   333A      4.080513   334A      4.089775  
     335A      4.115079   336A      4.119452   337A      4.143351  
     338A      4.153270   339A      4.159496   340A      4.184692  
     341A      4.188641   342A      4.199548   343A      4.235917  
     344A      4.244464   345A      4.260534   346A      4.270606  
     347A      4.291087   348A      4.306816   349A      4.323005  
     350A      4.326626   351A      4.337847   352A      4.353176  
     353A      4.368843   354A      4.389693   355A      4.406957  
     356A      4.410593   357A      4.413520   358A      4.438616  
     359A      4.454320   360A      4.465837   361A      4.470612  
     362A      4.488582   363A      4.491948   364A      4.512536  
     365A      4.530958   366A      4.540292   367A      4.559036  
     368A      4.563097   369A      4.577218   370A      4.578169  
     371A      4.601039   372A      4.607181   373A      4.623882  
     374A      4.635926   375A      4.645531   376A      4.653934  
     377A      4.665663   378A      4.688729   379A      4.695555  
     380A      4.701852   381A      4.721330   382A      4.743812  
     383A      4.754135   384A      4.757562   385A      4.763009  
     386A      4.770456   387A      4.778265   388A      4.787789  
     389A      4.800416   390A      4.813733   391A      4.827421  
     392A      4.836252   393A      4.840347   394A      4.850060  
     395A      4.866883   396A      4.874148   397A      4.882084  
     398A      4.888445   399A      4.904824   400A      4.921429  
     401A      4.927498   402A      4.936843   403A      4.949558  
     404A      4.964093   405A      4.983429   406A      4.991848  
     407A      4.998711   408A      5.007383   409A      5.020880  
     410A      5.036034   411A      5.055318   412A      5.065785  
     413A      5.089068   414A      5.094917   415A      5.102237  
     416A      5.116232   417A      5.120004   418A      5.129695  
     419A      5.146703   420A      5.149695   421A      5.151560  
     422A      5.173102   423A      5.226179   424A      5.243703  
     425A      5.249611   426A      5.283481   427A      5.300063  
     428A      5.347121   429A      5.360173   430A      5.383632  
     431A      5.392800   432A      5.423858   433A      5.439091  
     434A      5.443041   435A      5.495672   436A      5.511797  
     437A      5.540440   438A      5.558213   439A      5.571656  
     440A      5.580904   441A      5.630457   442A      5.631308  
     443A      5.645654   444A      5.666055   445A      5.678355  
     446A      5.680834   447A      5.702294   448A      5.726209  
     449A      5.742989   450A      5.792184   451A      5.822768  
     452A      5.862550   453A      5.866980   454A      5.886599  
     455A      5.893607   456A      5.917220   457A      5.941523  
     458A      5.963284   459A      5.997815   460A      6.052023  
     461A      6.061474   462A      6.084034   463A      6.125577  
     464A      6.137185   465A      6.184740   466A      6.236842  
     467A      6.241576   468A      6.260222   469A      6.293945  
     470A      6.349827   471A      6.381122   472A      6.388154  
     473A      6.413100   474A      6.435032   475A      6.442551  
     476A      6.464892   477A      6.482998   478A      6.501703  
     479A      6.544634   480A      6.661795   481A      6.726253  
     482A      6.744073   483A      6.767394   484A      6.807762  
     485A      6.912770   486A      6.950701   487A      6.954792  
     488A      6.955553   489A      7.012457   490A      7.092753  
     491A      7.132208   492A      7.195789   493A      7.272299  
     494A      7.293860   495A      7.304446   496A      7.346898  
     497A      7.359465   498A      7.382422   499A      7.411622  
     500A      7.446758   501A      7.452358   502A      7.500729  
     503A      7.554498   504A      7.601633   505A      7.668468  
     506A      7.677931   507A      7.695905   508A      7.705427  
     509A      7.745277   510A      7.755481   511A      7.810656  
     512A      7.820338   513A      7.847031   514A      7.852542  
     515A      7.906134   516A      7.949125   517A      7.959327  
     518A      7.999014   519A      8.113130   520A      8.189761  
     521A      8.247324   522A      8.312227   523A      8.347811  
     524A      8.515023   525A      8.741693   526A      9.543718  
     527A      9.596740   528A      9.641901   529A      9.838999  
     530A      9.921450   531A      9.975563   532A     10.145457  
     533A     10.268242   534A     10.406118   535A     11.213561  
     536A     11.802189   537A     12.121644   538A     12.781309  
     539A     13.619613   540A     13.796211   541A     14.356577  
     542A     14.732523   543A     43.923694   544A     44.362687  
     545A     45.360583   546A     45.755113   547A     61.789807  

    Final Occupation by Irrep:
              A 
    DOCC [    16 ]

  @DF-RHF Final Energy:  -227.90236855706593

   => Energetics <=

    Nuclear Repulsion Energy =            121.0986605240916845
    One-Electron Energy =                -551.6300141168428581
    Two-Electron Energy =                 202.6289850356852753
    Total Energy =                       -227.9023685570659268

Computation Completed


Properties will be evaluated at   0.000000,   0.000000,   0.000000 [a0]

Properties computed using the SCF density matrix

  Nuclear Dipole Moment: [e a0]
     X:  -161.2724      Y:     8.5229      Z:     1.9462

  Electronic Dipole Moment: [e a0]
     X:   160.7450      Y:    -8.8847      Z:    -2.5007

  Dipole Moment: [e a0]
     X:    -0.5274      Y:    -0.3619      Z:    -0.5545     Total:     0.8465

  Dipole Moment: [D]
     X:    -1.3405      Y:    -0.9197      Z:    -1.4095     Total:     2.1516


*** tstop() called on r282 at Fri Sep 10 17:05:00 2021
Module time:
	user time   =      51.72 seconds =       0.86 minutes
	system time =       0.75 seconds =       0.01 minutes
	total time  =         53 seconds =       0.88 minutes
Total time:
	user time   =     134.61 seconds =       2.24 minutes
	system time =       2.53 seconds =       0.04 minutes
	total time  =        138 seconds =       2.30 minutes

  //>>>>>>>>>>>>>>>>>>>>>>>>>>>>>>>>>>>//
  //            Monomer B HF           //
  //<<<<<<<<<<<<<<<<<<<<<<<<<<<<<<<<<<<//


*** tstart() called on r282
*** at Fri Sep 10 17:05:00 2021

   => Loading Basis Set <=

    Name: JUN-CC-PVTZ
    Role: ORBITAL
    Keyword: BASIS
    atoms 1, 5, 9-10, 17, 20                 entry C          line   217 file /home/r08543048/miniconda3/share/psi4/basis/jun-cc-pvtz.gbs 
    atoms 2-3, 13                            entry O          line   305 file /home/r08543048/miniconda3/share/psi4/basis/jun-cc-pvtz.gbs 
    atoms 4, 6-8, 11-12, 14-16, 18-19, 21-23 entry H          line    36 file /home/r08543048/miniconda3/share/psi4/basis/jun-cc-pvtz.gbs 


         ---------------------------------------------------------
                                   SCF
               by Justin Turney, Rob Parrish, Andy Simmonett
                          and Daniel G. A. Smith
                              RHF Reference
                        1 Threads,  20980 MiB Core
         ---------------------------------------------------------

  ==> Geometry <==

    Molecular point group: c1
    Full point group: C1

    Geometry (in Angstrom), charge = 0, multiplicity = 1:

       Center              X                  Y                   Z               Mass       
    ------------   -----------------  -----------------  -----------------  -----------------
      Gh(C)          -2.546452429995     0.185554203439     0.099893837188    12.000000000000
      Gh(O)          -1.746382429995     0.695513203439     0.870855837188    15.994914619570
      Gh(O)          -2.187436429995    -0.504135796561    -0.987696162812    15.994914619570
      Gh(H)          -1.195629429995    -0.504718796561    -1.023215162812     1.007825032230
      Gh(C)          -4.034415429995     0.259590203439     0.257185837188    12.000000000000
      Gh(H)          -4.281706429995     0.807595203439     1.159027837188     1.007825032230
      Gh(H)          -4.463309429995     0.752490203439    -0.613270162812     1.007825032230
      Gh(H)          -4.445269429995    -0.747139796561     0.299587837188     1.007825032230
         C            2.405733570005    -0.692170796561     0.853750837188    12.000000000000
         C            1.277635570005    -1.213051796561    -0.020083162812    12.000000000000
         H            1.983915570005    -0.038281796561     1.624238837188     1.007825032230
         H            2.824865570005    -1.555519796561     1.378541837188     1.007825032230
         O            0.464075570005    -0.174159796561    -0.579303162812    15.994914619570
         H            1.681486570005    -1.760156796561    -0.872420162812     1.007825032230
         H            0.650144570005    -1.900203796561     0.555934837188     1.007825032230
         H            0.049877570005     0.310972203439     0.158036837188     1.007825032230
         C            3.526936570005     0.031138203439     0.109956837188    12.000000000000
         H            4.365634570005     0.158310203439     0.798038837188     1.007825032230
         H            3.887762570005    -0.614622796561    -0.695701162812     1.007825032230
         C            3.139877570005     1.394095203439    -0.455952162812    12.000000000000
         H            2.756994570005     2.041538203439     0.334671837188     1.007825032230
         H            4.005616570005     1.886181203439    -0.899030162812     1.007825032230
         H            2.366367570005     1.305191203439    -1.214457162812     1.007825032230

  Running in c1 symmetry.

  Rotational constants: A =      0.12128  B =      0.01766  C =      0.01721 [cm^-1]
  Rotational constants: A =   3635.83783  B =    529.31218  C =    515.96699 [MHz]
  Nuclear repulsion =  192.185070303724700

  Charge       = 0
  Multiplicity = 1
  Electrons    = 42
  Nalpha       = 21
  Nbeta        = 21

  ==> Algorithm <==

  SCF Algorithm Type is DF.
  DIIS enabled.
  MOM disabled.
  Fractional occupation disabled.
  Guess Type is SAD.
  Energy threshold   = 1.00e-08
  Density threshold  = 1.00e-08
  Integral threshold = 0.00e+00

  ==> Primary Basis <==

  Basis Set: JUN-CC-PVTZ
    Blend: JUN-CC-PVTZ
    Number of shells: 201
    Number of basis function: 547
    Number of Cartesian functions: 615
    Spherical Harmonics?: true
    Max angular momentum: 3

   => Loading Basis Set <=

    Name: (JUN-CC-PVTZ AUX)
    Role: JKFIT
    Keyword: DF_BASIS_SCF
    atoms 1, 5, 9-10, 17, 20                 entry C          line   152 file /home/r08543048/miniconda3/share/psi4/basis/jun-cc-pvtz-jkfit.gbs 
    atoms 2-3, 13                            entry O          line   272 file /home/r08543048/miniconda3/share/psi4/basis/jun-cc-pvtz-jkfit.gbs 
    atoms 4, 6-8, 11-12, 14-16, 18-19, 21-23 entry H          line    70 file /home/r08543048/miniconda3/share/psi4/basis/jun-cc-pvtz-jkfit.gbs 

  ==> Pre-Iterations <==

   -------------------------------------------------------
    Irrep   Nso     Nmo     Nalpha   Nbeta   Ndocc  Nsocc
   -------------------------------------------------------
     A        547     547       0       0       0       0
   -------------------------------------------------------
    Total     547     547      21      21      21       0
   -------------------------------------------------------

  ==> Integral Setup <==

  ==> DiskDFJK: Density-Fitted J/K Matrices <==

    J tasked:                  Yes
    K tasked:                  Yes
    wK tasked:                  No
    OpenMP threads:              1
    Integrals threads:           1
    Memory [MiB]:            15735
    Algorithm:                Core
    Integral Cache:           LOAD
    Schwarz Cutoff:          1E-12
    Fitting Condition:       1E-10

   => Auxiliary Basis Set <=

  Basis Set: (JUN-CC-PVTZ AUX)
    Blend: JUN-CC-PVTZ-JKFIT
    Number of shells: 401
    Number of basis function: 1275
    Number of Cartesian functions: 1534
    Spherical Harmonics?: true
    Max angular momentum: 4

  Minimum eigenvalue in the overlap matrix is 3.9981716844E-05.
  Using Symmetric Orthogonalization.

  SCF Guess: Superposition of Atomic Densities via on-the-fly atomic UHF.

  ==> Iterations <==

                           Total Energy        Delta E     RMS |[F,P]|

   @DF-RHF iter SAD:  -231.55120665007001   -2.31551e+02   0.00000e+00 
   @DF-RHF iter   1:  -232.00654262444286   -4.55336e-01   1.15878e-03 DIIS
   @DF-RHF iter   2:  -232.18378742317489   -1.77245e-01   6.17970e-04 DIIS
   @DF-RHF iter   3:  -232.23257093323065   -4.87835e-02   1.05901e-04 DIIS
   @DF-RHF iter   4:  -232.23532767927597   -2.75675e-03   3.64175e-05 DIIS
   @DF-RHF iter   5:  -232.23555394283824   -2.26264e-04   9.13283e-06 DIIS
   @DF-RHF iter   6:  -232.23557185536947   -1.79125e-05   2.06497e-06 DIIS
   @DF-RHF iter   7:  -232.23557318061663   -1.32525e-06   5.09743e-07 DIIS
   @DF-RHF iter   8:  -232.23557326496692   -8.43503e-08   1.63258e-07 DIIS
   @DF-RHF iter   9:  -232.23557327412698   -9.16006e-09   4.55675e-08 DIIS
   @DF-RHF iter  10:  -232.23557327495035   -8.23377e-10   1.06244e-08 DIIS
   @DF-RHF iter  11:  -232.23557327499503   -4.46789e-11   2.72053e-09 DIIS
  Energy and wave function converged.


  ==> Post-Iterations <==

    Orbital Energies [Eh]
    ---------------------

    Doubly Occupied:                                                      

       1A    -20.554275     2A    -11.272102     3A    -11.220750  
       4A    -11.216843     5A    -11.201495     6A     -1.350264  
       7A     -1.068596     8A     -0.972688     9A     -0.866198  
      10A     -0.790286    11A     -0.675239    12A     -0.638106  
      13A     -0.625951    14A     -0.581081    15A     -0.559646  
      16A     -0.534375    17A     -0.504170    18A     -0.495960  
      19A     -0.473019    20A     -0.459846    21A     -0.425498  

    Virtual:                                                              

      22A      0.032942    23A      0.048876    24A      0.054036  
      25A      0.058641    26A      0.061939    27A      0.071737  
      28A      0.072720    29A      0.080278    30A      0.094417  
      31A      0.095568    32A      0.098167    33A      0.099926  
      34A      0.117676    35A      0.127108    36A      0.128578  
      37A      0.131225    38A      0.138794    39A      0.144630  
      40A      0.149376    41A      0.156888    42A      0.164468  
      43A      0.180401    44A      0.186380    45A      0.191045  
      46A      0.198196    47A      0.200946    48A      0.209205  
      49A      0.213000    50A      0.218672    51A      0.222417  
      52A      0.236075    53A      0.240033    54A      0.251650  
      55A      0.258881    56A      0.272823    57A      0.275455  
      58A      0.286777    59A      0.290997    60A      0.298558  
      61A      0.307469    62A      0.312780    63A      0.316064  
      64A      0.326132    65A      0.330915    66A      0.335026  
      67A      0.335850    68A      0.346134    69A      0.351609  
      70A      0.353832    71A      0.358434    72A      0.362665  
      73A      0.377946    74A      0.379194    75A      0.387525  
      76A      0.389286    77A      0.395890    78A      0.402008  
      79A      0.410721    80A      0.416071    81A      0.420337  
      82A      0.431688    83A      0.432742    84A      0.447088  
      85A      0.459519    86A      0.464598    87A      0.466565  
      88A      0.472923    89A      0.476666    90A      0.481263  
      91A      0.496964    92A      0.499077    93A      0.499468  
      94A      0.514057    95A      0.518987    96A      0.528962  
      97A      0.535075    98A      0.535524    99A      0.540820  
     100A      0.559601   101A      0.566103   102A      0.569679  
     103A      0.575660   104A      0.583145   105A      0.589405  
     106A      0.602439   107A      0.618104   108A      0.628254  
     109A      0.644106   110A      0.645269   111A      0.669274  
     112A      0.675709   113A      0.683266   114A      0.696197  
     115A      0.705910   116A      0.716383   117A      0.725633  
     118A      0.728531   119A      0.742143   120A      0.754754  
     121A      0.760193   122A      0.777053   123A      0.782021  
     124A      0.787105   125A      0.793928   126A      0.806139  
     127A      0.812885   128A      0.815897   129A      0.828160  
     130A      0.833073   131A      0.837775   132A      0.853434  
     133A      0.856787   134A      0.871963   135A      0.875761  
     136A      0.883640   137A      0.898721   138A      0.900043  
     139A      0.902765   140A      0.912194   141A      0.928563  
     142A      0.935113   143A      0.957394   144A      0.962974  
     145A      0.965669   146A      0.975089   147A      0.982757  
     148A      0.994568   149A      1.008469   150A      1.017474  
     151A      1.025590   152A      1.039285   153A      1.048939  
     154A      1.060582   155A      1.066229   156A      1.079734  
     157A      1.087680   158A      1.090772   159A      1.106106  
     160A      1.115192   161A      1.131093   162A      1.133060  
     163A      1.147477   164A      1.154614   165A      1.178296  
     166A      1.187916   167A      1.203766   168A      1.215823  
     169A      1.223502   170A      1.236192   171A      1.247132  
     172A      1.250374   173A      1.272021   174A      1.285150  
     175A      1.293497   176A      1.310567   177A      1.312843  
     178A      1.324386   179A      1.329823   180A      1.340172  
     181A      1.365763   182A      1.370386   183A      1.377431  
     184A      1.393950   185A      1.396586   186A      1.418480  
     187A      1.421295   188A      1.429408   189A      1.433141  
     190A      1.448367   191A      1.459025   192A      1.469868  
     193A      1.476891   194A      1.501032   195A      1.507224  
     196A      1.534362   197A      1.538814   198A      1.540912  
     199A      1.551131   200A      1.561051   201A      1.564076  
     202A      1.582003   203A      1.585684   204A      1.587996  
     205A      1.599938   206A      1.604151   207A      1.613864  
     208A      1.624497   209A      1.637434   210A      1.645395  
     211A      1.653295   212A      1.682312   213A      1.688471  
     214A      1.704303   215A      1.726448   216A      1.734035  
     217A      1.748669   218A      1.770196   219A      1.777789  
     220A      1.787905   221A      1.803237   222A      1.812183  
     223A      1.817472   224A      1.832001   225A      1.852553  
     226A      1.865290   227A      1.867363   228A      1.882092  
     229A      1.904552   230A      1.911333   231A      1.927871  
     232A      1.935645   233A      1.940834   234A      1.957240  
     235A      1.966592   236A      1.968614   237A      1.988404  
     238A      2.008738   239A      2.031541   240A      2.081651  
     241A      2.100361   242A      2.113711   243A      2.143193  
     244A      2.165459   245A      2.238174   246A      2.313341  
     247A      2.341125   248A      2.400030   249A      2.422034  
     250A      2.444061   251A      2.476697   252A      2.493648  
     253A      2.545059   254A      2.577144   255A      2.592772  
     256A      2.606581   257A      2.651297   258A      2.729389  
     259A      2.752749   260A      2.773476   261A      2.807406  
     262A      2.812965   263A      2.819922   264A      2.826579  
     265A      2.860259   266A      2.865680   267A      2.883591  
     268A      2.902856   269A      2.917981   270A      2.937074  
     271A      2.940197   272A      2.968188   273A      2.969604  
     274A      2.982734   275A      3.000142   276A      3.010741  
     277A      3.017389   278A      3.047002   279A      3.059756  
     280A      3.077274   281A      3.099545   282A      3.107683  
     283A      3.115046   284A      3.131908   285A      3.159424  
     286A      3.165743   287A      3.181079   288A      3.204963  
     289A      3.213471   290A      3.241606   291A      3.272990  
     292A      3.285422   293A      3.297840   294A      3.332438  
     295A      3.333188   296A      3.373890   297A      3.402121  
     298A      3.409876   299A      3.425487   300A      3.427489  
     301A      3.438199   302A      3.450639   303A      3.454160  
     304A      3.469387   305A      3.479594   306A      3.487729  
     307A      3.502950   308A      3.505955   309A      3.519996  
     310A      3.528358   311A      3.542425   312A      3.554537  
     313A      3.568270   314A      3.569134   315A      3.590694  
     316A      3.597353   317A      3.601170   318A      3.608350  
     319A      3.621419   320A      3.626369   321A      3.632649  
     322A      3.669511   323A      3.683517   324A      3.693921  
     325A      3.713020   326A      3.745116   327A      3.761489  
     328A      3.769420   329A      3.775298   330A      3.789475  
     331A      3.798272   332A      3.804955   333A      3.821871  
     334A      3.826139   335A      3.861595   336A      3.867779  
     337A      3.876969   338A      3.885493   339A      3.908436  
     340A      3.933469   341A      3.938017   342A      3.943772  
     343A      3.959894   344A      3.967366   345A      3.973615  
     346A      3.982552   347A      3.991188   348A      4.007246  
     349A      4.022880   350A      4.043310   351A      4.085521  
     352A      4.108987   353A      4.113381   354A      4.128529  
     355A      4.144674   356A      4.160004   357A      4.187482  
     358A      4.198090   359A      4.220079   360A      4.234201  
     361A      4.252772   362A      4.258678   363A      4.277954  
     364A      4.285536   365A      4.286814   366A      4.300156  
     367A      4.312145   368A      4.321622   369A      4.345168  
     370A      4.351582   371A      4.368728   372A      4.371805  
     373A      4.385602   374A      4.404391   375A      4.406698  
     376A      4.419101   377A      4.438732   378A      4.440408  
     379A      4.455734   380A      4.475990   381A      4.495511  
     382A      4.510473   383A      4.511241   384A      4.518430  
     385A      4.533161   386A      4.547636   387A      4.552927  
     388A      4.559103   389A      4.567079   390A      4.592331  
     391A      4.599099   392A      4.607085   393A      4.623477  
     394A      4.636357   395A      4.642184   396A      4.651757  
     397A      4.662975   398A      4.679831   399A      4.688607  
     400A      4.708486   401A      4.718542   402A      4.740332  
     403A      4.754164   404A      4.764894   405A      4.773285  
     406A      4.779985   407A      4.795199   408A      4.817958  
     409A      4.830338   410A      4.840945   411A      4.852663  
     412A      4.856204   413A      4.858016   414A      4.872070  
     415A      4.895674   416A      4.907294   417A      4.914185  
     418A      4.926156   419A      4.949574   420A      4.966002  
     421A      5.006964   422A      5.017988   423A      5.042021  
     424A      5.052040   425A      5.077769   426A      5.078104  
     427A      5.099560   428A      5.110532   429A      5.137537  
     430A      5.158474   431A      5.170154   432A      5.201622  
     433A      5.205574   434A      5.222428   435A      5.249300  
     436A      5.259338   437A      5.299945   438A      5.307528  
     439A      5.324590   440A      5.337849   441A      5.360576  
     442A      5.369822   443A      5.394397   444A      5.420168  
     445A      5.431173   446A      5.454584   447A      5.495177  
     448A      5.513189   449A      5.517429   450A      5.567533  
     451A      5.586159   452A      5.611528   453A      5.629566  
     454A      5.647716   455A      5.660473   456A      5.690471  
     457A      5.701963   458A      5.769373   459A      5.776583  
     460A      5.797163   461A      5.813992   462A      5.838406  
     463A      5.861985   464A      5.878361   465A      5.914458  
     466A      5.945247   467A      5.962184   468A      5.985366  
     469A      6.013634   470A      6.041793   471A      6.055341  
     472A      6.072453   473A      6.114021   474A      6.155814  
     475A      6.181561   476A      6.210072   477A      6.263378  
     478A      6.309242   479A      6.330896   480A      6.434672  
     481A      6.443861   482A      6.449945   483A      6.512875  
     484A      6.518028   485A      6.542411   486A      6.564897  
     487A      6.578107   488A      6.587604   489A      6.626308  
     490A      6.670990   491A      6.745256   492A      6.809659  
     493A      7.005057   494A      7.031659   495A      7.064479  
     496A      7.149126   497A      7.197928   498A      7.218172  
     499A      7.256344   500A      7.373277   501A      7.417902  
     502A      7.510244   503A      7.519307   504A      7.540762  
     505A      7.649930   506A      7.693292   507A      7.753973  
     508A      7.805742   509A      7.838235   510A      7.872827  
     511A      7.915579   512A      7.941881   513A      8.029871  
     514A      8.138677   515A      8.204919   516A      8.348600  
     517A      8.660928   518A      8.852430   519A      9.118073  
     520A      9.423771   521A      9.688854   522A      9.776389  
     523A      9.862325   524A      9.901188   525A      9.906176  
     526A      9.926807   527A      9.952747   528A     10.099632  
     529A     10.396429   530A     10.495022   531A     11.007244  
     532A     11.340818   533A     11.546100   534A     11.606587  
     535A     11.965539   536A     13.105778   537A     13.683708  
     538A     13.745243   539A     13.833607   540A     13.918823  
     541A     14.105738   542A     14.225187   543A     14.683816  
     544A     42.832465   545A     46.090285   546A     60.844747  
     547A     61.695592  

    Final Occupation by Irrep:
              A 
    DOCC [    21 ]

  @DF-RHF Final Energy:  -232.23557327499503

   => Energetics <=

    Nuclear Repulsion Energy =            192.1850703037247001
    One-Electron Energy =                -695.8685095577570792
    Two-Electron Energy =                 271.4478659790373172
    Total Energy =                       -232.2355732749950334

Computation Completed


Properties will be evaluated at   0.000000,   0.000000,   0.000000 [a0]

Properties computed using the SCF density matrix

  Nuclear Dipole Moment: [e a0]
     X:   170.8055      Y:    -8.3900      Z:    -1.0215

  Electronic Dipole Moment: [e a0]
     X:  -170.6677      Y:     8.2317      Z:     1.6858

  Dipole Moment: [e a0]
     X:     0.1378      Y:    -0.1583      Z:     0.6644     Total:     0.6967

  Dipole Moment: [D]
     X:     0.3502      Y:    -0.4024      Z:     1.6887     Total:     1.7709


*** tstop() called on r282 at Fri Sep 10 17:05:55 2021
Module time:
	user time   =      54.25 seconds =       0.90 minutes
	system time =       0.89 seconds =       0.01 minutes
	total time  =         55 seconds =       0.92 minutes
Total time:
	user time   =     188.86 seconds =       3.15 minutes
	system time =       3.42 seconds =       0.06 minutes
	total time  =        193 seconds =       3.22 minutes
  Constructing Basis Sets for SAPT...

   => Loading Basis Set <=

    Name: (JUN-CC-PVTZ AUX)
    Role: RIFIT
    Keyword: DF_BASIS_SAPT
    atoms 1, 5, 9-10, 17, 20                 entry C          line   132 file /home/r08543048/miniconda3/share/psi4/basis/jun-cc-pvtz-ri.gbs 
    atoms 2-3, 13                            entry O          line   244 file /home/r08543048/miniconda3/share/psi4/basis/jun-cc-pvtz-ri.gbs 
    atoms 4, 6-8, 11-12, 14-16, 18-19, 21-23 entry H          line    30 file /home/r08543048/miniconda3/share/psi4/basis/jun-cc-pvtz-ri.gbs 


  //>>>>>>>>>>>>>>>>>>>>>>>>>>>>>>>>>>>//
  //               SAPT0               //
  //<<<<<<<<<<<<<<<<<<<<<<<<<<<<<<<<<<<//


*** tstart() called on r282
*** at Fri Sep 10 17:05:55 2021

        SAPT0  
    Ed Hohenstein
     6 June 2009

      Orbital Information
  --------------------------
    NSO        =       547
    NMO        =       547
    NRI        =      1293
    NOCC A     =        16
    NOCC B     =        21
    FOCC A     =         0
    FOCC B     =         0
    NVIR A     =       531
    NVIR B     =       526

    Elst10,r            =    -0.036850960021 [Eh]
    Exch10              =     0.038385670880 [Eh]
    Exch10 (S^2)        =     0.037880532918 [Eh]

    Iter     Energy [mEh]          dE [mEh]         Residual      Time [s]
       1      -6.92412482       6.924124823      15.018899831             1
       2      -8.38585108       1.461726258       8.053581585             3
       3      -8.69782559       0.311974511       2.288220784             4
       4      -8.62055536      -0.077270228       0.826474468             5
       5      -8.61702173      -0.003533634       0.284480644             6
       6      -8.62356843       0.006546698       0.103190795             8
       7      -8.62379746       0.000229031       0.028983368             9
       8      -8.62329980      -0.000497661       0.009990373            10
       9      -8.62322339      -0.000076409       0.002885663            11
      10      -8.62327420       0.000050807       0.000634132            13
      11      -8.62327359      -0.000000607       0.000138753            14
      12      -8.62327181      -0.000001780       0.000034054            15
      13      -8.62327189       0.000000084       0.000009150            16
      14      -8.62327200       0.000000108       0.000002437            18
      15      -8.62327199      -0.000000009       0.000000733            19

    CHF Iterations converged


    Iter     Energy [mEh]          dE [mEh]         Residual      Time [s]
       1      -9.78828178       9.788281785      19.596389978             1
       2     -12.12379427       2.335512484       9.054261063             3
       3     -12.51153901       0.387744738       2.562079148             4
       4     -12.46726944      -0.044269565       0.836031195             8
       5     -12.43902911      -0.028240328       0.209242601             9
       6     -12.44078020       0.001751090       0.076242625            10
       7     -12.44294180       0.002161592       0.020178296            12
       8     -12.44267456      -0.000267231       0.006185885            13
       9     -12.44256850      -0.000106062       0.001751663            15
      10     -12.44258962       0.000021112       0.000581039            16
      11     -12.44259867       0.000009054       0.000132243            17
      12     -12.44259642      -0.000002247       0.000037018            19
      13     -12.44259619      -0.000000230       0.000011100            20
      14     -12.44259633       0.000000140       0.000002792            22
      15     -12.44259635       0.000000018       0.000000638            23

    CHF Iterations converged

    Ind20,r (A<-B)      =    -0.008623271992 [Eh]
    Ind20,r (B<-A)      =    -0.012442596350 [Eh]
    Ind20,r             =    -0.021065868342 [Eh]
    Exch-Ind20,r (A<-B) =     0.006038757617 [Eh]
    Exch-Ind20,r (B<-A) =     0.006814050771 [Eh]
    Exch-Ind20,r        =     0.012852808388 [Eh]
    Disp20              =    -0.013339084596 [Eh]
    Disp20 (SS)         =    -0.006669542298 [Eh]
    Disp20 (OS)         =    -0.006669542298 [Eh]
    Exch-Disp20         =     0.002719021936 [Eh]
    Exch-Disp20 (SS)    =     0.001706149738 [Eh]
    Exch-Disp20 (OS)    =     0.001012872198 [Eh]

    SAPT Results 
  --------------------------------------------------------------------------------------------------------
    Electrostatics                -36.85096002 [mEh]     -23.12432653 [kcal/mol]     -96.75218220 [kJ/mol]
      Elst10,r                    -36.85096002 [mEh]     -23.12432653 [kcal/mol]     -96.75218220 [kJ/mol]

    Exchange                       38.38567088 [mEh]      24.08737213 [kcal/mol]     100.78156501 [kJ/mol]
      Exch10                       38.38567088 [mEh]      24.08737213 [kcal/mol]     100.78156501 [kJ/mol]
      Exch10(S^2)                  37.88053292 [mEh]      23.77039328 [kcal/mol]      99.45532547 [kJ/mol]

    Induction                     -14.03212789 [mEh]      -8.80529319 [kcal/mol]     -36.84134670 [kJ/mol]
      Ind20,r                     -21.06586834 [mEh]     -13.21903196 [kcal/mol]     -55.30842971 [kJ/mol]
      Exch-Ind20,r                 12.85280839 [mEh]       8.06525903 [kcal/mol]      33.74504377 [kJ/mol]
      delta HF,r (2)               -5.81906794 [mEh]      -3.65152026 [kcal/mol]     -15.27796077 [kJ/mol]

    Dispersion                    -10.62006266 [mEh]      -6.66418993 [kcal/mol]     -27.88297067 [kJ/mol]
      Disp20                      -13.33908460 [mEh]      -8.37040196 [kcal/mol]     -35.02176178 [kJ/mol]
      Exch-Disp20                   2.71902194 [mEh]       1.70621202 [kcal/mol]       7.13879111 [kJ/mol]
      Disp20 (SS)                  -6.66954230 [mEh]      -4.18520098 [kcal/mol]     -17.51088089 [kJ/mol]
      Disp20 (OS)                  -6.66954230 [mEh]      -4.18520098 [kcal/mol]     -17.51088089 [kJ/mol]
      Exch-Disp20 (SS)              1.70614974 [mEh]       1.07062512 [kcal/mol]       4.47949552 [kJ/mol]
      Exch-Disp20 (OS)              1.01287220 [mEh]       0.63558690 [kcal/mol]       2.65929559 [kJ/mol]

  Total HF                        -12.49741703 [mEh]      -7.84224759 [kcal/mol]     -32.81196390 [kJ/mol]
  Total SAPT0                     -23.11747969 [mEh]     -14.50643752 [kcal/mol]     -60.69493457 [kJ/mol]

  Special recipe for scaled SAPT0 (see Manual):
    Electrostatics sSAPT0         -36.85096002 [mEh]     -23.12432653 [kcal/mol]     -96.75218220 [kJ/mol]
    Exchange sSAPT0                38.38567088 [mEh]      24.08737213 [kcal/mol]     100.78156501 [kJ/mol]
    Induction sSAPT0              -13.51106317 [mEh]      -8.47832014 [kcal/mol]     -35.47329146 [kJ/mol]
    Dispersion sSAPT0             -10.50983100 [mEh]      -6.59501852 [kcal/mol]     -27.59355749 [kJ/mol]
  Total sSAPT0                    -22.48618331 [mEh]     -14.11029305 [kcal/mol]     -59.03746614 [kJ/mol]
  --------------------------------------------------------------------------------------------------------

*** tstop() called on r282 at Fri Sep 10 17:08:53 2021
Module time:
	user time   =     151.84 seconds =       2.53 minutes
	system time =      23.69 seconds =       0.39 minutes
	total time  =        178 seconds =       2.97 minutes
Total time:
	user time   =     340.86 seconds =       5.68 minutes
	system time =      27.11 seconds =       0.45 minutes
	total time  =        371 seconds =       6.18 minutes

    Psi4 stopped on: Friday, 10 September 2021 05:08PM
    Psi4 wall time for execution: 0:06:10.35

*** Psi4 exiting successfully. Buy a developer a beer!
