
    -----------------------------------------------------------------------
          Psi4: An Open-Source Ab Initio Electronic Structure Package
                               Psi4 1.3.2 release

                         Git: Rev {HEAD} ecbda83 


    R. M. Parrish, L. A. Burns, D. G. A. Smith, A. C. Simmonett,
    A. E. DePrince III, E. G. Hohenstein, U. Bozkaya, A. Yu. Sokolov,
    R. Di Remigio, R. M. Richard, J. F. Gonthier, A. M. James,
    H. R. McAlexander, A. Kumar, M. Saitow, X. Wang, B. P. Pritchard,
    P. Verma, H. F. Schaefer III, K. Patkowski, R. A. King, E. F. Valeev,
    F. A. Evangelista, J. M. Turney, T. D. Crawford, and C. D. Sherrill,
    J. Chem. Theory Comput. 13(7) pp 3185--3197 (2017).
    (doi: 10.1021/acs.jctc.7b00174)


                         Additional Contributions by
    P. Kraus, H. Kruse, M. H. Lechner, M. C. Schieber, R. A. Shaw,
    A. Alenaizan, R. Galvelis, Z. L. Glick, S. Lehtola, and J. P. Misiewicz

    -----------------------------------------------------------------------


    Psi4 started on: Friday, 10 September 2021 05:37PM

    Process ID: 56915
    Host:       r282
    PSIDATADIR: /home/r08543048/miniconda3/share/psi4
    Memory:     500.0 MiB
    Threads:    1
    
  ==> Input File <==

--------------------------------------------------------------------------
# Any line starting with the # character is a comment line
#! Sample  computation

memory 22 gb

molecule Dimer {
0 1
 C 1.764348    0.044289   -0.000243
 O 1.343552    1.191588    0.004321
 O 0.996427   -1.023061   -0.245059
 H 0.076518   -0.691193   -0.412495
 C 3.190043   -0.333572    0.262927
 H 3.772409    0.555492    0.475537
 H 3.233163   -1.025439    1.101724
 H 3.591753   -0.848314   -0.607839







    
    
    
 --
0 1
 C  -3.242806   -0.665469    0.156269
 C  -2.301244    0.494953    0.373374
 O  -1.265113    0.410872   -0.612657
 H  -3.663051   -0.626705   -0.846950
 H  -4.057662   -0.630410    0.878186
 H  -2.716102   -1.611162    0.274948
 
H  -2.829949    1.444082    0.265671
 
H  -1.866957    0.457711    1.375848
 
H  -0.601098    1.099545   -0.431438
 
 
 







units angstrom

no_reorient
symmetry c1
}

set globals{
  basis jun-cc-pvtz
}

energy('sapt0')


--------------------------------------------------------------------------

  Memory set to  20.489 GiB by Python driver.

  //>>>>>>>>>>>>>>>>>>>>>>>>>>>>>>>>>>>//
  //              Dimer HF             //
  //<<<<<<<<<<<<<<<<<<<<<<<<<<<<<<<<<<<//


*** tstart() called on r282
*** at Fri Sep 10 17:37:44 2021

   => Loading Basis Set <=

    Name: JUN-CC-PVTZ
    Role: ORBITAL
    Keyword: BASIS
    atoms 1, 5, 9-10    entry C          line   217 file /home/r08543048/miniconda3/share/psi4/basis/jun-cc-pvtz.gbs 
    atoms 2-3, 11       entry O          line   305 file /home/r08543048/miniconda3/share/psi4/basis/jun-cc-pvtz.gbs 
    atoms 4, 6-8, 12-17 entry H          line    36 file /home/r08543048/miniconda3/share/psi4/basis/jun-cc-pvtz.gbs 


         ---------------------------------------------------------
                                   SCF
               by Justin Turney, Rob Parrish, Andy Simmonett
                          and Daniel G. A. Smith
                              RHF Reference
                        1 Threads,  20980 MiB Core
         ---------------------------------------------------------

  ==> Geometry <==

    Molecular point group: c1
    Full point group: C1

    Geometry (in Angstrom), charge = 0, multiplicity = 1:

       Center              X                  Y                   Z               Mass       
    ------------   -----------------  -----------------  -----------------  -----------------
         C            1.717056259503     0.026763814007     0.019110039987    12.000000000000
         O            1.296260259503     1.174062814007     0.023674039987    15.994914619570
         O            0.949135259503    -1.040586185993    -0.225705960013    15.994914619570
         H            0.029226259503    -0.708718185993    -0.393141960013     1.007825032230
         C            3.142751259503    -0.351097185993     0.282280039987    12.000000000000
         H            3.725117259503     0.537966814007     0.494890039987     1.007825032230
         H            3.185871259503    -1.042964185993     1.121077039987     1.007825032230
         H            3.544461259503    -0.865839185993    -0.588485960013     1.007825032230
         C           -3.290097740497    -0.682994185993     0.175622039987    12.000000000000
         C           -2.348535740497     0.477427814007     0.392727039987    12.000000000000
         O           -1.312404740497     0.393346814007    -0.593303960013    15.994914619570
         H           -3.710342740497    -0.644230185993    -0.827596960013     1.007825032230
         H           -4.104953740497    -0.647935185993     0.897539039987     1.007825032230
         H           -2.763393740497    -1.628687185993     0.294301039987     1.007825032230
         H           -2.877240740497     1.426556814007     0.285024039987     1.007825032230
         H           -1.914248740497     0.440185814007     1.395201039987     1.007825032230
         H           -0.648389740497     1.082019814007    -0.412084960013     1.007825032230

  Running in c1 symmetry.

  Rotational constants: A =      0.21976  B =      0.03228  C =      0.02968 [cm^-1]
  Rotational constants: A =   6588.34189  B =    967.84381  C =    889.80243 [MHz]
  Nuclear repulsion =  314.307618938320672

  Charge       = 0
  Multiplicity = 1
  Electrons    = 58
  Nalpha       = 29
  Nbeta        = 29

  ==> Algorithm <==

  SCF Algorithm Type is DF.
  DIIS enabled.
  MOM disabled.
  Fractional occupation disabled.
  Guess Type is SAD.
  Energy threshold   = 1.00e-08
  Density threshold  = 1.00e-08
  Integral threshold = 0.00e+00

  ==> Primary Basis <==

  Basis Set: JUN-CC-PVTZ
    Blend: JUN-CC-PVTZ
    Number of shells: 151
    Number of basis function: 413
    Number of Cartesian functions: 465
    Spherical Harmonics?: true
    Max angular momentum: 3

   => Loading Basis Set <=

    Name: (JUN-CC-PVTZ AUX)
    Role: JKFIT
    Keyword: DF_BASIS_SCF
    atoms 1, 5, 9-10    entry C          line   152 file /home/r08543048/miniconda3/share/psi4/basis/jun-cc-pvtz-jkfit.gbs 
    atoms 2-3, 11       entry O          line   272 file /home/r08543048/miniconda3/share/psi4/basis/jun-cc-pvtz-jkfit.gbs 
    atoms 4, 6-8, 12-17 entry H          line    70 file /home/r08543048/miniconda3/share/psi4/basis/jun-cc-pvtz-jkfit.gbs 

  ==> Pre-Iterations <==

   -------------------------------------------------------
    Irrep   Nso     Nmo     Nalpha   Nbeta   Ndocc  Nsocc
   -------------------------------------------------------
     A        413     413       0       0       0       0
   -------------------------------------------------------
    Total     413     413      29      29      29       0
   -------------------------------------------------------

  ==> Integral Setup <==

  ==> DiskDFJK: Density-Fitted J/K Matrices <==

    J tasked:                  Yes
    K tasked:                  Yes
    wK tasked:                  No
    OpenMP threads:              1
    Integrals threads:           1
    Memory [MiB]:            15735
    Algorithm:                Core
    Integral Cache:           SAVE
    Schwarz Cutoff:          1E-12
    Fitting Condition:       1E-10

   => Auxiliary Basis Set <=

  Basis Set: (JUN-CC-PVTZ AUX)
    Blend: JUN-CC-PVTZ-JKFIT
    Number of shells: 303
    Number of basis function: 965
    Number of Cartesian functions: 1162
    Spherical Harmonics?: true
    Max angular momentum: 4

  Minimum eigenvalue in the overlap matrix is 5.3703824482E-05.
  Using Symmetric Orthogonalization.

  SCF Guess: Superposition of Atomic Densities via on-the-fly atomic UHF.

  ==> Iterations <==

                           Total Energy        Delta E     RMS |[F,P]|

   @DF-RHF iter SAD:  -380.66173891579143   -3.80662e+02   0.00000e+00 
   @DF-RHF iter   1:  -381.79202326950400   -1.13028e+00   1.81899e-03 DIIS
   @DF-RHF iter   2:  -381.99775153470790   -2.05728e-01   9.94466e-04 DIIS
   @DF-RHF iter   3:  -382.05485129261217   -5.70998e-02   1.75592e-04 DIIS
   @DF-RHF iter   4:  -382.05832621658902   -3.47492e-03   7.82298e-05 DIIS
   @DF-RHF iter   5:  -382.05893088493531   -6.04668e-04   1.77927e-05 DIIS
   @DF-RHF iter   6:  -382.05897833792574   -4.74530e-05   8.77099e-06 DIIS
   @DF-RHF iter   7:  -382.05898854363323   -1.02057e-05   2.63446e-06 DIIS
   @DF-RHF iter   8:  -382.05899041027970   -1.86665e-06   9.82145e-07 DIIS
   @DF-RHF iter   9:  -382.05899065564114   -2.45361e-07   2.91654e-07 DIIS
   @DF-RHF iter  10:  -382.05899067511723   -1.94761e-08   8.70003e-08 DIIS
   @DF-RHF iter  11:  -382.05899067650330   -1.38607e-09   2.88892e-08 DIIS
   @DF-RHF iter  12:  -382.05899067660619   -1.02887e-10   1.12679e-08 DIIS
   @DF-RHF iter  13:  -382.05899067662244   -1.62572e-11   2.30676e-09 DIIS
  Energy and wave function converged.


  ==> Post-Iterations <==

    Orbital Energies [Eh]
    ---------------------

    Doubly Occupied:                                                      

       1A    -20.596748     2A    -20.564607     3A    -20.548324  
       4A    -11.388659     5A    -11.281300     6A    -11.241084  
       7A    -11.218058     8A     -1.457206     9A     -1.366156  
      10A     -1.352820    11A     -1.026800    12A     -1.019917  
      13A     -0.845414    14A     -0.814376    15A     -0.718193  
      16A     -0.704243    17A     -0.670913    18A     -0.654456  
      19A     -0.644887    20A     -0.589247    21A     -0.576899  
      22A     -0.565205    23A     -0.555127    24A     -0.539569  
      25A     -0.531836    26A     -0.499581    27A     -0.477916  
      28A     -0.460690    29A     -0.446749  

    Virtual:                                                              

      30A      0.047233    31A      0.056209    32A      0.060907  
      33A      0.070874    34A      0.079013    35A      0.083328  
      36A      0.084780    37A      0.100782    38A      0.103074  
      39A      0.107996    40A      0.120365    41A      0.126646  
      42A      0.142890    43A      0.160534    44A      0.165336  
      45A      0.176827    46A      0.184498    47A      0.194358  
      48A      0.197702    49A      0.214613    50A      0.221295  
      51A      0.231883    52A      0.241652    53A      0.253586  
      54A      0.257200    55A      0.266754    56A      0.271265  
      57A      0.279043    58A      0.283429    59A      0.292453  
      60A      0.297256    61A      0.297988    62A      0.303968  
      63A      0.309047    64A      0.317845    65A      0.323552  
      66A      0.332994    67A      0.339197    68A      0.342427  
      69A      0.348454    70A      0.362904    71A      0.377223  
      72A      0.387685    73A      0.401649    74A      0.408036  
      75A      0.416447    76A      0.422162    77A      0.434865  
      78A      0.444493    79A      0.453156    80A      0.462808  
      81A      0.478398    82A      0.487084    83A      0.499096  
      84A      0.507692    85A      0.516868    86A      0.522161  
      87A      0.525451    88A      0.538437    89A      0.556422  
      90A      0.564384    91A      0.585803    92A      0.600503  
      93A      0.616397    94A      0.632772    95A      0.645689  
      96A      0.657195    97A      0.666713    98A      0.679827  
      99A      0.691724   100A      0.697512   101A      0.704716  
     102A      0.712314   103A      0.716882   104A      0.736988  
     105A      0.753849   106A      0.759538   107A      0.767469  
     108A      0.779204   109A      0.783031   110A      0.795655  
     111A      0.806093   112A      0.822637   113A      0.830830  
     114A      0.836157   115A      0.846058   116A      0.848735  
     117A      0.864202   118A      0.870098   119A      0.880476  
     120A      0.895439   121A      0.907288   122A      0.913340  
     123A      0.932781   124A      0.944056   125A      0.965793  
     126A      0.973251   127A      0.998019   128A      1.010839  
     129A      1.018983   130A      1.022054   131A      1.052374  
     132A      1.063488   133A      1.076200   134A      1.084321  
     135A      1.103042   136A      1.116147   137A      1.132441  
     138A      1.151485   139A      1.170734   140A      1.194126  
     141A      1.216676   142A      1.238868   143A      1.245618  
     144A      1.272884   145A      1.275944   146A      1.295010  
     147A      1.307463   148A      1.312578   149A      1.322720  
     150A      1.330380   151A      1.337364   152A      1.354469  
     153A      1.366755   154A      1.369785   155A      1.376542  
     156A      1.385396   157A      1.399789   158A      1.416122  
     159A      1.427367   160A      1.439386   161A      1.468363  
     162A      1.482113   163A      1.485648   164A      1.502820  
     165A      1.524265   166A      1.533596   167A      1.535729  
     168A      1.555768   169A      1.573396   170A      1.578646  
     171A      1.597333   172A      1.600582   173A      1.624101  
     174A      1.648812   175A      1.657234   176A      1.669307  
     177A      1.679890   178A      1.696852   179A      1.728471  
     180A      1.742164   181A      1.770159   182A      1.774414  
     183A      1.796661   184A      1.813127   185A      1.838716  
     186A      1.842875   187A      1.859186   188A      1.894183  
     189A      1.916885   190A      1.933006   191A      2.003344  
     192A      2.034867   193A      2.063811   194A      2.170375  
     195A      2.219825   196A      2.228470   197A      2.283396  
     198A      2.307639   199A      2.333726   200A      2.373916  
     201A      2.415213   202A      2.431606   203A      2.452960  
     204A      2.483272   205A      2.506896   206A      2.574402  
     207A      2.592835   208A      2.637858   209A      2.644079  
     210A      2.677649   211A      2.742314   212A      2.775577  
     213A      2.791071   214A      2.809752   215A      2.826059  
     216A      2.853028   217A      2.859102   218A      2.875601  
     219A      2.910740   220A      2.938787   221A      2.964984  
     222A      2.994074   223A      3.020412   224A      3.044318  
     225A      3.070525   226A      3.099031   227A      3.107435  
     228A      3.120885   229A      3.136134   230A      3.180680  
     231A      3.200428   232A      3.211227   233A      3.221087  
     234A      3.233284   235A      3.270314   236A      3.277357  
     237A      3.286483   238A      3.300312   239A      3.332978  
     240A      3.353770   241A      3.378410   242A      3.392205  
     243A      3.401446   244A      3.424408   245A      3.433150  
     246A      3.436859   247A      3.447481   248A      3.458058  
     249A      3.470497   250A      3.485013   251A      3.490662  
     252A      3.521283   253A      3.543346   254A      3.555108  
     255A      3.558632   256A      3.572116   257A      3.611011  
     258A      3.615988   259A      3.646223   260A      3.660594  
     261A      3.673299   262A      3.681810   263A      3.710563  
     264A      3.727359   265A      3.752884   266A      3.758754  
     267A      3.764615   268A      3.773151   269A      3.776769  
     270A      3.806618   271A      3.809297   272A      3.818916  
     273A      3.838711   274A      3.845293   275A      3.869092  
     276A      3.875553   277A      3.888294   278A      3.916270  
     279A      3.945045   280A      3.962003   281A      3.993617  
     282A      4.007252   283A      4.051941   284A      4.065035  
     285A      4.103310   286A      4.123775   287A      4.156698  
     288A      4.184232   289A      4.190566   290A      4.221226  
     291A      4.247943   292A      4.260259   293A      4.267764  
     294A      4.287732   295A      4.295901   296A      4.300824  
     297A      4.320614   298A      4.322468   299A      4.333605  
     300A      4.350189   301A      4.388936   302A      4.392779  
     303A      4.410692   304A      4.430200   305A      4.433341  
     306A      4.450556   307A      4.456680   308A      4.478797  
     309A      4.488664   310A      4.508064   311A      4.510241  
     312A      4.558938   313A      4.584813   314A      4.586785  
     315A      4.596994   316A      4.627295   317A      4.629782  
     318A      4.636864   319A      4.675521   320A      4.686211  
     321A      4.756891   322A      4.761125   323A      4.779721  
     324A      4.787648   325A      4.806523   326A      4.824974  
     327A      4.857465   328A      4.884924   329A      4.897729  
     330A      4.996144   331A      5.030308   332A      5.051822  
     333A      5.087899   334A      5.106855   335A      5.147687  
     336A      5.155262   337A      5.181519   338A      5.224463  
     339A      5.260410   340A      5.276590   341A      5.289322  
     342A      5.298308   343A      5.312555   344A      5.378015  
     345A      5.406209   346A      5.442129   347A      5.453778  
     348A      5.514820   349A      5.552585   350A      5.569093  
     351A      5.584231   352A      5.595775   353A      5.640209  
     354A      5.652968   355A      5.681879   356A      5.685724  
     357A      5.716599   358A      5.722488   359A      5.732049  
     360A      5.754551   361A      5.789835   362A      5.827580  
     363A      5.871107   364A      5.890425   365A      5.894804  
     366A      5.899513   367A      5.966320   368A      6.002825  
     369A      6.059800   370A      6.095569   371A      6.149466  
     372A      6.270316   373A      6.291969   374A      6.416380  
     375A      6.417679   376A      6.436137   377A      6.466273  
     378A      6.480037   379A      6.508017   380A      6.526258  
     381A      6.722436   382A      6.747500   383A      6.892467  
     384A      6.961008   385A      6.976126   386A      7.032401  
     387A      7.094961   388A      7.169556   389A      7.203241  
     390A      7.273585   391A      7.292314   392A      7.310153  
     393A      7.345247   394A      7.370338   395A      7.414029  
     396A      7.441612   397A      7.447242   398A      7.618540  
     399A      7.669401   400A      7.708916   401A      7.762755  
     402A      7.865318   403A      7.878600   404A      7.975686  
     405A      8.169932   406A      8.304464   407A     12.080782  
     408A     13.748392   409A     13.788641   410A     13.916246  
     411A     14.326469   412A     14.565045   413A     14.733191  

    Final Occupation by Irrep:
              A 
    DOCC [    29 ]

  @DF-RHF Final Energy:  -382.05899067662244

   => Energetics <=

    Nuclear Repulsion Energy =            314.3076189383206724
    One-Electron Energy =               -1146.0192594708646538
    Two-Electron Energy =                 449.6526498559214815
    Total Energy =                       -382.0589906766224431

Computation Completed


Properties will be evaluated at   0.000000,   0.000000,   0.000000 [a0]

Properties computed using the SCF density matrix

  Nuclear Dipole Moment: [e a0]
     X:    -5.1834      Y:    -1.9208      Z:     2.1212

  Electronic Dipole Moment: [e a0]
     X:     5.2046      Y:     1.6290      Z:    -1.6121

  Dipole Moment: [e a0]
     X:     0.0212      Y:    -0.2919      Z:     0.5091     Total:     0.5872

  Dipole Moment: [D]
     X:     0.0538      Y:    -0.7419      Z:     1.2940     Total:     1.4925


*** tstop() called on r282 at Fri Sep 10 17:38:18 2021
Module time:
	user time   =      33.47 seconds =       0.56 minutes
	system time =       0.85 seconds =       0.01 minutes
	total time  =         34 seconds =       0.57 minutes
Total time:
	user time   =      33.47 seconds =       0.56 minutes
	system time =       0.85 seconds =       0.01 minutes
	total time  =         34 seconds =       0.57 minutes

  //>>>>>>>>>>>>>>>>>>>>>>>>>>>>>>>>>>>//
  //            Monomer A HF           //
  //<<<<<<<<<<<<<<<<<<<<<<<<<<<<<<<<<<<//


*** tstart() called on r282
*** at Fri Sep 10 17:38:18 2021

   => Loading Basis Set <=

    Name: JUN-CC-PVTZ
    Role: ORBITAL
    Keyword: BASIS
    atoms 1, 5, 9-10    entry C          line   217 file /home/r08543048/miniconda3/share/psi4/basis/jun-cc-pvtz.gbs 
    atoms 2-3, 11       entry O          line   305 file /home/r08543048/miniconda3/share/psi4/basis/jun-cc-pvtz.gbs 
    atoms 4, 6-8, 12-17 entry H          line    36 file /home/r08543048/miniconda3/share/psi4/basis/jun-cc-pvtz.gbs 


         ---------------------------------------------------------
                                   SCF
               by Justin Turney, Rob Parrish, Andy Simmonett
                          and Daniel G. A. Smith
                              RHF Reference
                        1 Threads,  20980 MiB Core
         ---------------------------------------------------------

  ==> Geometry <==

    Molecular point group: c1
    Full point group: C1

    Geometry (in Angstrom), charge = 0, multiplicity = 1:

       Center              X                  Y                   Z               Mass       
    ------------   -----------------  -----------------  -----------------  -----------------
         C            1.717056259503     0.026763814007     0.019110039987    12.000000000000
         O            1.296260259503     1.174062814007     0.023674039987    15.994914619570
         O            0.949135259503    -1.040586185993    -0.225705960013    15.994914619570
         H            0.029226259503    -0.708718185993    -0.393141960013     1.007825032230
         C            3.142751259503    -0.351097185993     0.282280039987    12.000000000000
         H            3.725117259503     0.537966814007     0.494890039987     1.007825032230
         H            3.185871259503    -1.042964185993     1.121077039987     1.007825032230
         H            3.544461259503    -0.865839185993    -0.588485960013     1.007825032230
      Gh(C)          -3.290097740497    -0.682994185993     0.175622039987    12.000000000000
      Gh(C)          -2.348535740497     0.477427814007     0.392727039987    12.000000000000
      Gh(O)          -1.312404740497     0.393346814007    -0.593303960013    15.994914619570
      Gh(H)          -3.710342740497    -0.644230185993    -0.827596960013     1.007825032230
      Gh(H)          -4.104953740497    -0.647935185993     0.897539039987     1.007825032230
      Gh(H)          -2.763393740497    -1.628687185993     0.294301039987     1.007825032230
      Gh(H)          -2.877240740497     1.426556814007     0.285024039987     1.007825032230
      Gh(H)          -1.914248740497     0.440185814007     1.395201039987     1.007825032230
      Gh(H)          -0.648389740497     1.082019814007    -0.412084960013     1.007825032230

  Running in c1 symmetry.

  Rotational constants: A =      0.21976  B =      0.03228  C =      0.02968 [cm^-1]
  Rotational constants: A =   6588.34189  B =    967.84381  C =    889.80243 [MHz]
  Nuclear repulsion =  121.099331772264520

  Charge       = 0
  Multiplicity = 1
  Electrons    = 32
  Nalpha       = 16
  Nbeta        = 16

  ==> Algorithm <==

  SCF Algorithm Type is DF.
  DIIS enabled.
  MOM disabled.
  Fractional occupation disabled.
  Guess Type is SAD.
  Energy threshold   = 1.00e-08
  Density threshold  = 1.00e-08
  Integral threshold = 0.00e+00

  ==> Primary Basis <==

  Basis Set: JUN-CC-PVTZ
    Blend: JUN-CC-PVTZ
    Number of shells: 151
    Number of basis function: 413
    Number of Cartesian functions: 465
    Spherical Harmonics?: true
    Max angular momentum: 3

   => Loading Basis Set <=

    Name: (JUN-CC-PVTZ AUX)
    Role: JKFIT
    Keyword: DF_BASIS_SCF
    atoms 1, 5, 9-10    entry C          line   152 file /home/r08543048/miniconda3/share/psi4/basis/jun-cc-pvtz-jkfit.gbs 
    atoms 2-3, 11       entry O          line   272 file /home/r08543048/miniconda3/share/psi4/basis/jun-cc-pvtz-jkfit.gbs 
    atoms 4, 6-8, 12-17 entry H          line    70 file /home/r08543048/miniconda3/share/psi4/basis/jun-cc-pvtz-jkfit.gbs 

  ==> Pre-Iterations <==

   -------------------------------------------------------
    Irrep   Nso     Nmo     Nalpha   Nbeta   Ndocc  Nsocc
   -------------------------------------------------------
     A        413     413       0       0       0       0
   -------------------------------------------------------
    Total     413     413      16      16      16       0
   -------------------------------------------------------

  ==> Integral Setup <==

  ==> DiskDFJK: Density-Fitted J/K Matrices <==

    J tasked:                  Yes
    K tasked:                  Yes
    wK tasked:                  No
    OpenMP threads:              1
    Integrals threads:           1
    Memory [MiB]:            15735
    Algorithm:                Core
    Integral Cache:           LOAD
    Schwarz Cutoff:          1E-12
    Fitting Condition:       1E-10

   => Auxiliary Basis Set <=

  Basis Set: (JUN-CC-PVTZ AUX)
    Blend: JUN-CC-PVTZ-JKFIT
    Number of shells: 303
    Number of basis function: 965
    Number of Cartesian functions: 1162
    Spherical Harmonics?: true
    Max angular momentum: 4

  Minimum eigenvalue in the overlap matrix is 5.3703824482E-05.
  Using Symmetric Orthogonalization.

  SCF Guess: Superposition of Atomic Densities via on-the-fly atomic UHF.

  ==> Iterations <==

                           Total Energy        Delta E     RMS |[F,P]|

   @DF-RHF iter SAD:  -226.99937874483774   -2.26999e+02   0.00000e+00 
   @DF-RHF iter   1:  -227.74259695994914   -7.43218e-01   1.45146e-03 DIIS
   @DF-RHF iter   2:  -227.85621653168539   -1.13620e-01   8.98659e-04 DIIS
   @DF-RHF iter   3:  -227.89959941658751   -4.33829e-02   1.47926e-04 DIIS
   @DF-RHF iter   4:  -227.90186640685519   -2.26699e-03   6.70398e-05 DIIS
   @DF-RHF iter   5:  -227.90236584002184   -4.99433e-04   1.63607e-05 DIIS
   @DF-RHF iter   6:  -227.90240806714974   -4.22271e-05   7.76288e-06 DIIS
   @DF-RHF iter   7:  -227.90241868108677   -1.06139e-05   2.61435e-06 DIIS
   @DF-RHF iter   8:  -227.90242050247264   -1.82139e-06   7.17253e-07 DIIS
   @DF-RHF iter   9:  -227.90242065856143   -1.56089e-07   1.51405e-07 DIIS
   @DF-RHF iter  10:  -227.90242066438211   -5.82068e-09   3.81261e-08 DIIS
   @DF-RHF iter  11:  -227.90242066462378   -2.41670e-10   1.00940e-08 DIIS
   @DF-RHF iter  12:  -227.90242066464037   -1.65983e-11   3.19019e-09 DIIS
  Energy and wave function converged.


  ==> Post-Iterations <==

    Orbital Energies [Eh]
    ---------------------

    Doubly Occupied:                                                      

       1A    -20.622940     2A    -20.548548     3A    -11.391157  
       4A    -11.245297     5A     -1.467697     6A     -1.356400  
       7A     -1.029388     8A     -0.827844     9A     -0.705835  
      10A     -0.681688    11A     -0.654131    12A     -0.581595  
      13A     -0.574771    14A     -0.564484    15A     -0.480271  
      16A     -0.454444  

    Virtual:                                                              

      17A      0.033224    18A      0.045433    19A      0.059316  
      20A      0.062343    21A      0.067755    22A      0.079769  
      23A      0.082482    24A      0.096440    25A      0.102404  
      26A      0.105649    27A      0.114474    28A      0.120997  
      29A      0.137482    30A      0.150403    31A      0.158042  
      32A      0.161885    33A      0.166548    34A      0.177746  
      35A      0.182536    36A      0.189772    37A      0.198066  
      38A      0.219027    39A      0.232234    40A      0.234186  
      41A      0.242324    42A      0.246914    43A      0.263462  
      44A      0.272117    45A      0.281392    46A      0.286664  
      47A      0.288132    48A      0.296186    49A      0.303276  
      50A      0.314206    51A      0.315792    52A      0.322259  
      53A      0.335380    54A      0.337155    55A      0.348245  
      56A      0.361042    57A      0.363539    58A      0.382038  
      59A      0.388908    60A      0.398452    61A      0.412952  
      62A      0.418313    63A      0.420891    64A      0.435012  
      65A      0.444193    66A      0.452610    67A      0.462248  
      68A      0.477773    69A      0.486018    70A      0.487674  
      71A      0.498446    72A      0.504748    73A      0.513326  
      74A      0.531255    75A      0.535935    76A      0.557412  
      77A      0.564288    78A      0.578134    79A      0.587629  
      80A      0.601877    81A      0.608059    82A      0.621316  
      83A      0.636307    84A      0.640240    85A      0.656164  
      86A      0.662532    87A      0.669038    88A      0.682613  
      89A      0.700245    90A      0.704781    91A      0.749211  
      92A      0.762584    93A      0.778531    94A      0.788194  
      95A      0.793731    96A      0.803475    97A      0.816245  
      98A      0.826630    99A      0.838033   100A      0.850125  
     101A      0.857239   102A      0.895534   103A      0.901284  
     104A      0.911528   105A      0.918496   106A      0.946169  
     107A      0.964343   108A      0.966670   109A      0.984317  
     110A      0.992622   111A      1.018804   112A      1.026413  
     113A      1.044288   114A      1.056851   115A      1.066067  
     116A      1.076308   117A      1.085969   118A      1.089601  
     119A      1.110941   120A      1.123658   121A      1.143786  
     122A      1.159114   123A      1.169605   124A      1.178335  
     125A      1.184168   126A      1.202585   127A      1.227056  
     128A      1.228050   129A      1.242647   130A      1.257208  
     131A      1.265064   132A      1.282821   133A      1.288363  
     134A      1.299767   135A      1.308034   136A      1.321169  
     137A      1.331337   138A      1.342080   139A      1.356589  
     140A      1.371788   141A      1.375850   142A      1.382710  
     143A      1.388040   144A      1.408467   145A      1.428594  
     146A      1.456985   147A      1.471609   148A      1.484377  
     149A      1.501565   150A      1.517535   151A      1.520907  
     152A      1.532794   153A      1.541013   154A      1.545010  
     155A      1.556550   156A      1.566356   157A      1.585906  
     158A      1.596916   159A      1.615071   160A      1.633748  
     161A      1.652588   162A      1.677149   163A      1.709316  
     164A      1.725933   165A      1.739105   166A      1.768488  
     167A      1.799592   168A      1.809504   169A      1.816103  
     170A      1.831519   171A      1.872728   172A      1.882314  
     173A      1.911599   174A      1.937413   175A      1.983687  
     176A      1.995598   177A      2.018380   178A      2.038281  
     179A      2.073538   180A      2.111698   181A      2.138328  
     182A      2.217118   183A      2.219566   184A      2.260421  
     185A      2.288786   186A      2.317409   187A      2.327062  
     188A      2.373180   189A      2.382006   190A      2.408551  
     191A      2.430896   192A      2.447439   193A      2.465912  
     194A      2.503928   195A      2.522250   196A      2.568338  
     197A      2.615299   198A      2.634077   199A      2.687444  
     200A      2.713483   201A      2.758882   202A      2.796602  
     203A      2.832823   204A      2.850533   205A      2.897219  
     206A      2.905246   207A      2.943311   208A      2.961346  
     209A      2.995411   210A      3.024866   211A      3.080033  
     212A      3.081284   213A      3.095969   214A      3.174312  
     215A      3.180091   216A      3.198142   217A      3.252943  
     218A      3.271136   219A      3.335519   220A      3.348282  
     221A      3.376864   222A      3.393563   223A      3.423841  
     224A      3.430474   225A      3.433883   226A      3.492032  
     227A      3.518650   228A      3.534634   229A      3.548242  
     230A      3.577514   231A      3.597151   232A      3.601788  
     233A      3.612105   234A      3.620923   235A      3.650293  
     236A      3.658100   237A      3.682155   238A      3.695183  
     239A      3.704271   240A      3.728410   241A      3.734965  
     242A      3.757162   243A      3.768047   244A      3.771677  
     245A      3.788176   246A      3.808409   247A      3.811867  
     248A      3.822998   249A      3.832472   250A      3.862262  
     251A      3.876080   252A      3.902256   253A      3.944106  
     254A      3.982960   255A      3.995519   256A      4.009510  
     257A      4.047400   258A      4.066719   259A      4.116265  
     260A      4.144168   261A      4.151337   262A      4.166516  
     263A      4.183801   264A      4.190224   265A      4.229940  
     266A      4.248856   267A      4.259737   268A      4.288450  
     269A      4.299667   270A      4.305712   271A      4.319698  
     272A      4.324836   273A      4.334030   274A      4.364903  
     275A      4.397191   276A      4.409887   277A      4.416696  
     278A      4.452983   279A      4.466120   280A      4.467411  
     281A      4.496115   282A      4.525609   283A      4.536015  
     284A      4.559785   285A      4.580867   286A      4.590942  
     287A      4.603818   288A      4.627174   289A      4.644111  
     290A      4.656431   291A      4.671225   292A      4.699269  
     293A      4.726133   294A      4.737471   295A      4.741823  
     296A      4.756412   297A      4.770546   298A      4.779094  
     299A      4.794743   300A      4.795297   301A      4.808576  
     302A      4.843405   303A      4.860457   304A      4.866753  
     305A      4.875373   306A      4.879401   307A      4.915418  
     308A      4.938604   309A      4.962445   310A      4.973266  
     311A      5.001627   312A      5.028029   313A      5.044366  
     314A      5.054101   315A      5.102692   316A      5.113372  
     317A      5.119053   318A      5.150373   319A      5.160791  
     320A      5.187229   321A      5.220726   322A      5.269768  
     323A      5.300763   324A      5.327710   325A      5.380278  
     326A      5.405027   327A      5.440965   328A      5.479805  
     329A      5.510510   330A      5.551249   331A      5.560345  
     332A      5.589457   333A      5.624393   334A      5.659501  
     335A      5.676989   336A      5.678866   337A      5.684862  
     338A      5.723912   339A      5.726836   340A      5.776880  
     341A      5.823600   342A      5.882153   343A      5.888103  
     344A      5.897821   345A      5.937254   346A      6.006199  
     347A      6.037556   348A      6.054947   349A      6.138711  
     350A      6.162999   351A      6.193091   352A      6.252728  
     353A      6.278434   354A      6.305670   355A      6.339753  
     356A      6.412288   357A      6.432629   358A      6.444611  
     359A      6.473511   360A      6.500832   361A      6.719660  
     362A      6.743554   363A      6.816338   364A      6.872621  
     365A      6.911946   366A      6.950757   367A      6.988520  
     368A      7.057802   369A      7.102224   370A      7.185848  
     371A      7.267087   372A      7.286554   373A      7.319930  
     374A      7.342118   375A      7.376093   376A      7.381111  
     377A      7.413912   378A      7.448757   379A      7.531313  
     380A      7.542261   381A      7.627492   382A      7.633443  
     383A      7.656574   384A      7.731370   385A      7.748916  
     386A      7.804788   387A      7.843512   388A      7.874333  
     389A      7.916141   390A      7.952645   391A      7.999242  
     392A      8.184018   393A      8.263195   394A      8.324270  
     395A      8.442212   396A      9.533423   397A      9.733396  
     398A      9.843897   399A      9.882860   400A     10.139489  
     401A     10.193032   402A     10.379616   403A     11.218281  
     404A     11.652169   405A     12.079640   406A     12.713467  
     407A     13.585118   408A     13.776057   409A     14.325217  
     410A     14.729490   411A     44.470568   412A     45.593927  
     413A     61.129255  

    Final Occupation by Irrep:
              A 
    DOCC [    16 ]

  @DF-RHF Final Energy:  -227.90242066464037

   => Energetics <=

    Nuclear Repulsion Energy =            121.0993317722645202
    One-Electron Energy =                -551.6305259924013171
    Two-Electron Energy =                 202.6287735554964229
    Total Energy =                       -227.9024206646403741

Computation Completed


Properties will be evaluated at   0.000000,   0.000000,   0.000000 [a0]

Properties computed using the SCF density matrix

  Nuclear Dipole Moment: [e a0]
     X:   108.8609      Y:    -5.5893      Z:     1.5617

  Electronic Dipole Moment: [e a0]
     X:  -108.5994      Y:     4.7868      Z:    -1.5758

  Dipole Moment: [e a0]
     X:     0.2614      Y:    -0.8025      Z:    -0.0141     Total:     0.8441

  Dipole Moment: [D]
     X:     0.6645      Y:    -2.0397      Z:    -0.0359     Total:     2.1455


*** tstop() called on r282 at Fri Sep 10 17:38:36 2021
Module time:
	user time   =      17.62 seconds =       0.29 minutes
	system time =       0.42 seconds =       0.01 minutes
	total time  =         18 seconds =       0.30 minutes
Total time:
	user time   =      51.10 seconds =       0.85 minutes
	system time =       1.27 seconds =       0.02 minutes
	total time  =         52 seconds =       0.87 minutes

  //>>>>>>>>>>>>>>>>>>>>>>>>>>>>>>>>>>>//
  //            Monomer B HF           //
  //<<<<<<<<<<<<<<<<<<<<<<<<<<<<<<<<<<<//


*** tstart() called on r282
*** at Fri Sep 10 17:38:36 2021

   => Loading Basis Set <=

    Name: JUN-CC-PVTZ
    Role: ORBITAL
    Keyword: BASIS
    atoms 1, 5, 9-10    entry C          line   217 file /home/r08543048/miniconda3/share/psi4/basis/jun-cc-pvtz.gbs 
    atoms 2-3, 11       entry O          line   305 file /home/r08543048/miniconda3/share/psi4/basis/jun-cc-pvtz.gbs 
    atoms 4, 6-8, 12-17 entry H          line    36 file /home/r08543048/miniconda3/share/psi4/basis/jun-cc-pvtz.gbs 


         ---------------------------------------------------------
                                   SCF
               by Justin Turney, Rob Parrish, Andy Simmonett
                          and Daniel G. A. Smith
                              RHF Reference
                        1 Threads,  20980 MiB Core
         ---------------------------------------------------------

  ==> Geometry <==

    Molecular point group: c1
    Full point group: C1

    Geometry (in Angstrom), charge = 0, multiplicity = 1:

       Center              X                  Y                   Z               Mass       
    ------------   -----------------  -----------------  -----------------  -----------------
      Gh(C)           1.717056259503     0.026763814007     0.019110039987    12.000000000000
      Gh(O)           1.296260259503     1.174062814007     0.023674039987    15.994914619570
      Gh(O)           0.949135259503    -1.040586185993    -0.225705960013    15.994914619570
      Gh(H)           0.029226259503    -0.708718185993    -0.393141960013     1.007825032230
      Gh(C)           3.142751259503    -0.351097185993     0.282280039987    12.000000000000
      Gh(H)           3.725117259503     0.537966814007     0.494890039987     1.007825032230
      Gh(H)           3.185871259503    -1.042964185993     1.121077039987     1.007825032230
      Gh(H)           3.544461259503    -0.865839185993    -0.588485960013     1.007825032230
         C           -3.290097740497    -0.682994185993     0.175622039987    12.000000000000
         C           -2.348535740497     0.477427814007     0.392727039987    12.000000000000
         O           -1.312404740497     0.393346814007    -0.593303960013    15.994914619570
         H           -3.710342740497    -0.644230185993    -0.827596960013     1.007825032230
         H           -4.104953740497    -0.647935185993     0.897539039987     1.007825032230
         H           -2.763393740497    -1.628687185993     0.294301039987     1.007825032230
         H           -2.877240740497     1.426556814007     0.285024039987     1.007825032230
         H           -1.914248740497     0.440185814007     1.395201039987     1.007825032230
         H           -0.648389740497     1.082019814007    -0.412084960013     1.007825032230

  Running in c1 symmetry.

  Rotational constants: A =      0.21976  B =      0.03228  C =      0.02968 [cm^-1]
  Rotational constants: A =   6588.34189  B =    967.84381  C =    889.80243 [MHz]
  Nuclear repulsion =   81.747911104769997

  Charge       = 0
  Multiplicity = 1
  Electrons    = 26
  Nalpha       = 13
  Nbeta        = 13

  ==> Algorithm <==

  SCF Algorithm Type is DF.
  DIIS enabled.
  MOM disabled.
  Fractional occupation disabled.
  Guess Type is SAD.
  Energy threshold   = 1.00e-08
  Density threshold  = 1.00e-08
  Integral threshold = 0.00e+00

  ==> Primary Basis <==

  Basis Set: JUN-CC-PVTZ
    Blend: JUN-CC-PVTZ
    Number of shells: 151
    Number of basis function: 413
    Number of Cartesian functions: 465
    Spherical Harmonics?: true
    Max angular momentum: 3

   => Loading Basis Set <=

    Name: (JUN-CC-PVTZ AUX)
    Role: JKFIT
    Keyword: DF_BASIS_SCF
    atoms 1, 5, 9-10    entry C          line   152 file /home/r08543048/miniconda3/share/psi4/basis/jun-cc-pvtz-jkfit.gbs 
    atoms 2-3, 11       entry O          line   272 file /home/r08543048/miniconda3/share/psi4/basis/jun-cc-pvtz-jkfit.gbs 
    atoms 4, 6-8, 12-17 entry H          line    70 file /home/r08543048/miniconda3/share/psi4/basis/jun-cc-pvtz-jkfit.gbs 

  ==> Pre-Iterations <==

   -------------------------------------------------------
    Irrep   Nso     Nmo     Nalpha   Nbeta   Ndocc  Nsocc
   -------------------------------------------------------
     A        413     413       0       0       0       0
   -------------------------------------------------------
    Total     413     413      13      13      13       0
   -------------------------------------------------------

  ==> Integral Setup <==

  ==> DiskDFJK: Density-Fitted J/K Matrices <==

    J tasked:                  Yes
    K tasked:                  Yes
    wK tasked:                  No
    OpenMP threads:              1
    Integrals threads:           1
    Memory [MiB]:            15735
    Algorithm:                Core
    Integral Cache:           LOAD
    Schwarz Cutoff:          1E-12
    Fitting Condition:       1E-10

   => Auxiliary Basis Set <=

  Basis Set: (JUN-CC-PVTZ AUX)
    Blend: JUN-CC-PVTZ-JKFIT
    Number of shells: 303
    Number of basis function: 965
    Number of Cartesian functions: 1162
    Spherical Harmonics?: true
    Max angular momentum: 4

  Minimum eigenvalue in the overlap matrix is 5.3703824482E-05.
  Using Symmetric Orthogonalization.

  SCF Guess: Superposition of Atomic Densities via on-the-fly atomic UHF.

  ==> Iterations <==

                           Total Energy        Delta E     RMS |[F,P]|

   @DF-RHF iter SAD:  -153.41489234194583   -1.53415e+02   0.00000e+00 
   @DF-RHF iter   1:  -154.00678361459939   -5.91891e-01   1.24405e-03 DIIS
   @DF-RHF iter   2:  -154.11120022952815   -1.04417e-01   7.01395e-04 DIIS
   @DF-RHF iter   3:  -154.14246658864832   -3.12664e-02   1.12750e-04 DIIS
   @DF-RHF iter   4:  -154.14403289101750   -1.56630e-03   4.31944e-05 DIIS
   @DF-RHF iter   5:  -154.14421942539863   -1.86534e-04   7.55949e-06 DIIS
   @DF-RHF iter   6:  -154.14422879956902   -9.37417e-06   1.67249e-06 DIIS
   @DF-RHF iter   7:  -154.14422934570035   -5.46131e-07   5.16375e-07 DIIS
   @DF-RHF iter   8:  -154.14422938957446   -4.38741e-08   1.45254e-07 DIIS
   @DF-RHF iter   9:  -154.14422939401345   -4.43899e-09   3.45355e-08 DIIS
   @DF-RHF iter  10:  -154.14422939429133   -2.77879e-10   6.40369e-09 DIIS
  Energy and wave function converged.


  ==> Post-Iterations <==

    Orbital Energies [Eh]
    ---------------------

    Doubly Occupied:                                                      

       1A    -20.555309     2A    -11.274296     3A    -11.211593  
       4A     -1.350024     5A     -1.013161     6A     -0.834639  
       7A     -0.693940     8A     -0.645253     9A     -0.569037  
      10A     -0.533319    11A     -0.525245    12A     -0.489042  
      13A     -0.442557  

    Virtual:                                                              

      14A      0.033919    15A      0.050587    16A      0.057484  
      17A      0.064300    18A      0.070454    19A      0.073230  
      20A      0.083381    21A      0.098758    22A      0.099864  
      23A      0.105528    24A      0.118551    25A      0.123058  
      26A      0.135982    27A      0.150556    28A      0.152755  
      29A      0.169736    30A      0.172432    31A      0.181444  
      32A      0.198092    33A      0.202823    34A      0.209408  
      35A      0.218665    36A      0.226666    37A      0.228119  
      38A      0.237696    39A      0.262498    40A      0.273328  
      41A      0.277341    42A      0.282232    43A      0.291013  
      44A      0.296956    45A      0.303995    46A      0.310845  
      47A      0.315003    48A      0.326951    49A      0.341986  
      50A      0.342116    51A      0.347437    52A      0.352911  
      53A      0.362530    54A      0.372722    55A      0.385021  
      56A      0.394874    57A      0.404961    58A      0.411812  
      59A      0.417983    60A      0.423636    61A      0.439401  
      62A      0.452369    63A      0.458313    64A      0.466513  
      65A      0.470214    66A      0.480525    67A      0.482950  
      68A      0.498663    69A      0.505852    70A      0.513572  
      71A      0.525627    72A      0.526724    73A      0.538880  
      74A      0.563967    75A      0.567740    76A      0.578153  
      77A      0.590277    78A      0.629806    79A      0.651362  
      80A      0.664753    81A      0.673657    82A      0.690947  
      83A      0.702593    84A      0.719824    85A      0.724742  
      86A      0.750578    87A      0.765539    88A      0.767741  
      89A      0.772866    90A      0.777657    91A      0.788915  
      92A      0.800617    93A      0.815923    94A      0.829896  
      95A      0.839782    96A      0.857774    97A      0.863420  
      98A      0.867960    99A      0.876839   100A      0.879932  
     101A      0.901196   102A      0.924925   103A      0.936511  
     104A      0.956574   105A      0.962058   106A      0.969536  
     107A      0.975181   108A      0.996099   109A      1.021053  
     110A      1.022650   111A      1.039439   112A      1.054897  
     113A      1.066704   114A      1.079033   115A      1.084017  
     116A      1.095373   117A      1.097144   118A      1.110728  
     119A      1.128359   120A      1.134617   121A      1.149534  
     122A      1.162186   123A      1.172546   124A      1.209206  
     125A      1.222361   126A      1.226008   127A      1.257082  
     128A      1.266856   129A      1.298320   130A      1.312408  
     131A      1.319954   132A      1.330712   133A      1.338458  
     134A      1.353912   135A      1.360487   136A      1.369369  
     137A      1.379210   138A      1.386757   139A      1.405872  
     140A      1.422345   141A      1.444659   142A      1.450709  
     143A      1.470051   144A      1.483366   145A      1.504950  
     146A      1.533091   147A      1.548297   148A      1.557522  
     149A      1.562600   150A      1.578389   151A      1.582824  
     152A      1.594398   153A      1.602452   154A      1.631026  
     155A      1.642771   156A      1.662041   157A      1.674641  
     158A      1.697742   159A      1.722025   160A      1.727893  
     161A      1.744559   162A      1.786685   163A      1.806448  
     164A      1.816384   165A      1.838355   166A      1.857915  
     167A      1.871628   168A      1.883944   169A      1.894372  
     170A      1.916210   171A      1.929187   172A      1.940303  
     173A      1.964676   174A      2.000150   175A      2.028646  
     176A      2.079467   177A      2.103701   178A      2.138307  
     179A      2.161084   180A      2.222968   181A      2.336502  
     182A      2.355109   183A      2.385408   184A      2.408028  
     185A      2.440627   186A      2.480144   187A      2.500547  
     188A      2.548612   189A      2.589348   190A      2.595066  
     191A      2.627732   192A      2.728528   193A      2.748704  
     194A      2.764104   195A      2.778551   196A      2.810991  
     197A      2.828681   198A      2.846805   199A      2.861340  
     200A      2.887258   201A      2.910131   202A      2.924336  
     203A      2.945379   204A      2.981104   205A      3.010987  
     206A      3.026692   207A      3.045621   208A      3.054942  
     209A      3.071972   210A      3.113849   211A      3.128450  
     212A      3.167549   213A      3.214434   214A      3.232656  
     215A      3.259639   216A      3.286176   217A      3.304791  
     218A      3.320109   219A      3.355910   220A      3.393905  
     221A      3.425192   222A      3.434362   223A      3.442820  
     224A      3.455112   225A      3.471562   226A      3.493335  
     227A      3.512856   228A      3.539001   229A      3.551181  
     230A      3.577032   231A      3.583822   232A      3.592036  
     233A      3.605932   234A      3.615328   235A      3.628244  
     236A      3.667808   237A      3.688251   238A      3.697528  
     239A      3.740622   240A      3.760453   241A      3.778221  
     242A      3.809342   243A      3.819261   244A      3.826729  
     245A      3.841291   246A      3.868509   247A      3.873978  
     248A      3.898719   249A      3.918848   250A      3.936404  
     251A      3.939992   252A      3.950641   253A      3.976953  
     254A      3.990899   255A      4.006768   256A      4.046390  
     257A      4.048552   258A      4.102202   259A      4.116579  
     260A      4.165979   261A      4.194859   262A      4.218572  
     263A      4.251116   264A      4.261932   265A      4.269432  
     266A      4.276841   267A      4.298208   268A      4.303296  
     269A      4.318969   270A      4.323034   271A      4.349440  
     272A      4.369369   273A      4.396560   274A      4.400398  
     275A      4.422157   276A      4.437460   277A      4.452062  
     278A      4.462104   279A      4.469502   280A      4.487819  
     281A      4.512634   282A      4.528244   283A      4.546572  
     284A      4.558580   285A      4.591546   286A      4.609891  
     287A      4.620655   288A      4.629582   289A      4.652417  
     290A      4.676004   291A      4.678454   292A      4.712281  
     293A      4.745158   294A      4.753181   295A      4.766378  
     296A      4.768308   297A      4.789521   298A      4.794349  
     299A      4.821865   300A      4.840988   301A      4.851751  
     302A      4.865604   303A      4.886965   304A      4.896458  
     305A      4.912376   306A      4.935736   307A      4.951361  
     308A      5.007183   309A      5.008316   310A      5.053680  
     311A      5.068775   312A      5.075352   313A      5.122740  
     314A      5.141746   315A      5.155261   316A      5.172448  
     317A      5.204149   318A      5.239937   319A      5.268178  
     320A      5.283918   321A      5.292120   322A      5.311993  
     323A      5.329835   324A      5.392400   325A      5.421399  
     326A      5.459773   327A      5.495723   328A      5.532837  
     329A      5.597972   330A      5.616871   331A      5.629643  
     332A      5.695273   333A      5.700869   334A      5.727854  
     335A      5.741988   336A      5.763381   337A      5.834497  
     338A      5.895083   339A      5.931430   340A      5.981073  
     341A      5.984274   342A      6.057556   343A      6.072082  
     344A      6.102265   345A      6.151396   346A      6.168814  
     347A      6.263190   348A      6.270465   349A      6.329315  
     350A      6.391360   351A      6.439883   352A      6.443725  
     353A      6.477083   354A      6.487991   355A      6.512738  
     356A      6.542392   357A      6.560232   358A      6.659076  
     359A      6.742625   360A      6.809583   361A      6.938327  
     362A      7.031618   363A      7.067465   364A      7.145757  
     365A      7.186298   366A      7.199041   367A      7.242513  
     368A      7.349087   369A      7.363397   370A      7.505659  
     371A      7.514427   372A      7.538494   373A      7.626048  
     374A      7.660892   375A      7.745052   376A      7.804563  
     377A      7.836875   378A      7.862233   379A      7.901579  
     380A      7.934466   381A      8.027541   382A      8.135084  
     383A      8.201720   384A      8.318408   385A      8.656828  
     386A      8.844706   387A      9.115021   388A      9.417273  
     389A      9.681973   390A      9.774022   391A      9.859857  
     392A      9.897974   393A      9.900822   394A      9.923340  
     395A      9.947286   396A     10.084384   397A     10.388445  
     398A     10.487653   399A     11.006583   400A     11.336620  
     401A     11.540513   402A     11.604470   403A     11.964357  
     404A     13.098394   405A     13.709985   406A     13.765024  
     407A     13.910088   408A     13.970918   409A     14.562605  
     410A     42.717634   411A     46.085681   412A     60.826270  
     413A     61.645135  

    Final Occupation by Irrep:
              A 
    DOCC [    13 ]

  @DF-RHF Final Energy:  -154.14422939429133

   => Energetics <=

    Nuclear Repulsion Energy =             81.7479111047699973
    One-Electron Energy =                -371.5094469900665217
    Two-Electron Energy =                 135.6173064910052233
    Total Energy =                       -154.1442293942913295

Computation Completed


Properties will be evaluated at   0.000000,   0.000000,   0.000000 [a0]

Properties computed using the SCF density matrix

  Nuclear Dipole Moment: [e a0]
     X:  -114.0442      Y:     3.6685      Z:     0.5594

  Electronic Dipole Moment: [e a0]
     X:   113.9858      Y:    -3.2404      Z:    -0.0303

  Dipole Moment: [e a0]
     X:    -0.0585      Y:     0.4281      Z:     0.5291     Total:     0.6831

  Dipole Moment: [D]
     X:    -0.1486      Y:     1.0881      Z:     1.3450     Total:     1.7364


*** tstop() called on r282 at Fri Sep 10 17:38:51 2021
Module time:
	user time   =      14.28 seconds =       0.24 minutes
	system time =       0.38 seconds =       0.01 minutes
	total time  =         15 seconds =       0.25 minutes
Total time:
	user time   =      65.38 seconds =       1.09 minutes
	system time =       1.65 seconds =       0.03 minutes
	total time  =         67 seconds =       1.12 minutes
  Constructing Basis Sets for SAPT...

   => Loading Basis Set <=

    Name: (JUN-CC-PVTZ AUX)
    Role: RIFIT
    Keyword: DF_BASIS_SAPT
    atoms 1, 5, 9-10    entry C          line   132 file /home/r08543048/miniconda3/share/psi4/basis/jun-cc-pvtz-ri.gbs 
    atoms 2-3, 11       entry O          line   244 file /home/r08543048/miniconda3/share/psi4/basis/jun-cc-pvtz-ri.gbs 
    atoms 4, 6-8, 12-17 entry H          line    30 file /home/r08543048/miniconda3/share/psi4/basis/jun-cc-pvtz-ri.gbs 


  //>>>>>>>>>>>>>>>>>>>>>>>>>>>>>>>>>>>//
  //               SAPT0               //
  //<<<<<<<<<<<<<<<<<<<<<<<<<<<<<<<<<<<//


*** tstart() called on r282
*** at Fri Sep 10 17:38:51 2021

        SAPT0  
    Ed Hohenstein
     6 June 2009

      Orbital Information
  --------------------------
    NSO        =       413
    NMO        =       413
    NRI        =       979
    NOCC A     =        16
    NOCC B     =        13
    FOCC A     =         0
    FOCC B     =         0
    NVIR A     =       397
    NVIR B     =       400

    Elst10,r            =    -0.036133184525 [Eh]
    Exch10              =     0.037440041310 [Eh]
    Exch10 (S^2)        =     0.036953923262 [Eh]

    Iter     Energy [mEh]          dE [mEh]         Residual      Time [s]
       1      -6.66426908       6.664269080      14.559900574             0
       2      -8.04870267       1.384433592       7.745519099             1
       3      -8.34005027       0.291347595       2.208072229             1
       4      -8.26691730      -0.073132968       0.798576835             2
       5      -8.26335207      -0.003565231       0.272393333             2
       6      -8.26965327       0.006301201       0.097974325             3
       7      -8.26981159       0.000158321       0.027604307             3
       8      -8.26934140      -0.000470189       0.009552698             4
       9      -8.26927451      -0.000066890       0.002802460             4
      10      -8.26932274       0.000048227       0.000625248             5
      11      -8.26932225      -0.000000484       0.000138445             5
      12      -8.26932049      -0.000001762       0.000033633             6
      13      -8.26932060       0.000000105       0.000009698             7
      14      -8.26932071       0.000000112       0.000003481             7
      15      -8.26932069      -0.000000020       0.000001488             8
      16      -8.26932068      -0.000000012       0.000000485             8

    CHF Iterations converged


    Iter     Energy [mEh]          dE [mEh]         Residual      Time [s]
       1      -9.62100716       9.621007157      19.368727953             1
       2     -11.94692777       2.325920611       8.831725952             1
       3     -12.28528562       0.338357854       2.640489904             2
       4     -12.24914666      -0.036138961       0.813448970             2
       5     -12.21883194      -0.030314726       0.169348198             3
       6     -12.22186694       0.003035006       0.064213521             3
       7     -12.22344980       0.001582855       0.015435662             4
       8     -12.22302190      -0.000427895       0.004109190             4
       9     -12.22302615       0.000004251       0.001146041             5
      10     -12.22304463       0.000018474       0.000378833             6
      11     -12.22304520       0.000000576       0.000106794             6
      12     -12.22304334      -0.000001867       0.000024774             7
      13     -12.22304359       0.000000251       0.000005291             7
      14     -12.22304362       0.000000035       0.000001014             8
      15     -12.22304361      -0.000000013       0.000000208             8

    CHF Iterations converged

    Ind20,r (A<-B)      =    -0.008269320678 [Eh]
    Ind20,r (B<-A)      =    -0.012223043609 [Eh]
    Ind20,r             =    -0.020492364287 [Eh]
    Exch-Ind20,r (A<-B) =     0.005860551491 [Eh]
    Exch-Ind20,r (B<-A) =     0.006664930317 [Eh]
    Exch-Ind20,r        =     0.012525481808 [Eh]
    Disp20              =    -0.012876815370 [Eh]
    Disp20 (SS)         =    -0.006438407685 [Eh]
    Disp20 (OS)         =    -0.006438407685 [Eh]
    Exch-Disp20         =     0.002634560204 [Eh]
    Exch-Disp20 (SS)    =     0.001654483952 [Eh]
    Exch-Disp20 (OS)    =     0.000980076252 [Eh]

    SAPT Results 
  --------------------------------------------------------------------------------------------------------
    Electrostatics                -36.13318452 [mEh]     -22.67391561 [kcal/mol]     -94.86766290 [kJ/mol]
      Elst10,r                    -36.13318452 [mEh]     -22.67391561 [kcal/mol]     -94.86766290 [kJ/mol]

    Exchange                       37.44004131 [mEh]      23.49398062 [kcal/mol]      98.29881492 [kJ/mol]
      Exch10                       37.44004131 [mEh]      23.49398062 [kcal/mol]      98.29881492 [kJ/mol]
      Exch10(S^2)                  36.95392326 [mEh]      23.18893694 [kcal/mol]      97.02251216 [kJ/mol]

    Induction                     -13.64747448 [mEh]      -8.56391953 [kcal/mol]     -35.83143930 [kJ/mol]
      Ind20,r                     -20.49236429 [mEh]     -12.85915273 [kcal/mol]     -53.80269502 [kJ/mol]
      Exch-Ind20,r                 12.52548181 [mEh]       7.85985850 [kcal/mol]      32.88564796 [kJ/mol]
      delta HF,r (2)               -5.68059200 [mEh]      -3.56462529 [kcal/mol]     -14.91439223 [kJ/mol]

    Dispersion                    -10.24225517 [mEh]      -6.42711215 [kcal/mol]     -26.89103724 [kJ/mol]
      Disp20                      -12.87681537 [mEh]      -8.08032364 [kcal/mol]     -33.80807410 [kJ/mol]
      Exch-Disp20                   2.63456020 [mEh]       1.65321149 [kcal/mol]       6.91703686 [kJ/mol]
      Disp20 (SS)                  -6.43840769 [mEh]      -4.04016182 [kcal/mol]     -16.90403705 [kJ/mol]
      Disp20 (OS)                  -6.43840769 [mEh]      -4.04016182 [kcal/mol]     -16.90403705 [kJ/mol]
      Exch-Disp20 (SS)              1.65448395 [mEh]       1.03820435 [kcal/mol]       4.34384702 [kJ/mol]
      Exch-Disp20 (OS)              0.98007625 [mEh]       0.61500713 [kcal/mol]       2.57318984 [kJ/mol]

  Total HF                        -12.34061769 [mEh]      -7.74385451 [kcal/mol]     -32.40028728 [kJ/mol]
  Total SAPT0                     -22.58287286 [mEh]     -14.17096666 [kcal/mol]     -59.29132452 [kJ/mol]

  Special recipe for scaled SAPT0 (see Manual):
    Electrostatics sSAPT0         -36.13318452 [mEh]     -22.67391561 [kcal/mol]     -94.86766290 [kJ/mol]
    Exchange sSAPT0                37.44004131 [mEh]      23.49398062 [kcal/mol]      98.29881492 [kJ/mol]
    Induction sSAPT0              -13.14663635 [mEh]      -8.24963886 [kcal/mol]     -34.51648899 [kJ/mol]
    Dispersion sSAPT0             -10.13691086 [mEh]      -6.36100760 [kcal/mol]     -26.61445580 [kJ/mol]
  Total sSAPT0                    -21.97669043 [mEh]     -13.79058145 [kcal/mol]     -57.69979277 [kJ/mol]
  --------------------------------------------------------------------------------------------------------

*** tstop() called on r282 at Fri Sep 10 17:39:56 2021
Module time:
	user time   =      53.13 seconds =       0.89 minutes
	system time =      10.63 seconds =       0.18 minutes
	total time  =         65 seconds =       1.08 minutes
Total time:
	user time   =     118.62 seconds =       1.98 minutes
	system time =      12.28 seconds =       0.20 minutes
	total time  =        132 seconds =       2.20 minutes

    Psi4 stopped on: Friday, 10 September 2021 05:39PM
    Psi4 wall time for execution: 0:02:11.84

*** Psi4 exiting successfully. Buy a developer a beer!
