
    -----------------------------------------------------------------------
          Psi4: An Open-Source Ab Initio Electronic Structure Package
                               Psi4 1.3.2 release

                         Git: Rev {HEAD} ecbda83 


    R. M. Parrish, L. A. Burns, D. G. A. Smith, A. C. Simmonett,
    A. E. DePrince III, E. G. Hohenstein, U. Bozkaya, A. Yu. Sokolov,
    R. Di Remigio, R. M. Richard, J. F. Gonthier, A. M. James,
    H. R. McAlexander, A. Kumar, M. Saitow, X. Wang, B. P. Pritchard,
    P. Verma, H. F. Schaefer III, K. Patkowski, R. A. King, E. F. Valeev,
    F. A. Evangelista, J. M. Turney, T. D. Crawford, and C. D. Sherrill,
    J. Chem. Theory Comput. 13(7) pp 3185--3197 (2017).
    (doi: 10.1021/acs.jctc.7b00174)


                         Additional Contributions by
    P. Kraus, H. Kruse, M. H. Lechner, M. C. Schieber, R. A. Shaw,
    A. Alenaizan, R. Galvelis, Z. L. Glick, S. Lehtola, and J. P. Misiewicz

    -----------------------------------------------------------------------


    Psi4 started on: Friday, 10 September 2021 05:22PM

    Process ID: 56899
    Host:       r282
    PSIDATADIR: /home/r08543048/miniconda3/share/psi4
    Memory:     500.0 MiB
    Threads:    1
    
  ==> Input File <==

--------------------------------------------------------------------------
# Any line starting with the # character is a comment line
#! Sample  computation

memory 22 gb

molecule Dimer {
0 1
 C -3.342805    0.794306   -0.182193
 C -2.505326   -0.279849    0.488188
 C -1.086056   -0.308012   -0.007102
 O -0.639716    0.443418   -0.861592
 O -0.359946   -1.255453    0.596723
 H -3.378194    0.641241   -1.258653
 H -4.360168    0.776895    0.204404
 H -2.921262    1.781296   -0.003885
 H -2.921054   -1.275909    0.326701
 H -2.466265   -0.146075    1.570597
 H  0.557546   -1.207397    0.224858




    
    
    
 --
0 1
 C  2.597703    1.023309    0.865269
 C  3.025317    0.055244   -0.220188
 O  1.919519   -0.679174   -0.756573
 H  1.896898    1.759095    0.470585
 H  3.463727    1.554261    1.260859
 H  2.114146    0.492375    1.684255
 
H  3.538175    0.582517   -1.027388
 
H  3.708666   -0.693850    0.174899
 
H  1.275928   -0.044766   -1.119529
 
 
 







units angstrom

no_reorient
symmetry c1
}

set globals{
  basis jun-cc-pvtz
}

energy('sapt0')


--------------------------------------------------------------------------

  Memory set to  20.489 GiB by Python driver.

  //>>>>>>>>>>>>>>>>>>>>>>>>>>>>>>>>>>>//
  //              Dimer HF             //
  //<<<<<<<<<<<<<<<<<<<<<<<<<<<<<<<<<<<//


*** tstart() called on r282
*** at Fri Sep 10 17:22:02 2021

   => Loading Basis Set <=

    Name: JUN-CC-PVTZ
    Role: ORBITAL
    Keyword: BASIS
    atoms 1-3, 12-13  entry C          line   217 file /home/r08543048/miniconda3/share/psi4/basis/jun-cc-pvtz.gbs 
    atoms 4-5, 14     entry O          line   305 file /home/r08543048/miniconda3/share/psi4/basis/jun-cc-pvtz.gbs 
    atoms 6-11, 15-20 entry H          line    36 file /home/r08543048/miniconda3/share/psi4/basis/jun-cc-pvtz.gbs 


         ---------------------------------------------------------
                                   SCF
               by Justin Turney, Rob Parrish, Andy Simmonett
                          and Daniel G. A. Smith
                              RHF Reference
                        1 Threads,  20980 MiB Core
         ---------------------------------------------------------

  ==> Geometry <==

    Molecular point group: c1
    Full point group: C1

    Geometry (in Angstrom), charge = 0, multiplicity = 1:

       Center              X                  Y                   Z               Mass       
    ------------   -----------------  -----------------  -----------------  -----------------
         C           -3.338567355658     0.829108878611    -0.161516020029    12.000000000000
         C           -2.501088355658    -0.245046121389     0.508864979971    12.000000000000
         C           -1.081818355658    -0.273209121389     0.013574979971    12.000000000000
         O           -0.635478355658     0.478220878611    -0.840915020029    15.994914619570
         O           -0.355708355658    -1.220650121389     0.617399979971    15.994914619570
         H           -3.373956355658     0.676043878611    -1.237976020029     1.007825032230
         H           -4.355930355658     0.811697878611     0.225080979971     1.007825032230
         H           -2.917024355658     1.816098878611     0.016791979971     1.007825032230
         H           -2.916816355658    -1.241106121389     0.347377979971     1.007825032230
         H           -2.462027355658    -0.111272121389     1.591273979971     1.007825032230
         H            0.561783644342    -1.172594121389     0.245534979971     1.007825032230
         C            2.601940644342     1.058111878611     0.885945979971    12.000000000000
         C            3.029554644342     0.090046878611    -0.199511020029    12.000000000000
         O            1.923756644342    -0.644371121389    -0.735896020029    15.994914619570
         H            1.901135644342     1.793897878611     0.491261979971     1.007825032230
         H            3.467964644342     1.589063878611     1.281535979971     1.007825032230
         H            2.118383644342     0.527177878611     1.704931979971     1.007825032230
         H            3.542412644342     0.617319878611    -1.006711020029     1.007825032230
         H            3.712903644342    -0.659047121389     0.195575979971     1.007825032230
         H            1.280165644342    -0.009963121389    -1.098852020029     1.007825032230

  Running in c1 symmetry.

  Rotational constants: A =      0.13748  B =      0.02653  C =      0.02568 [cm^-1]
  Rotational constants: A =   4121.56254  B =    795.49773  C =    769.80068 [MHz]
  Nuclear repulsion =  396.073783197466412

  Charge       = 0
  Multiplicity = 1
  Electrons    = 66
  Nalpha       = 33
  Nbeta        = 33

  ==> Algorithm <==

  SCF Algorithm Type is DF.
  DIIS enabled.
  MOM disabled.
  Fractional occupation disabled.
  Guess Type is SAD.
  Energy threshold   = 1.00e-08
  Density threshold  = 1.00e-08
  Integral threshold = 0.00e+00

  ==> Primary Basis <==

  Basis Set: JUN-CC-PVTZ
    Blend: JUN-CC-PVTZ
    Number of shells: 176
    Number of basis function: 480
    Number of Cartesian functions: 540
    Spherical Harmonics?: true
    Max angular momentum: 3

   => Loading Basis Set <=

    Name: (JUN-CC-PVTZ AUX)
    Role: JKFIT
    Keyword: DF_BASIS_SCF
    atoms 1-3, 12-13  entry C          line   152 file /home/r08543048/miniconda3/share/psi4/basis/jun-cc-pvtz-jkfit.gbs 
    atoms 4-5, 14     entry O          line   272 file /home/r08543048/miniconda3/share/psi4/basis/jun-cc-pvtz-jkfit.gbs 
    atoms 6-11, 15-20 entry H          line    70 file /home/r08543048/miniconda3/share/psi4/basis/jun-cc-pvtz-jkfit.gbs 

  ==> Pre-Iterations <==

   -------------------------------------------------------
    Irrep   Nso     Nmo     Nalpha   Nbeta   Ndocc  Nsocc
   -------------------------------------------------------
     A        480     480       0       0       0       0
   -------------------------------------------------------
    Total     480     480      33      33      33       0
   -------------------------------------------------------

  ==> Integral Setup <==

  ==> DiskDFJK: Density-Fitted J/K Matrices <==

    J tasked:                  Yes
    K tasked:                  Yes
    wK tasked:                  No
    OpenMP threads:              1
    Integrals threads:           1
    Memory [MiB]:            15735
    Algorithm:                Core
    Integral Cache:           SAVE
    Schwarz Cutoff:          1E-12
    Fitting Condition:       1E-10

   => Auxiliary Basis Set <=

  Basis Set: (JUN-CC-PVTZ AUX)
    Blend: JUN-CC-PVTZ-JKFIT
    Number of shells: 352
    Number of basis function: 1120
    Number of Cartesian functions: 1348
    Spherical Harmonics?: true
    Max angular momentum: 4

  Minimum eigenvalue in the overlap matrix is 3.8089051168E-05.
  Using Symmetric Orthogonalization.

  SCF Guess: Superposition of Atomic Densities via on-the-fly atomic UHF.

  ==> Iterations <==

                           Total Energy        Delta E     RMS |[F,P]|

   @DF-RHF iter SAD:  -419.73352175637018   -4.19734e+02   0.00000e+00 
   @DF-RHF iter   1:  -420.80207865485448   -1.06856e+00   1.63664e-03 DIIS
   @DF-RHF iter   2:  -421.04045201227211   -2.38373e-01   8.63795e-04 DIIS
   @DF-RHF iter   3:  -421.10154594344669   -6.10939e-02   1.63460e-04 DIIS
   @DF-RHF iter   4:  -421.10553502178806   -3.98908e-03   7.60047e-05 DIIS
   @DF-RHF iter   5:  -421.10625755559857   -7.22534e-04   1.54034e-05 DIIS
   @DF-RHF iter   6:  -421.10630936805956   -5.18125e-05   7.19982e-06 DIIS
   @DF-RHF iter   7:  -421.10631880465974   -9.43660e-06   2.33530e-06 DIIS
   @DF-RHF iter   8:  -421.10632063939494   -1.83474e-06   9.29261e-07 DIIS
   @DF-RHF iter   9:  -421.10632094082604   -3.01431e-07   2.44198e-07 DIIS
   @DF-RHF iter  10:  -421.10632096079269   -1.99666e-08   7.78271e-08 DIIS
   @DF-RHF iter  11:  -421.10632096226357   -1.47088e-09   2.24860e-08 DIIS
   @DF-RHF iter  12:  -421.10632096236640   -1.02830e-10   9.23080e-09 DIIS
  Energy and wave function converged.


  ==> Post-Iterations <==

    Orbital Energies [Eh]
    ---------------------

    Doubly Occupied:                                                      

       1A    -20.595277     2A    -20.562948     3A    -20.547263  
       4A    -11.384608     5A    -11.280119     6A    -11.244195  
       7A    -11.220002     8A    -11.219896     9A     -1.455866  
      10A     -1.364930    11A     -1.352174    12A     -1.064780  
      13A     -1.018778    14A     -0.912198    15A     -0.855192  
      16A     -0.787956    17A     -0.714934    18A     -0.692032  
      19A     -0.679195    20A     -0.657327    21A     -0.630498  
      22A     -0.618980    23A     -0.586681    24A     -0.585445  
      25A     -0.553231    26A     -0.533674    27A     -0.526171  
      28A     -0.523058    29A     -0.502186    30A     -0.490723  
      31A     -0.477406    32A     -0.459163    33A     -0.444525  

    Virtual:                                                              

      34A      0.048606    35A      0.056791    36A      0.059893  
      37A      0.061308    38A      0.076117    39A      0.077447  
      40A      0.079210    41A      0.098893    42A      0.101063  
      43A      0.105347    44A      0.112618    45A      0.113849  
      46A      0.116849    47A      0.119469    48A      0.143932  
      49A      0.152480    50A      0.156595    51A      0.175866  
      52A      0.185250    53A      0.194986    54A      0.202505  
      55A      0.210864    56A      0.212400    57A      0.226637  
      58A      0.236325    59A      0.247335    60A      0.251045  
      61A      0.257223    62A      0.264399    63A      0.269354  
      64A      0.274583    65A      0.280377    66A      0.290485  
      67A      0.293375    68A      0.301394    69A      0.304006  
      70A      0.308109    71A      0.313323    72A      0.315872  
      73A      0.324522    74A      0.327315    75A      0.335322  
      76A      0.342288    77A      0.345146    78A      0.350205  
      79A      0.355129    80A      0.368220    81A      0.370216  
      82A      0.379832    83A      0.395599    84A      0.398877  
      85A      0.412121    86A      0.423864    87A      0.432814  
      88A      0.441977    89A      0.450780    90A      0.452306  
      91A      0.459741    92A      0.470788    93A      0.484553  
      94A      0.494880    95A      0.501295    96A      0.503343  
      97A      0.511020    98A      0.517450    99A      0.522469  
     100A      0.529161   101A      0.532130   102A      0.540056  
     103A      0.550502   104A      0.569671   105A      0.578560  
     106A      0.589081   107A      0.602084   108A      0.623037  
     109A      0.630300   110A      0.640673   111A      0.651500  
     112A      0.677959   113A      0.688685   114A      0.694420  
     115A      0.702172   116A      0.711012   117A      0.719700  
     118A      0.724772   119A      0.726983   120A      0.734964  
     121A      0.751400   122A      0.766095   123A      0.769876  
     124A      0.781183   125A      0.784733   126A      0.792803  
     127A      0.793918   128A      0.803866   129A      0.818451  
     130A      0.820341   131A      0.834262   132A      0.840053  
     133A      0.853895   134A      0.865787   135A      0.875848  
     136A      0.881572   137A      0.886018   138A      0.892653  
     139A      0.908150   140A      0.909640   141A      0.924028  
     142A      0.934971   143A      0.954135   144A      0.956734  
     145A      0.962296   146A      0.985008   147A      0.989855  
     148A      1.009960   149A      1.010756   150A      1.026531  
     151A      1.057445   152A      1.064984   153A      1.068549  
     154A      1.079276   155A      1.085359   156A      1.105825  
     157A      1.113137   158A      1.135656   159A      1.136621  
     160A      1.146957   161A      1.189836   162A      1.200239  
     163A      1.207270   164A      1.220059   165A      1.240692  
     166A      1.259137   167A      1.274838   168A      1.296740  
     169A      1.307667   170A      1.311177   171A      1.320820  
     172A      1.340920   173A      1.348772   174A      1.352323  
     175A      1.361306   176A      1.370575   177A      1.378212  
     178A      1.394579   179A      1.404993   180A      1.411254  
     181A      1.426864   182A      1.439703   183A      1.442622  
     184A      1.451130   185A      1.462437   186A      1.478977  
     187A      1.483074   188A      1.495077   189A      1.499379  
     190A      1.501328   191A      1.523306   192A      1.538996  
     193A      1.541253   194A      1.551696   195A      1.567491  
     196A      1.579819   197A      1.599353   198A      1.610449  
     199A      1.612609   200A      1.626258   201A      1.635760  
     202A      1.662337   203A      1.673312   204A      1.673652  
     205A      1.682273   206A      1.692015   207A      1.733424  
     208A      1.743745   209A      1.752633   210A      1.780393  
     211A      1.796409   212A      1.802682   213A      1.810930  
     214A      1.822280   215A      1.839336   216A      1.866459  
     217A      1.876536   218A      1.903548   219A      1.915038  
     220A      1.922199   221A      1.929503   222A      1.966992  
     223A      1.993086   224A      2.039536   225A      2.099850  
     226A      2.109784   227A      2.184348   228A      2.240018  
     229A      2.258936   230A      2.316636   231A      2.343773  
     232A      2.377465   233A      2.396878   234A      2.443969  
     235A      2.456478   236A      2.456721   237A      2.525034  
     238A      2.552053   239A      2.592196   240A      2.623231  
     241A      2.652498   242A      2.678954   243A      2.687348  
     244A      2.753892   245A      2.790542   246A      2.801368  
     247A      2.811526   248A      2.850262   249A      2.861555  
     250A      2.886850   251A      2.890863   252A      2.903918  
     253A      2.926851   254A      2.938141   255A      2.968733  
     256A      2.990970   257A      3.021686   258A      3.027882  
     259A      3.032979   260A      3.061208   261A      3.070789  
     262A      3.082161   263A      3.085690   264A      3.116506  
     265A      3.131666   266A      3.133664   267A      3.153466  
     268A      3.194926   269A      3.218886   270A      3.223000  
     271A      3.238339   272A      3.244944   273A      3.272658  
     274A      3.282735   275A      3.305927   276A      3.314378  
     277A      3.318143   278A      3.338747   279A      3.358275  
     280A      3.376322   281A      3.379355   282A      3.383794  
     283A      3.401492   284A      3.430872   285A      3.436006  
     286A      3.446246   287A      3.465988   288A      3.475572  
     289A      3.479507   290A      3.488386   291A      3.495431  
     292A      3.501863   293A      3.511213   294A      3.524066  
     295A      3.526718   296A      3.541369   297A      3.554740  
     298A      3.568507   299A      3.578510   300A      3.609262  
     301A      3.626912   302A      3.630678   303A      3.650735  
     304A      3.661044   305A      3.667870   306A      3.682719  
     307A      3.697220   308A      3.706948   309A      3.739737  
     310A      3.748532   311A      3.772690   312A      3.791481  
     313A      3.800649   314A      3.805024   315A      3.813925  
     316A      3.833010   317A      3.841451   318A      3.852607  
     319A      3.871409   320A      3.884411   321A      3.893139  
     322A      3.903474   323A      3.916219   324A      3.927425  
     325A      3.953758   326A      3.966899   327A      3.984814  
     328A      4.020642   329A      4.039934   330A      4.052048  
     331A      4.069365   332A      4.075167   333A      4.097857  
     334A      4.127499   335A      4.183847   336A      4.213037  
     337A      4.215883   338A      4.229384   339A      4.235371  
     340A      4.238614   341A      4.250777   342A      4.269534  
     343A      4.291271   344A      4.303709   345A      4.309416  
     346A      4.316679   347A      4.336772   348A      4.350203  
     349A      4.358168   350A      4.370086   351A      4.379554  
     352A      4.402016   353A      4.411632   354A      4.424728  
     355A      4.440352   356A      4.447406   357A      4.456113  
     358A      4.468283   359A      4.480999   360A      4.488266  
     361A      4.493488   362A      4.509363   363A      4.520537  
     364A      4.546079   365A      4.578896   366A      4.582521  
     367A      4.599951   368A      4.607188   369A      4.628714  
     370A      4.640706   371A      4.651447   372A      4.668674  
     373A      4.684700   374A      4.695755   375A      4.718562  
     376A      4.734318   377A      4.750982   378A      4.758917  
     379A      4.807943   380A      4.823777   381A      4.831291  
     382A      4.853328   383A      4.886423   384A      4.891034  
     385A      4.919738   386A      4.943066   387A      4.968491  
     388A      5.055036   389A      5.073141   390A      5.100028  
     391A      5.135691   392A      5.140941   393A      5.158176  
     394A      5.189043   395A      5.228521   396A      5.249492  
     397A      5.255278   398A      5.273719   399A      5.276304  
     400A      5.278008   401A      5.306199   402A      5.308393  
     403A      5.321230   404A      5.337410   405A      5.358881  
     406A      5.413643   407A      5.452679   408A      5.458097  
     409A      5.491471   410A      5.570738   411A      5.579316  
     412A      5.613999   413A      5.617413   414A      5.634988  
     415A      5.649250   416A      5.659884   417A      5.726414  
     418A      5.732751   419A      5.738511   420A      5.739538  
     421A      5.771631   422A      5.782286   423A      5.813109  
     424A      5.825723   425A      5.849498   426A      5.865050  
     427A      5.895482   428A      5.904359   429A      5.915652  
     430A      5.953818   431A      5.979624   432A      5.992840  
     433A      6.034027   434A      6.063442   435A      6.071473  
     436A      6.174814   437A      6.274339   438A      6.309133  
     439A      6.389173   440A      6.461343   441A      6.473876  
     442A      6.480431   443A      6.496796   444A      6.501528  
     445A      6.549000   446A      6.561912   447A      6.747597  
     448A      6.758082   449A      6.927277   450A      6.971799  
     451A      6.987535   452A      7.042257   453A      7.106847  
     454A      7.195926   455A      7.224230   456A      7.294170  
     457A      7.316460   458A      7.322622   459A      7.369792  
     460A      7.411708   461A      7.429852   462A      7.453191  
     463A      7.456487   464A      7.621334   465A      7.670753  
     466A      7.717015   467A      7.781369   468A      7.874477  
     469A      7.890902   470A      8.003906   471A      8.138990  
     472A      8.309992   473A     12.188912   474A     13.710014  
     475A     13.792396   476A     13.903949   477A     14.144908  
     478A     14.477035   479A     14.693882   480A     14.754250  

    Final Occupation by Irrep:
              A 
    DOCC [    33 ]

  @DF-RHF Final Energy:  -421.10632096236640

   => Energetics <=

    Nuclear Repulsion Energy =            396.0737831974664118
    One-Electron Energy =               -1361.2773960387639818
    Two-Electron Energy =                 544.0972918789312871
    Total Energy =                       -421.1063209623663397

Computation Completed


Properties will be evaluated at   0.000000,   0.000000,   0.000000 [a0]

Properties computed using the SCF density matrix

  Nuclear Dipole Moment: [e a0]
     X:     0.5285      Y:     4.3407      Z:     2.5789

  Electronic Dipole Moment: [e a0]
     X:    -0.5780      Y:    -4.0298      Z:    -2.0366

  Dipole Moment: [e a0]
     X:    -0.0495      Y:     0.3109      Z:     0.5423     Total:     0.6270

  Dipole Moment: [D]
     X:    -0.1257      Y:     0.7902      Z:     1.3783     Total:     1.5938


*** tstop() called on r282 at Fri Sep 10 17:22:58 2021
Module time:
	user time   =      54.61 seconds =       0.91 minutes
	system time =       1.24 seconds =       0.02 minutes
	total time  =         56 seconds =       0.93 minutes
Total time:
	user time   =      54.61 seconds =       0.91 minutes
	system time =       1.24 seconds =       0.02 minutes
	total time  =         56 seconds =       0.93 minutes

  //>>>>>>>>>>>>>>>>>>>>>>>>>>>>>>>>>>>//
  //            Monomer A HF           //
  //<<<<<<<<<<<<<<<<<<<<<<<<<<<<<<<<<<<//


*** tstart() called on r282
*** at Fri Sep 10 17:22:58 2021

   => Loading Basis Set <=

    Name: JUN-CC-PVTZ
    Role: ORBITAL
    Keyword: BASIS
    atoms 1-3, 12-13  entry C          line   217 file /home/r08543048/miniconda3/share/psi4/basis/jun-cc-pvtz.gbs 
    atoms 4-5, 14     entry O          line   305 file /home/r08543048/miniconda3/share/psi4/basis/jun-cc-pvtz.gbs 
    atoms 6-11, 15-20 entry H          line    36 file /home/r08543048/miniconda3/share/psi4/basis/jun-cc-pvtz.gbs 


         ---------------------------------------------------------
                                   SCF
               by Justin Turney, Rob Parrish, Andy Simmonett
                          and Daniel G. A. Smith
                              RHF Reference
                        1 Threads,  20980 MiB Core
         ---------------------------------------------------------

  ==> Geometry <==

    Molecular point group: c1
    Full point group: C1

    Geometry (in Angstrom), charge = 0, multiplicity = 1:

       Center              X                  Y                   Z               Mass       
    ------------   -----------------  -----------------  -----------------  -----------------
         C           -3.338567355658     0.829108878611    -0.161516020029    12.000000000000
         C           -2.501088355658    -0.245046121389     0.508864979971    12.000000000000
         C           -1.081818355658    -0.273209121389     0.013574979971    12.000000000000
         O           -0.635478355658     0.478220878611    -0.840915020029    15.994914619570
         O           -0.355708355658    -1.220650121389     0.617399979971    15.994914619570
         H           -3.373956355658     0.676043878611    -1.237976020029     1.007825032230
         H           -4.355930355658     0.811697878611     0.225080979971     1.007825032230
         H           -2.917024355658     1.816098878611     0.016791979971     1.007825032230
         H           -2.916816355658    -1.241106121389     0.347377979971     1.007825032230
         H           -2.462027355658    -0.111272121389     1.591273979971     1.007825032230
         H            0.561783644342    -1.172594121389     0.245534979971     1.007825032230
      Gh(C)           2.601940644342     1.058111878611     0.885945979971    12.000000000000
      Gh(C)           3.029554644342     0.090046878611    -0.199511020029    12.000000000000
      Gh(O)           1.923756644342    -0.644371121389    -0.735896020029    15.994914619570
      Gh(H)           1.901135644342     1.793897878611     0.491261979971     1.007825032230
      Gh(H)           3.467964644342     1.589063878611     1.281535979971     1.007825032230
      Gh(H)           2.118383644342     0.527177878611     1.704931979971     1.007825032230
      Gh(H)           3.542412644342     0.617319878611    -1.006711020029     1.007825032230
      Gh(H)           3.712903644342    -0.659047121389     0.195575979971     1.007825032230
      Gh(H)           1.280165644342    -0.009963121389    -1.098852020029     1.007825032230

  Running in c1 symmetry.

  Rotational constants: A =      0.13748  B =      0.02653  C =      0.02568 [cm^-1]
  Rotational constants: A =   4121.56254  B =    795.49773  C =    769.80068 [MHz]
  Nuclear repulsion =  178.619806523404918

  Charge       = 0
  Multiplicity = 1
  Electrons    = 40
  Nalpha       = 20
  Nbeta        = 20

  ==> Algorithm <==

  SCF Algorithm Type is DF.
  DIIS enabled.
  MOM disabled.
  Fractional occupation disabled.
  Guess Type is SAD.
  Energy threshold   = 1.00e-08
  Density threshold  = 1.00e-08
  Integral threshold = 0.00e+00

  ==> Primary Basis <==

  Basis Set: JUN-CC-PVTZ
    Blend: JUN-CC-PVTZ
    Number of shells: 176
    Number of basis function: 480
    Number of Cartesian functions: 540
    Spherical Harmonics?: true
    Max angular momentum: 3

   => Loading Basis Set <=

    Name: (JUN-CC-PVTZ AUX)
    Role: JKFIT
    Keyword: DF_BASIS_SCF
    atoms 1-3, 12-13  entry C          line   152 file /home/r08543048/miniconda3/share/psi4/basis/jun-cc-pvtz-jkfit.gbs 
    atoms 4-5, 14     entry O          line   272 file /home/r08543048/miniconda3/share/psi4/basis/jun-cc-pvtz-jkfit.gbs 
    atoms 6-11, 15-20 entry H          line    70 file /home/r08543048/miniconda3/share/psi4/basis/jun-cc-pvtz-jkfit.gbs 

  ==> Pre-Iterations <==

   -------------------------------------------------------
    Irrep   Nso     Nmo     Nalpha   Nbeta   Ndocc  Nsocc
   -------------------------------------------------------
     A        480     480       0       0       0       0
   -------------------------------------------------------
    Total     480     480      20      20      20       0
   -------------------------------------------------------

  ==> Integral Setup <==

  ==> DiskDFJK: Density-Fitted J/K Matrices <==

    J tasked:                  Yes
    K tasked:                  Yes
    wK tasked:                  No
    OpenMP threads:              1
    Integrals threads:           1
    Memory [MiB]:            15735
    Algorithm:                Core
    Integral Cache:           LOAD
    Schwarz Cutoff:          1E-12
    Fitting Condition:       1E-10

   => Auxiliary Basis Set <=

  Basis Set: (JUN-CC-PVTZ AUX)
    Blend: JUN-CC-PVTZ-JKFIT
    Number of shells: 352
    Number of basis function: 1120
    Number of Cartesian functions: 1348
    Spherical Harmonics?: true
    Max angular momentum: 4

  Minimum eigenvalue in the overlap matrix is 3.8089051168E-05.
  Using Symmetric Orthogonalization.

  SCF Guess: Superposition of Atomic Densities via on-the-fly atomic UHF.

  ==> Iterations <==

                           Total Energy        Delta E     RMS |[F,P]|

   @DF-RHF iter SAD:  -266.05743140012078   -2.66057e+02   0.00000e+00 
   @DF-RHF iter   1:  -266.74902637351266   -6.91595e-01   1.35545e-03 DIIS
   @DF-RHF iter   2:  -266.89660405425167   -1.47578e-01   8.04286e-04 DIIS
   @DF-RHF iter   3:  -266.94727448765104   -5.06704e-02   1.43638e-04 DIIS
   @DF-RHF iter   4:  -266.95011355298021   -2.83907e-03   6.78711e-05 DIIS
   @DF-RHF iter   5:  -266.95074583159504   -6.32279e-04   1.34712e-05 DIIS
   @DF-RHF iter   6:  -266.95079075693627   -4.49253e-05   6.55611e-06 DIIS
   @DF-RHF iter   7:  -266.95079984902287   -9.09209e-06   2.37821e-06 DIIS
   @DF-RHF iter   8:  -266.95080175725298   -1.90823e-06   8.55753e-07 DIIS
   @DF-RHF iter   9:  -266.95080202556790   -2.68315e-07   2.01649e-07 DIIS
   @DF-RHF iter  10:  -266.95080203916513   -1.35972e-08   6.15826e-08 DIIS
   @DF-RHF iter  11:  -266.95080203998793   -8.22808e-10   1.56868e-08 DIIS
   @DF-RHF iter  12:  -266.95080204004768   -5.97424e-11   3.62149e-09 DIIS
  Energy and wave function converged.


  ==> Post-Iterations <==

    Orbital Energies [Eh]
    ---------------------

    Doubly Occupied:                                                      

       1A    -20.620651     2A    -20.546979     3A    -11.386498  
       4A    -11.247836     5A    -11.221284     6A     -1.465622  
       7A     -1.355191     8A     -1.067282     9A     -0.916240  
      10A     -0.797958    11A     -0.703828    12A     -0.689822  
      13A     -0.662772    14A     -0.595242    15A     -0.593861  
      16A     -0.534861    17A     -0.524971    18A     -0.505197  
      19A     -0.479540    20A     -0.451501  

    Virtual:                                                              

      21A      0.035817    22A      0.047147    23A      0.053511  
      24A      0.058529    25A      0.071056    26A      0.074355  
      27A      0.075932    28A      0.096982    29A      0.098662  
      30A      0.104096    31A      0.106256    32A      0.111666  
      33A      0.112797    34A      0.116668    35A      0.140943  
      36A      0.145743    37A      0.152279    38A      0.154746  
      39A      0.167737    40A      0.177851    41A      0.190025  
      42A      0.196540    43A      0.202803    44A      0.212515  
      45A      0.214381    46A      0.226526    47A      0.238629  
      48A      0.244429    49A      0.248532    50A      0.256853  
      51A      0.261069    52A      0.270628    53A      0.284678  
      54A      0.292437    55A      0.299561    56A      0.306668  
      57A      0.307309    58A      0.316142    59A      0.318351  
      60A      0.320661    61A      0.333211    62A      0.335770  
      63A      0.337656    64A      0.349165    65A      0.351355  
      66A      0.364074    67A      0.371526    68A      0.377162  
      69A      0.386194    70A      0.401832    71A      0.411870  
      72A      0.416032    73A      0.422113    74A      0.429783  
      75A      0.439022    76A      0.442116    77A      0.455699  
      78A      0.465996    79A      0.467839    80A      0.480990  
      81A      0.484794    82A      0.495173    83A      0.501064  
      84A      0.515300    85A      0.517127    86A      0.530507  
      87A      0.535388    88A      0.537643    89A      0.549987  
      90A      0.553046    91A      0.563029    92A      0.570723  
      93A      0.574864    94A      0.589889    95A      0.607785  
      96A      0.626628    97A      0.632706    98A      0.636978  
      99A      0.657217   100A      0.666322   101A      0.679801  
     102A      0.685045   103A      0.694281   104A      0.709131  
     105A      0.717615   106A      0.723150   107A      0.735886  
     108A      0.742133   109A      0.763860   110A      0.780059  
     111A      0.786788   112A      0.790991   113A      0.797696  
     114A      0.809977   115A      0.819115   116A      0.825940  
     117A      0.851414   118A      0.863950   119A      0.873678  
     120A      0.884813   121A      0.896043   122A      0.899315  
     123A      0.920108   124A      0.926031   125A      0.938109  
     126A      0.949066   127A      0.967565   128A      0.971748  
     129A      0.989141   130A      0.999392   131A      1.008627  
     132A      1.030830   133A      1.045570   134A      1.056488  
     135A      1.064791   136A      1.071124   137A      1.077604  
     138A      1.082249   139A      1.110116   140A      1.121496  
     141A      1.130271   142A      1.135725   143A      1.156046  
     144A      1.170597   145A      1.177943   146A      1.200080  
     147A      1.206545   148A      1.209931   149A      1.220584  
     150A      1.233017   151A      1.249285   152A      1.259531  
     153A      1.272967   154A      1.277364   155A      1.290585  
     156A      1.306178   157A      1.321355   158A      1.326108  
     159A      1.333577   160A      1.344869   161A      1.351914  
     162A      1.368368   163A      1.371982   164A      1.387266  
     165A      1.395893   166A      1.416270   167A      1.426654  
     168A      1.434444   169A      1.439591   170A      1.449395  
     171A      1.459809   172A      1.475818   173A      1.481906  
     174A      1.492281   175A      1.504233   176A      1.513446  
     177A      1.524129   178A      1.530711   179A      1.543644  
     180A      1.554449   181A      1.569890   182A      1.590792  
     183A      1.596985   184A      1.605408   185A      1.621754  
     186A      1.627939   187A      1.645688   188A      1.650095  
     189A      1.678974   190A      1.684034   191A      1.700009  
     192A      1.721984   193A      1.743166   194A      1.773052  
     195A      1.776654   196A      1.802106   197A      1.805683  
     198A      1.817151   199A      1.820338   200A      1.843709  
     201A      1.860447   202A      1.902581   203A      1.908215  
     204A      1.915146   205A      1.924819   206A      1.961612  
     207A      1.986136   208A      1.999297   209A      2.044401  
     210A      2.076827   211A      2.085736   212A      2.094903  
     213A      2.147791   214A      2.193308   215A      2.235487  
     216A      2.243855   217A      2.285260   218A      2.313811  
     219A      2.325402   220A      2.359707   221A      2.385982  
     222A      2.412948   223A      2.426268   224A      2.454919  
     225A      2.481444   226A      2.504787   227A      2.522725  
     228A      2.551564   229A      2.634491   230A      2.641600  
     231A      2.662573   232A      2.686705   233A      2.740566  
     234A      2.811208   235A      2.832746   236A      2.838324  
     237A      2.858962   238A      2.890641   239A      2.905148  
     240A      2.913692   241A      2.940745   242A      2.942573  
     243A      2.975464   244A      3.024872   245A      3.028482  
     246A      3.044952   247A      3.055389   248A      3.101237  
     249A      3.112931   250A      3.115668   251A      3.131290  
     252A      3.168541   253A      3.192192   254A      3.240221  
     255A      3.243148   256A      3.287286   257A      3.307600  
     258A      3.328140   259A      3.350333   260A      3.375022  
     261A      3.379320   262A      3.409180   263A      3.441798  
     264A      3.469978   265A      3.474141   266A      3.485318  
     267A      3.496053   268A      3.497213   269A      3.511736  
     270A      3.546820   271A      3.552020   272A      3.566003  
     273A      3.596445   274A      3.604347   275A      3.614772  
     276A      3.618019   277A      3.635651   278A      3.647991  
     279A      3.650219   280A      3.658181   281A      3.675638  
     282A      3.677480   283A      3.721334   284A      3.733728  
     285A      3.741081   286A      3.753360   287A      3.777606  
     288A      3.788703   289A      3.807014   290A      3.810896  
     291A      3.829522   292A      3.843029   293A      3.857563  
     294A      3.868228   295A      3.878888   296A      3.888173  
     297A      3.898600   298A      3.911526   299A      3.943560  
     300A      3.965460   301A      3.973566   302A      3.994818  
     303A      4.025802   304A      4.043011   305A      4.068653  
     306A      4.080695   307A      4.107180   308A      4.116249  
     309A      4.164137   310A      4.188625   311A      4.210657  
     312A      4.217445   313A      4.231456   314A      4.245955  
     315A      4.246458   316A      4.278056   317A      4.299826  
     318A      4.314213   319A      4.324214   320A      4.331066  
     321A      4.339166   322A      4.356533   323A      4.365209  
     324A      4.374667   325A      4.385933   326A      4.413595  
     327A      4.430217   328A      4.439162   329A      4.443251  
     330A      4.458463   331A      4.478218   332A      4.483706  
     333A      4.509393   334A      4.520796   335A      4.527135  
     336A      4.535326   337A      4.572386   338A      4.582129  
     339A      4.621394   340A      4.630520   341A      4.635286  
     342A      4.658123   343A      4.675423   344A      4.682459  
     345A      4.705706   346A      4.708965   347A      4.720237  
     348A      4.730967   349A      4.742303   350A      4.755326  
     351A      4.757295   352A      4.780529   353A      4.783098  
     354A      4.800094   355A      4.805730   356A      4.831419  
     357A      4.853901   358A      4.865600   359A      4.866638  
     360A      4.891590   361A      4.920712   362A      4.931930  
     363A      4.938673   364A      4.947871   365A      4.955145  
     366A      4.964082   367A      4.987736   368A      4.995894  
     369A      5.021313   370A      5.044299   371A      5.075309  
     372A      5.081080   373A      5.118459   374A      5.129800  
     375A      5.139207   376A      5.155729   377A      5.197028  
     378A      5.220187   379A      5.251568   380A      5.267816  
     381A      5.275406   382A      5.286205   383A      5.299282  
     384A      5.311603   385A      5.319375   386A      5.355895  
     387A      5.413255   388A      5.455471   389A      5.476730  
     390A      5.493456   391A      5.557507   392A      5.589298  
     393A      5.611339   394A      5.629524   395A      5.648000  
     396A      5.675382   397A      5.714472   398A      5.730246  
     399A      5.738565   400A      5.739230   401A      5.789088  
     402A      5.810634   403A      5.818569   404A      5.838766  
     405A      5.890917   406A      5.901715   407A      5.907506  
     408A      5.922701   409A      5.968964   410A      6.004481  
     411A      6.032486   412A      6.055428   413A      6.066151  
     414A      6.156762   415A      6.166704   416A      6.188233  
     417A      6.292128   418A      6.305987   419A      6.327201  
     420A      6.357461   421A      6.445234   422A      6.471025  
     423A      6.488463   424A      6.494588   425A      6.503092  
     426A      6.556299   427A      6.714032   428A      6.746141  
     429A      6.758434   430A      6.865684   431A      6.931415  
     432A      6.960801   433A      6.993214   434A      7.077882  
     435A      7.118072   436A      7.206194   437A      7.290264  
     438A      7.301487   439A      7.315246   440A      7.369053  
     441A      7.393833   442A      7.407796   443A      7.441817  
     444A      7.458786   445A      7.479718   446A      7.553984  
     447A      7.623291   448A      7.660283   449A      7.695738  
     450A      7.751095   451A      7.773785   452A      7.800213  
     453A      7.860881   454A      7.910204   455A      7.961509  
     456A      7.990795   457A      8.009919   458A      8.188041  
     459A      8.295255   460A      8.318462   461A      8.498132  
     462A      9.507237   463A      9.753936   464A      9.875828  
     465A      9.936172   466A     10.112079   467A     10.202237  
     468A     10.369560   469A     11.166836   470A     11.708402  
     471A     12.202946   472A     12.745476   473A     13.588294  
     474A     13.896433   475A     14.142122   476A     14.473135  
     477A     14.700207   478A     44.290023   479A     45.757529  
     480A     61.064674  

    Final Occupation by Irrep:
              A 
    DOCC [    20 ]

  @DF-RHF Final Energy:  -266.95080204004768

   => Energetics <=

    Nuclear Repulsion Energy =            178.6198065234049182
    One-Electron Energy =                -718.4069498334172295
    Two-Electron Energy =                 272.8363412699646346
    Total Energy =                       -266.9508020400476767

Computation Completed


Properties will be evaluated at   0.000000,   0.000000,   0.000000 [a0]

Properties computed using the SCF density matrix

  Nuclear Dipole Moment: [e a0]
     X:  -122.6854      Y:    -6.2275      Z:     2.9584

  Electronic Dipole Moment: [e a0]
     X:   122.3972      Y:     5.7545      Z:    -2.4127

  Dipole Moment: [e a0]
     X:    -0.2882      Y:    -0.4730      Z:     0.5457     Total:     0.7775

  Dipole Moment: [D]
     X:    -0.7325      Y:    -1.2022      Z:     1.3871     Total:     1.9763


*** tstop() called on r282 at Fri Sep 10 17:23:33 2021
Module time:
	user time   =      34.51 seconds =       0.58 minutes
	system time =       0.65 seconds =       0.01 minutes
	total time  =         35 seconds =       0.58 minutes
Total time:
	user time   =      89.12 seconds =       1.49 minutes
	system time =       1.89 seconds =       0.03 minutes
	total time  =         91 seconds =       1.52 minutes

  //>>>>>>>>>>>>>>>>>>>>>>>>>>>>>>>>>>>//
  //            Monomer B HF           //
  //<<<<<<<<<<<<<<<<<<<<<<<<<<<<<<<<<<<//


*** tstart() called on r282
*** at Fri Sep 10 17:23:33 2021

   => Loading Basis Set <=

    Name: JUN-CC-PVTZ
    Role: ORBITAL
    Keyword: BASIS
    atoms 1-3, 12-13  entry C          line   217 file /home/r08543048/miniconda3/share/psi4/basis/jun-cc-pvtz.gbs 
    atoms 4-5, 14     entry O          line   305 file /home/r08543048/miniconda3/share/psi4/basis/jun-cc-pvtz.gbs 
    atoms 6-11, 15-20 entry H          line    36 file /home/r08543048/miniconda3/share/psi4/basis/jun-cc-pvtz.gbs 


         ---------------------------------------------------------
                                   SCF
               by Justin Turney, Rob Parrish, Andy Simmonett
                          and Daniel G. A. Smith
                              RHF Reference
                        1 Threads,  20980 MiB Core
         ---------------------------------------------------------

  ==> Geometry <==

    Molecular point group: c1
    Full point group: C1

    Geometry (in Angstrom), charge = 0, multiplicity = 1:

       Center              X                  Y                   Z               Mass       
    ------------   -----------------  -----------------  -----------------  -----------------
      Gh(C)          -3.338567355658     0.829108878611    -0.161516020029    12.000000000000
      Gh(C)          -2.501088355658    -0.245046121389     0.508864979971    12.000000000000
      Gh(C)          -1.081818355658    -0.273209121389     0.013574979971    12.000000000000
      Gh(O)          -0.635478355658     0.478220878611    -0.840915020029    15.994914619570
      Gh(O)          -0.355708355658    -1.220650121389     0.617399979971    15.994914619570
      Gh(H)          -3.373956355658     0.676043878611    -1.237976020029     1.007825032230
      Gh(H)          -4.355930355658     0.811697878611     0.225080979971     1.007825032230
      Gh(H)          -2.917024355658     1.816098878611     0.016791979971     1.007825032230
      Gh(H)          -2.916816355658    -1.241106121389     0.347377979971     1.007825032230
      Gh(H)          -2.462027355658    -0.111272121389     1.591273979971     1.007825032230
      Gh(H)           0.561783644342    -1.172594121389     0.245534979971     1.007825032230
         C            2.601940644342     1.058111878611     0.885945979971    12.000000000000
         C            3.029554644342     0.090046878611    -0.199511020029    12.000000000000
         O            1.923756644342    -0.644371121389    -0.735896020029    15.994914619570
         H            1.901135644342     1.793897878611     0.491261979971     1.007825032230
         H            3.467964644342     1.589063878611     1.281535979971     1.007825032230
         H            2.118383644342     0.527177878611     1.704931979971     1.007825032230
         H            3.542412644342     0.617319878611    -1.006711020029     1.007825032230
         H            3.712903644342    -0.659047121389     0.195575979971     1.007825032230
         H            1.280165644342    -0.009963121389    -1.098852020029     1.007825032230

  Running in c1 symmetry.

  Rotational constants: A =      0.13748  B =      0.02653  C =      0.02568 [cm^-1]
  Rotational constants: A =   4121.56254  B =    795.49773  C =    769.80068 [MHz]
  Nuclear repulsion =   81.633025570383424

  Charge       = 0
  Multiplicity = 1
  Electrons    = 26
  Nalpha       = 13
  Nbeta        = 13

  ==> Algorithm <==

  SCF Algorithm Type is DF.
  DIIS enabled.
  MOM disabled.
  Fractional occupation disabled.
  Guess Type is SAD.
  Energy threshold   = 1.00e-08
  Density threshold  = 1.00e-08
  Integral threshold = 0.00e+00

  ==> Primary Basis <==

  Basis Set: JUN-CC-PVTZ
    Blend: JUN-CC-PVTZ
    Number of shells: 176
    Number of basis function: 480
    Number of Cartesian functions: 540
    Spherical Harmonics?: true
    Max angular momentum: 3

   => Loading Basis Set <=

    Name: (JUN-CC-PVTZ AUX)
    Role: JKFIT
    Keyword: DF_BASIS_SCF
    atoms 1-3, 12-13  entry C          line   152 file /home/r08543048/miniconda3/share/psi4/basis/jun-cc-pvtz-jkfit.gbs 
    atoms 4-5, 14     entry O          line   272 file /home/r08543048/miniconda3/share/psi4/basis/jun-cc-pvtz-jkfit.gbs 
    atoms 6-11, 15-20 entry H          line    70 file /home/r08543048/miniconda3/share/psi4/basis/jun-cc-pvtz-jkfit.gbs 

  ==> Pre-Iterations <==

   -------------------------------------------------------
    Irrep   Nso     Nmo     Nalpha   Nbeta   Ndocc  Nsocc
   -------------------------------------------------------
     A        480     480       0       0       0       0
   -------------------------------------------------------
    Total     480     480      13      13      13       0
   -------------------------------------------------------

  ==> Integral Setup <==

  ==> DiskDFJK: Density-Fitted J/K Matrices <==

    J tasked:                  Yes
    K tasked:                  Yes
    wK tasked:                  No
    OpenMP threads:              1
    Integrals threads:           1
    Memory [MiB]:            15735
    Algorithm:                Core
    Integral Cache:           LOAD
    Schwarz Cutoff:          1E-12
    Fitting Condition:       1E-10

   => Auxiliary Basis Set <=

  Basis Set: (JUN-CC-PVTZ AUX)
    Blend: JUN-CC-PVTZ-JKFIT
    Number of shells: 352
    Number of basis function: 1120
    Number of Cartesian functions: 1348
    Spherical Harmonics?: true
    Max angular momentum: 4

  Minimum eigenvalue in the overlap matrix is 3.8089051168E-05.
  Using Symmetric Orthogonalization.

  SCF Guess: Superposition of Atomic Densities via on-the-fly atomic UHF.

  ==> Iterations <==

                           Total Energy        Delta E     RMS |[F,P]|

   @DF-RHF iter SAD:  -153.41669842089991   -1.53417e+02   0.00000e+00 
   @DF-RHF iter   1:  -154.01146980642099   -5.94771e-01   1.04471e-03 DIIS
   @DF-RHF iter   2:  -154.11553313797776   -1.04063e-01   5.60243e-04 DIIS
   @DF-RHF iter   3:  -154.14205589375965   -2.65228e-02   9.70350e-05 DIIS
   @DF-RHF iter   4:  -154.14361245328317   -1.55656e-03   3.69619e-05 DIIS
   @DF-RHF iter   5:  -154.14380310041730   -1.90647e-04   7.01302e-06 DIIS
   @DF-RHF iter   6:  -154.14381323880906   -1.01384e-05   1.61739e-06 DIIS
   @DF-RHF iter   7:  -154.14381397815316   -7.39344e-07   4.62077e-07 DIIS
   @DF-RHF iter   8:  -154.14381403499792   -5.68448e-08   1.49885e-07 DIIS
   @DF-RHF iter   9:  -154.14381404138857   -6.39065e-09   3.88916e-08 DIIS
   @DF-RHF iter  10:  -154.14381404184545   -4.56879e-10   7.65445e-09 DIIS
  Energy and wave function converged.


  ==> Post-Iterations <==

    Orbital Energies [Eh]
    ---------------------

    Doubly Occupied:                                                      

       1A    -20.555097     2A    -11.274490     3A    -11.218625  
       4A     -1.350361     5A     -1.013935     6A     -0.847867  
       7A     -0.682397     8A     -0.622262     9A     -0.607045  
      10A     -0.544578    11A     -0.526122    12A     -0.482787  
      13A     -0.443671  

    Virtual:                                                              

      14A      0.031051    15A      0.052106    16A      0.054026  
      17A      0.056034    18A      0.065119    19A      0.072998  
      20A      0.076372    21A      0.094031    22A      0.097135  
      23A      0.102396    24A      0.104996    25A      0.108427  
      26A      0.112802    27A      0.117346    28A      0.131752  
      29A      0.141664    30A      0.154273    31A      0.163270  
      32A      0.168276    33A      0.177478    34A      0.189753  
      35A      0.193874    36A      0.195912    37A      0.212330  
      38A      0.221553    39A      0.225364    40A      0.239102  
      41A      0.244162    42A      0.247027    43A      0.261028  
      44A      0.272486    45A      0.282308    46A      0.283323  
      47A      0.288106    48A      0.294179    49A      0.298305  
      50A      0.309621    51A      0.311814    52A      0.320996  
      53A      0.324182    54A      0.328118    55A      0.342120  
      56A      0.344214    57A      0.351675    58A      0.362479  
      59A      0.366968    60A      0.374922    61A      0.381823  
      62A      0.394084    63A      0.405745    64A      0.412895  
      65A      0.422346    66A      0.423292    67A      0.434973  
      68A      0.444288    69A      0.449694    70A      0.458322  
      71A      0.467663    72A      0.470182    73A      0.479558  
      74A      0.493887    75A      0.497443    76A      0.503927  
      77A      0.509016    78A      0.515154    79A      0.521455  
      80A      0.528265    81A      0.530292    82A      0.547500  
      83A      0.560491    84A      0.561390    85A      0.571611  
      86A      0.580582    87A      0.598756    88A      0.624093  
      89A      0.631722    90A      0.633724    91A      0.647101  
      92A      0.664141    93A      0.677095    94A      0.681029  
      95A      0.687434    96A      0.705311    97A      0.720395  
      98A      0.724039    99A      0.743382   100A      0.760152  
     101A      0.771553   102A      0.779571   103A      0.785838  
     104A      0.792630   105A      0.806012   106A      0.815396  
     107A      0.824637   108A      0.832634   109A      0.842765  
     110A      0.851653   111A      0.869616   112A      0.878831  
     113A      0.890589   114A      0.911270   115A      0.920942  
     116A      0.926915   117A      0.932680   118A      0.961098  
     119A      0.961835   120A      0.975591   121A      0.990359  
     122A      1.011933   123A      1.028630   124A      1.036513  
     125A      1.048839   126A      1.053993   127A      1.062317  
     128A      1.067489   129A      1.077554   130A      1.087351  
     131A      1.091401   132A      1.115235   133A      1.124752  
     134A      1.134551   135A      1.155087   136A      1.165556  
     137A      1.183546   138A      1.196969   139A      1.199615  
     140A      1.210881   141A      1.217316   142A      1.227053  
     143A      1.245392   144A      1.257266   145A      1.263583  
     146A      1.279293   147A      1.294239   148A      1.308690  
     149A      1.315111   150A      1.321313   151A      1.328461  
     152A      1.337470   153A      1.349837   154A      1.357622  
     155A      1.363814   156A      1.379913   157A      1.385121  
     158A      1.404758   159A      1.414921   160A      1.438888  
     161A      1.441606   162A      1.473769   163A      1.490192  
     164A      1.496582   165A      1.500793   166A      1.516352  
     167A      1.520281   168A      1.521104   169A      1.538399  
     170A      1.543982   171A      1.570551   172A      1.580022  
     173A      1.597160   174A      1.605951   175A      1.616804  
     176A      1.624738   177A      1.634358   178A      1.665241  
     179A      1.671281   180A      1.675224   181A      1.688717  
     182A      1.700864   183A      1.715818   184A      1.746150  
     185A      1.758722   186A      1.768554   187A      1.782934  
     188A      1.803735   189A      1.814693   190A      1.827556  
     191A      1.851232   192A      1.872167   193A      1.906444  
     194A      1.910270   195A      1.929082   196A      1.935860  
     197A      1.944181   198A      1.951645   199A      1.977821  
     200A      2.000108   201A      2.042106   202A      2.062321  
     203A      2.090123   204A      2.112922   205A      2.136034  
     206A      2.164014   207A      2.184566   208A      2.222164  
     209A      2.252812   210A      2.340731   211A      2.368595  
     212A      2.381717   213A      2.411303   214A      2.445224  
     215A      2.470837   216A      2.494717   217A      2.516955  
     218A      2.553789   219A      2.578366   220A      2.591369  
     221A      2.618740   222A      2.628045   223A      2.667864  
     224A      2.741657   225A      2.781577   226A      2.792250  
     227A      2.811755   228A      2.815920   229A      2.845192  
     230A      2.864276   231A      2.876136   232A      2.929880  
     233A      2.943401   234A      2.984344   235A      2.992584  
     236A      3.004197   237A      3.032564   238A      3.045773  
     239A      3.058054   240A      3.087631   241A      3.120123  
     242A      3.128475   243A      3.154998   244A      3.179386  
     245A      3.234684   246A      3.250784   247A      3.266690  
     248A      3.290265   249A      3.322118   250A      3.329727  
     251A      3.347451   252A      3.388361   253A      3.434068  
     254A      3.435790   255A      3.441749   256A      3.461872  
     257A      3.484046   258A      3.499746   259A      3.523198  
     260A      3.536628   261A      3.544072   262A      3.558521  
     263A      3.598441   264A      3.603319   265A      3.611006  
     266A      3.616476   267A      3.632086   268A      3.647845  
     269A      3.663161   270A      3.674627   271A      3.695000  
     272A      3.698084   273A      3.714792   274A      3.727048  
     275A      3.763771   276A      3.794999   277A      3.801785  
     278A      3.808045   279A      3.819741   280A      3.830419  
     281A      3.848800   282A      3.862414   283A      3.869238  
     284A      3.883066   285A      3.899932   286A      3.908159  
     287A      3.914360   288A      3.930626   289A      3.954189  
     290A      3.961156   291A      4.005453   292A      4.018916  
     293A      4.041984   294A      4.062519   295A      4.069860  
     296A      4.096890   297A      4.113479   298A      4.125100  
     299A      4.161846   300A      4.187596   301A      4.196275  
     302A      4.235434   303A      4.250521   304A      4.252161  
     305A      4.269295   306A      4.286235   307A      4.301779  
     308A      4.316646   309A      4.322036   310A      4.330003  
     311A      4.361280   312A      4.369376   313A      4.383152  
     314A      4.397753   315A      4.415820   316A      4.428307  
     317A      4.445347   318A      4.463076   319A      4.468970  
     320A      4.490026   321A      4.499218   322A      4.507703  
     323A      4.519864   324A      4.523546   325A      4.562603  
     326A      4.569471   327A      4.590411   328A      4.599855  
     329A      4.612761   330A      4.635238   331A      4.648475  
     332A      4.666448   333A      4.675066   334A      4.691420  
     335A      4.702770   336A      4.731542   337A      4.746172  
     338A      4.753054   339A      4.763410   340A      4.771627  
     341A      4.781122   342A      4.804006   343A      4.813357  
     344A      4.816524   345A      4.821582   346A      4.829384  
     347A      4.843061   348A      4.866032   349A      4.879462  
     350A      4.904007   351A      4.906686   352A      4.940731  
     353A      4.954291   354A      4.957873   355A      4.982916  
     356A      4.987532   357A      4.996692   358A      5.018988  
     359A      5.025771   360A      5.050816   361A      5.058704  
     362A      5.085728   363A      5.088486   364A      5.138966  
     365A      5.148655   366A      5.156230   367A      5.180985  
     368A      5.195223   369A      5.233828   370A      5.249394  
     371A      5.273329   372A      5.281218   373A      5.281518  
     374A      5.305377   375A      5.321659   376A      5.332717  
     377A      5.397543   378A      5.425803   379A      5.462927  
     380A      5.479548   381A      5.544331   382A      5.562035  
     383A      5.571919   384A      5.592297   385A      5.633814  
     386A      5.666977   387A      5.697279   388A      5.729148  
     389A      5.739274   390A      5.745210   391A      5.754735  
     392A      5.782595   393A      5.827760   394A      5.833840  
     395A      5.901228   396A      5.909527   397A      5.943197  
     398A      5.983510   399A      5.998631   400A      6.077457  
     401A      6.098883   402A      6.174172   403A      6.201841  
     404A      6.225874   405A      6.307488   406A      6.318825  
     407A      6.373555   408A      6.390623   409A      6.435711  
     410A      6.452078   411A      6.457840   412A      6.465855  
     413A      6.473537   414A      6.495603   415A      6.552217  
     416A      6.558160   417A      6.590211   418A      6.663925  
     419A      6.823405   420A      6.823612   421A      6.896001  
     422A      6.961870   423A      7.035343   424A      7.069634  
     425A      7.154146   426A      7.202032   427A      7.217675  
     428A      7.266144   429A      7.347477   430A      7.388819  
     431A      7.457219   432A      7.516849   433A      7.533136  
     434A      7.594913   435A      7.620138   436A      7.655371  
     437A      7.691846   438A      7.777249   439A      7.796003  
     440A      7.841481   441A      7.853083   442A      7.893223  
     443A      7.955003   444A      7.987095   445A      8.051340  
     446A      8.163934   447A      8.185213   448A      8.256941  
     449A      8.513084   450A      8.683377   451A      8.866656  
     452A      9.159979   453A      9.452564   454A      9.683399  
     455A      9.736787   456A      9.798982   457A      9.883294  
     458A      9.908051   459A      9.929367   460A      9.965455  
     461A      9.975209   462A     10.128911   463A     10.401056  
     464A     10.498859   465A     11.041467   466A     11.393891  
     467A     11.604353   468A     11.625352   469A     12.047224  
     470A     13.120709   471A     13.702686   472A     13.750140  
     473A     13.804909   474A     13.981413   475A     14.741339  
     476A     42.980511   477A     45.106448   478A     45.815029  
     479A     61.090449   480A     62.045352  

    Final Occupation by Irrep:
              A 
    DOCC [    13 ]

  @DF-RHF Final Energy:  -154.14381404184545

   => Energetics <=

    Nuclear Repulsion Energy =             81.6330255703834240
    One-Electron Energy =                -371.2151992067631454
    Two-Electron Energy =                 135.4383595945342620
    Total Energy =                       -154.1438140418454452

Computation Completed


Properties will be evaluated at   0.000000,   0.000000,   0.000000 [a0]

Properties computed using the SCF density matrix

  Nuclear Dipole Moment: [e a0]
     X:   123.2139      Y:    10.5682      Z:    -0.3795

  Electronic Dipole Moment: [e a0]
     X:  -123.1078      Y:    -9.8430      Z:     0.4442

  Dipole Moment: [e a0]
     X:     0.1061      Y:     0.7252      Z:     0.0647     Total:     0.7358

  Dipole Moment: [D]
     X:     0.2696      Y:     1.8433      Z:     0.1645     Total:     1.8701


*** tstop() called on r282 at Fri Sep 10 17:24:01 2021
Module time:
	user time   =      27.98 seconds =       0.47 minutes
	system time =       0.51 seconds =       0.01 minutes
	total time  =         28 seconds =       0.47 minutes
Total time:
	user time   =     117.10 seconds =       1.95 minutes
	system time =       2.40 seconds =       0.04 minutes
	total time  =        119 seconds =       1.98 minutes
  Constructing Basis Sets for SAPT...

   => Loading Basis Set <=

    Name: (JUN-CC-PVTZ AUX)
    Role: RIFIT
    Keyword: DF_BASIS_SAPT
    atoms 1-3, 12-13  entry C          line   132 file /home/r08543048/miniconda3/share/psi4/basis/jun-cc-pvtz-ri.gbs 
    atoms 4-5, 14     entry O          line   244 file /home/r08543048/miniconda3/share/psi4/basis/jun-cc-pvtz-ri.gbs 
    atoms 6-11, 15-20 entry H          line    30 file /home/r08543048/miniconda3/share/psi4/basis/jun-cc-pvtz-ri.gbs 


  //>>>>>>>>>>>>>>>>>>>>>>>>>>>>>>>>>>>//
  //               SAPT0               //
  //<<<<<<<<<<<<<<<<<<<<<<<<<<<<<<<<<<<//


*** tstart() called on r282
*** at Fri Sep 10 17:24:02 2021

        SAPT0  
    Ed Hohenstein
     6 June 2009

      Orbital Information
  --------------------------
    NSO        =       480
    NMO        =       480
    NRI        =      1136
    NOCC A     =        20
    NOCC B     =        13
    FOCC A     =         0
    FOCC B     =         0
    NVIR A     =       460
    NVIR B     =       467

    Elst10,r            =    -0.035919599786 [Eh]
    Exch10              =     0.037578197109 [Eh]
    Exch10 (S^2)        =     0.037096278109 [Eh]

    Iter     Energy [mEh]          dE [mEh]         Residual      Time [s]
       1      -6.63358840       6.633588398      14.559799988             1
       2      -8.02862914       1.395040740       7.789186240             2
       3      -8.32086414       0.292235002       2.217698817             3
       4      -8.24823152      -0.072632617       0.806499850             4
       5      -8.24408342      -0.004148102       0.276030376             5
       6      -8.25055802       0.006474602       0.098587626             5
       7      -8.25071691       0.000158883       0.027178125             6
       8      -8.25026882      -0.000448087       0.009522939             7
       9      -8.25020053      -0.000068293       0.002799718             8
      10      -8.25024715       0.000046621       0.000680507             9
      11      -8.25024857       0.000001425       0.000156856            10
      12      -8.25024631      -0.000002263       0.000038698            11
      13      -8.25024634       0.000000028       0.000011438            12
      14      -8.25024647       0.000000133       0.000003930            13
      15      -8.25024646      -0.000000010       0.000001657            13
      16      -8.25024644      -0.000000016       0.000000567            14

    CHF Iterations converged


    Iter     Energy [mEh]          dE [mEh]         Residual      Time [s]
       1      -9.57099499       9.570994992      19.088267987             1
       2     -11.83776710       2.266772112       8.644929907             2
       3     -12.16850287       0.330735771       2.572943620             3
       4     -12.13621179      -0.032291082       0.786582841             4
       5     -12.10435751      -0.031854282       0.148390244             4
       6     -12.10881112       0.004453607       0.052845744             5
       7     -12.10946243       0.000651314       0.014839542             6
       8     -12.10908292      -0.000379516       0.004176080             7
       9     -12.10908672       0.000003806       0.001125899             8
      10     -12.10910554       0.000018822       0.000291397             9
      11     -12.10910442      -0.000001119       0.000090010            10
      12     -12.10910300      -0.000001423       0.000025371            10
      13     -12.10910322       0.000000216       0.000005203            11
      14     -12.10910326       0.000000043       0.000001039            12
      15     -12.10910325      -0.000000014       0.000000225            13

    CHF Iterations converged

    Ind20,r (A<-B)      =    -0.008250246445 [Eh]
    Ind20,r (B<-A)      =    -0.012109103248 [Eh]
    Ind20,r             =    -0.020359349693 [Eh]
    Exch-Ind20,r (A<-B) =     0.005828770105 [Eh]
    Exch-Ind20,r (B<-A) =     0.006697447119 [Eh]
    Exch-Ind20,r        =     0.012526217224 [Eh]
    Disp20              =    -0.013929273180 [Eh]
    Disp20 (SS)         =    -0.006964636590 [Eh]
    Disp20 (OS)         =    -0.006964636590 [Eh]
    Exch-Disp20         =     0.002726685810 [Eh]
    Exch-Disp20 (SS)    =     0.001714174581 [Eh]
    Exch-Disp20 (OS)    =     0.001012511229 [Eh]

    SAPT Results 
  --------------------------------------------------------------------------------------------------------
    Electrostatics                -35.91959979 [mEh]     -22.53988916 [kcal/mol]     -94.30689624 [kJ/mol]
      Elst10,r                    -35.91959979 [mEh]     -22.53988916 [kcal/mol]     -94.30689624 [kJ/mol]

    Exchange                       37.57819711 [mEh]      23.58067469 [kcal/mol]      98.66154292 [kJ/mol]
      Exch10                       37.57819711 [mEh]      23.58067469 [kcal/mol]      98.66154292 [kJ/mol]
      Exch10(S^2)                  37.09627811 [mEh]      23.27826596 [kcal/mol]      97.39626476 [kJ/mol]

    Induction                     -13.36347780 [mEh]      -8.38570892 [kcal/mol]     -35.08580612 [kJ/mol]
      Ind20,r                     -20.35934969 [mEh]     -12.77568481 [kcal/mol]     -53.45346525 [kJ/mol]
      Exch-Ind20,r                 12.52621722 [mEh]       7.86031998 [kcal/mol]      32.88757879 [kJ/mol]
      delta HF,r (2)               -5.53034533 [mEh]      -3.47034409 [kcal/mol]     -14.51991966 [kJ/mol]

    Dispersion                    -11.20258737 [mEh]      -7.02972971 [kcal/mol]     -29.41238909 [kJ/mol]
      Disp20                      -13.92927318 [mEh]      -8.74075088 [kcal/mol]     -36.57130169 [kJ/mol]
      Exch-Disp20                   2.72668581 [mEh]       1.71102118 [kcal/mol]       7.15891261 [kJ/mol]
      Disp20 (SS)                  -6.96463659 [mEh]      -4.37037544 [kcal/mol]     -18.28565085 [kJ/mol]
      Disp20 (OS)                  -6.96463659 [mEh]      -4.37037544 [kcal/mol]     -18.28565085 [kJ/mol]
      Exch-Disp20 (SS)              1.71417458 [mEh]       1.07566079 [kcal/mol]       4.50056474 [kJ/mol]
      Exch-Disp20 (OS)              1.01251123 [mEh]       0.63536039 [kcal/mol]       2.65834787 [kJ/mol]

  Total HF                        -11.70488047 [mEh]      -7.34492339 [kcal/mol]     -30.73115945 [kJ/mol]
  Total SAPT0                     -22.90746784 [mEh]     -14.37465309 [kcal/mol]     -60.14354854 [kJ/mol]

  Special recipe for scaled SAPT0 (see Manual):
    Electrostatics sSAPT0         -35.91959979 [mEh]     -22.53988916 [kcal/mol]     -94.30689624 [kJ/mol]
    Exchange sSAPT0                37.57819711 [mEh]      23.58067469 [kcal/mol]      98.66154292 [kJ/mol]
    Induction sSAPT0              -12.86892277 [mEh]      -8.07537095 [kcal/mol]     -33.78735207 [kJ/mol]
    Dispersion sSAPT0             -11.09493347 [mEh]      -6.96217586 [kcal/mol]     -29.12974380 [kJ/mol]
  Total sSAPT0                    -22.30525891 [mEh]     -13.99676128 [kcal/mol]     -58.56244920 [kJ/mol]
  --------------------------------------------------------------------------------------------------------

*** tstop() called on r282 at Fri Sep 10 17:25:48 2021
Module time:
	user time   =      89.58 seconds =       1.49 minutes
	system time =      16.45 seconds =       0.27 minutes
	total time  =        106 seconds =       1.77 minutes
Total time:
	user time   =     206.81 seconds =       3.45 minutes
	system time =      18.85 seconds =       0.31 minutes
	total time  =        226 seconds =       3.77 minutes

    Psi4 stopped on: Friday, 10 September 2021 05:25PM
    Psi4 wall time for execution: 0:03:45.94

*** Psi4 exiting successfully. Buy a developer a beer!
