
    -----------------------------------------------------------------------
          Psi4: An Open-Source Ab Initio Electronic Structure Package
                               Psi4 1.3.2 release

                         Git: Rev {HEAD} ecbda83 


    R. M. Parrish, L. A. Burns, D. G. A. Smith, A. C. Simmonett,
    A. E. DePrince III, E. G. Hohenstein, U. Bozkaya, A. Yu. Sokolov,
    R. Di Remigio, R. M. Richard, J. F. Gonthier, A. M. James,
    H. R. McAlexander, A. Kumar, M. Saitow, X. Wang, B. P. Pritchard,
    P. Verma, H. F. Schaefer III, K. Patkowski, R. A. King, E. F. Valeev,
    F. A. Evangelista, J. M. Turney, T. D. Crawford, and C. D. Sherrill,
    J. Chem. Theory Comput. 13(7) pp 3185--3197 (2017).
    (doi: 10.1021/acs.jctc.7b00174)


                         Additional Contributions by
    P. Kraus, H. Kruse, M. H. Lechner, M. C. Schieber, R. A. Shaw,
    A. Alenaizan, R. Galvelis, Z. L. Glick, S. Lehtola, and J. P. Misiewicz

    -----------------------------------------------------------------------


    Psi4 started on: Friday, 10 September 2021 05:32PM

    Process ID: 56911
    Host:       r282
    PSIDATADIR: /home/r08543048/miniconda3/share/psi4
    Memory:     500.0 MiB
    Threads:    1
    
  ==> Input File <==

--------------------------------------------------------------------------
# Any line starting with the # character is a comment line
#! Sample  computation

memory 22 gb

molecule Dimer {
0 1
 C -1.902302   -0.064592    0.100670
 O -1.332267   -0.533028    1.074448
 O -1.360214   -0.014838   -1.121290
 H -0.454002   -0.410509   -1.061999
 C -3.281334    0.520740    0.128793
 H -3.683064    0.465859    1.133992
 H -3.242443    1.554985   -0.207749
 H -3.918970   -0.025670   -0.563506
 
 
 




    
    
    
 --
0 1
 C   2.473470    0.408352    0.597194
 C   2.302985   -0.894278   -0.163241
 H   2.001678    0.309924    1.578697
 H   3.541859    0.551528    0.777144
 O   0.930758   -1.232292   -0.385625
 H   2.749497   -0.817591   -1.154668
 H 	 2.796167   -1.712492    0.367015
 
H 	 0.453765   -1.208407    0.462540
 
C 	 1.900608    1.610552   -0.141790
 
H 	 0.826984    1.507545   -0.290417
 
H 	 2.072969    2.530521    0.415058
 
H   2.366312    1.718430   -1.122328







units angstrom

no_reorient
symmetry c1
}

set globals{
  basis jun-cc-pvtz
}

energy('sapt0')


--------------------------------------------------------------------------

  Memory set to  20.489 GiB by Python driver.

  //>>>>>>>>>>>>>>>>>>>>>>>>>>>>>>>>>>>//
  //              Dimer HF             //
  //<<<<<<<<<<<<<<<<<<<<<<<<<<<<<<<<<<<//


*** tstart() called on r282
*** at Fri Sep 10 17:32:37 2021

   => Loading Basis Set <=

    Name: JUN-CC-PVTZ
    Role: ORBITAL
    Keyword: BASIS
    atoms 1, 5, 9-10, 17              entry C          line   217 file /home/r08543048/miniconda3/share/psi4/basis/jun-cc-pvtz.gbs 
    atoms 2-3, 13                     entry O          line   305 file /home/r08543048/miniconda3/share/psi4/basis/jun-cc-pvtz.gbs 
    atoms 4, 6-8, 11-12, 14-16, 18-20 entry H          line    36 file /home/r08543048/miniconda3/share/psi4/basis/jun-cc-pvtz.gbs 


         ---------------------------------------------------------
                                   SCF
               by Justin Turney, Rob Parrish, Andy Simmonett
                          and Daniel G. A. Smith
                              RHF Reference
                        1 Threads,  20980 MiB Core
         ---------------------------------------------------------

  ==> Geometry <==

    Molecular point group: c1
    Full point group: C1

    Geometry (in Angstrom), charge = 0, multiplicity = 1:

       Center              X                  Y                   Z               Mass       
    ------------   -----------------  -----------------  -----------------  -----------------
         C           -1.863130911870    -0.022909881215     0.103346328596    12.000000000000
         O           -1.293095911870    -0.491345881215     1.077124328596    15.994914619570
         O           -1.321042911870     0.026844118785    -1.118613671404    15.994914619570
         H           -0.414830911870    -0.368826881215    -1.059322671404     1.007825032230
         C           -3.242162911870     0.562422118785     0.131469328596    12.000000000000
         H           -3.643892911870     0.507541118785     1.136668328596     1.007825032230
         H           -3.203271911870     1.596667118785    -0.205072671404     1.007825032230
         H           -3.879798911870     0.016012118785    -0.560829671404     1.007825032230
         C            2.512641088130     0.450034118785     0.599870328596    12.000000000000
         C            2.342156088130    -0.852595881215    -0.160564671404    12.000000000000
         H            2.040849088130     0.351606118785     1.581373328596     1.007825032230
         H            3.581030088130     0.593210118785     0.779820328596     1.007825032230
         O            0.969929088130    -1.190609881215    -0.382948671404    15.994914619570
         H            2.788668088130    -0.775908881215    -1.151991671404     1.007825032230
         H            2.835338088130    -1.670809881215     0.369691328596     1.007825032230
         H            0.492936088130    -1.166724881215     0.465216328596     1.007825032230
         C            1.939779088130     1.652234118785    -0.139113671404    12.000000000000
         H            0.866155088130     1.549227118785    -0.287740671404     1.007825032230
         H            2.112140088130     2.572203118785     0.417734328596     1.007825032230
         H            2.405483088130     1.760112118785    -1.119651671404     1.007825032230

  Running in c1 symmetry.

  Rotational constants: A =      0.11243  B =      0.02995  C =      0.02798 [cm^-1]
  Rotational constants: A =   3370.45779  B =    897.77538  C =    838.86620 [MHz]
  Nuclear repulsion =  399.039752320156083

  Charge       = 0
  Multiplicity = 1
  Electrons    = 66
  Nalpha       = 33
  Nbeta        = 33

  ==> Algorithm <==

  SCF Algorithm Type is DF.
  DIIS enabled.
  MOM disabled.
  Fractional occupation disabled.
  Guess Type is SAD.
  Energy threshold   = 1.00e-08
  Density threshold  = 1.00e-08
  Integral threshold = 0.00e+00

  ==> Primary Basis <==

  Basis Set: JUN-CC-PVTZ
    Blend: JUN-CC-PVTZ
    Number of shells: 176
    Number of basis function: 480
    Number of Cartesian functions: 540
    Spherical Harmonics?: true
    Max angular momentum: 3

   => Loading Basis Set <=

    Name: (JUN-CC-PVTZ AUX)
    Role: JKFIT
    Keyword: DF_BASIS_SCF
    atoms 1, 5, 9-10, 17              entry C          line   152 file /home/r08543048/miniconda3/share/psi4/basis/jun-cc-pvtz-jkfit.gbs 
    atoms 2-3, 13                     entry O          line   272 file /home/r08543048/miniconda3/share/psi4/basis/jun-cc-pvtz-jkfit.gbs 
    atoms 4, 6-8, 11-12, 14-16, 18-20 entry H          line    70 file /home/r08543048/miniconda3/share/psi4/basis/jun-cc-pvtz-jkfit.gbs 

  ==> Pre-Iterations <==

   -------------------------------------------------------
    Irrep   Nso     Nmo     Nalpha   Nbeta   Ndocc  Nsocc
   -------------------------------------------------------
     A        480     480       0       0       0       0
   -------------------------------------------------------
    Total     480     480      33      33      33       0
   -------------------------------------------------------

  ==> Integral Setup <==

  ==> DiskDFJK: Density-Fitted J/K Matrices <==

    J tasked:                  Yes
    K tasked:                  Yes
    wK tasked:                  No
    OpenMP threads:              1
    Integrals threads:           1
    Memory [MiB]:            15735
    Algorithm:                Core
    Integral Cache:           SAVE
    Schwarz Cutoff:          1E-12
    Fitting Condition:       1E-10

   => Auxiliary Basis Set <=

  Basis Set: (JUN-CC-PVTZ AUX)
    Blend: JUN-CC-PVTZ-JKFIT
    Number of shells: 352
    Number of basis function: 1120
    Number of Cartesian functions: 1348
    Spherical Harmonics?: true
    Max angular momentum: 4

  Minimum eigenvalue in the overlap matrix is 5.1496344706E-05.
  Using Symmetric Orthogonalization.

  SCF Guess: Superposition of Atomic Densities via on-the-fly atomic UHF.

  ==> Iterations <==

                           Total Energy        Delta E     RMS |[F,P]|

   @DF-RHF iter SAD:  -419.75109467024458   -4.19751e+02   0.00000e+00 
   @DF-RHF iter   1:  -420.79484137263609   -1.04375e+00   1.65031e-03 DIIS
   @DF-RHF iter   2:  -421.03636059520585   -2.41519e-01   8.84876e-04 DIIS
   @DF-RHF iter   3:  -421.10069089627018   -6.43303e-02   1.63057e-04 DIIS
   @DF-RHF iter   4:  -421.10476448825608   -4.07359e-03   7.37071e-05 DIIS
   @DF-RHF iter   5:  -421.10545672379504   -6.92236e-04   1.62269e-05 DIIS
   @DF-RHF iter   6:  -421.10550981732752   -5.30935e-05   7.36761e-06 DIIS
   @DF-RHF iter   7:  -421.10551996328132   -1.01460e-05   2.38043e-06 DIIS
   @DF-RHF iter   8:  -421.10552184215680   -1.87888e-06   9.93758e-07 DIIS
   @DF-RHF iter   9:  -421.10552216669004   -3.24533e-07   2.92617e-07 DIIS
   @DF-RHF iter  10:  -421.10552219496105   -2.82710e-08   7.77237e-08 DIIS
   @DF-RHF iter  11:  -421.10552219675947   -1.79841e-09   2.07744e-08 DIIS
   @DF-RHF iter  12:  -421.10552219685792   -9.84528e-11   8.18865e-09 DIIS
  Energy and wave function converged.


  ==> Post-Iterations <==

    Orbital Energies [Eh]
    ---------------------

    Doubly Occupied:                                                      

       1A    -20.595818     2A    -20.562428     3A    -20.547304  
       4A    -11.387713     5A    -11.277371     6A    -11.240390  
       7A    -11.224915     8A    -11.213889     9A     -1.456227  
      10A     -1.364837    11A     -1.352179    12A     -1.056135  
      13A     -1.024222    14A     -0.927974    15A     -0.822220  
      16A     -0.811659    17A     -0.711169    18A     -0.685302  
      19A     -0.666879    20A     -0.649600    21A     -0.640303  
      22A     -0.635939    23A     -0.584786    24A     -0.575492  
      25A     -0.556331    26A     -0.554768    27A     -0.540545  
      28A     -0.522335    29A     -0.489798    30A     -0.478234  
      31A     -0.476173    32A     -0.456367    33A     -0.442660  

    Virtual:                                                              

      34A      0.045929    35A      0.054479    36A      0.058443  
      37A      0.062639    38A      0.076097    39A      0.080415  
      40A      0.083988    41A      0.094744    42A      0.100114  
      43A      0.102874    44A      0.107149    45A      0.114825  
      46A      0.134890    47A      0.136998    48A      0.140403  
      49A      0.147542    50A      0.165342    51A      0.172102  
      52A      0.174182    53A      0.191756    54A      0.195047  
      55A      0.202986    56A      0.211221    57A      0.222002  
      58A      0.227415    59A      0.244076    60A      0.253764  
      61A      0.255092    62A      0.261496    63A      0.273668  
      64A      0.275744    65A      0.279123    66A      0.289306  
      67A      0.293247    68A      0.301415    69A      0.302566  
      70A      0.309302    71A      0.315108    72A      0.320231  
      73A      0.325272    74A      0.331957    75A      0.340555  
      76A      0.346913    77A      0.351588    78A      0.354749  
      79A      0.358293    80A      0.374415    81A      0.374789  
      82A      0.391944    83A      0.395973    84A      0.405417  
      85A      0.407865    86A      0.415067    87A      0.423233  
      88A      0.436823    89A      0.440892    90A      0.449825  
      91A      0.465112    92A      0.465661    93A      0.486115  
      94A      0.496623    95A      0.503926    96A      0.506658  
      97A      0.512536    98A      0.530203    99A      0.535750  
     100A      0.537247   101A      0.547482   102A      0.555849  
     103A      0.562698   104A      0.569709   105A      0.581240  
     106A      0.599480   107A      0.608896   108A      0.617448  
     109A      0.632734   110A      0.641943   111A      0.652326  
     112A      0.655649   113A      0.667655   114A      0.681436  
     115A      0.685992   116A      0.692493   117A      0.707246  
     118A      0.731355   119A      0.738739   120A      0.741668  
     121A      0.747545   122A      0.767768   123A      0.773439  
     124A      0.777783   125A      0.783657   126A      0.794995  
     127A      0.796352   128A      0.808072   129A      0.815534  
     130A      0.819421   131A      0.823172   132A      0.838347  
     133A      0.843846   134A      0.851797   135A      0.867449  
     136A      0.875498   137A      0.885572   138A      0.892735  
     139A      0.900257   140A      0.913089   141A      0.920641  
     142A      0.949265   143A      0.953251   144A      0.966555  
     145A      0.981878   146A      0.983123   147A      0.989386  
     148A      1.013520   149A      1.019086   150A      1.030748  
     151A      1.039401   152A      1.054430   153A      1.074872  
     154A      1.077712   155A      1.110508   156A      1.119342  
     157A      1.132923   158A      1.150285   159A      1.161345  
     160A      1.186242   161A      1.200012   162A      1.210062  
     163A      1.228020   164A      1.231449   165A      1.248543  
     166A      1.260112   167A      1.266997   168A      1.280431  
     169A      1.288019   170A      1.296892   171A      1.320890  
     172A      1.334902   173A      1.345245   174A      1.359381  
     175A      1.367107   176A      1.372024   177A      1.377531  
     178A      1.385863   179A      1.391981   180A      1.395404  
     181A      1.406384   182A      1.423500   183A      1.431005  
     184A      1.458469   185A      1.472559   186A      1.476838  
     187A      1.500853   188A      1.502438   189A      1.509919  
     190A      1.518479   191A      1.538638   192A      1.546020  
     193A      1.549935   194A      1.560949   195A      1.570909  
     196A      1.583422   197A      1.599764   198A      1.608143  
     199A      1.617245   200A      1.625659   201A      1.634213  
     202A      1.643395   203A      1.673433   204A      1.684322  
     205A      1.692931   206A      1.707542   207A      1.720871  
     208A      1.742898   209A      1.752579   210A      1.766360  
     211A      1.793833   212A      1.807446   213A      1.817572  
     214A      1.833169   215A      1.843687   216A      1.863163  
     217A      1.880253   218A      1.893285   219A      1.925159  
     220A      1.933049   221A      1.957355   222A      1.985553  
     223A      2.003338   224A      2.048732   225A      2.077318  
     226A      2.129794   227A      2.211496   228A      2.245231  
     229A      2.263920   230A      2.318599   231A      2.337369  
     232A      2.388625   233A      2.405880   234A      2.426208  
     235A      2.455986   236A      2.475036   237A      2.501866  
     238A      2.519864   239A      2.548112   240A      2.627764  
     241A      2.643169   242A      2.662393   243A      2.685324  
     244A      2.756569   245A      2.792929   246A      2.807461  
     247A      2.827674   248A      2.829933   249A      2.853148  
     250A      2.865189   251A      2.884465   252A      2.902339  
     253A      2.907645   254A      2.934460   255A      2.969928  
     256A      2.979006   257A      2.993957   258A      3.005533  
     259A      3.047333   260A      3.054858   261A      3.095125  
     262A      3.102410   263A      3.112333   264A      3.119149  
     265A      3.132428   266A      3.155282   267A      3.175763  
     268A      3.186620   269A      3.201781   270A      3.206826  
     271A      3.230966   272A      3.251352   273A      3.275971  
     274A      3.286321   275A      3.298477   276A      3.310361  
     277A      3.344636   278A      3.361233   279A      3.378119  
     280A      3.384157   281A      3.394621   282A      3.405104  
     283A      3.408711   284A      3.424184   285A      3.430207  
     286A      3.443661   287A      3.454861   288A      3.462524  
     289A      3.481718   290A      3.486135   291A      3.492770  
     292A      3.511679   293A      3.521636   294A      3.543203  
     295A      3.545575   296A      3.558224   297A      3.568222  
     298A      3.590489   299A      3.615941   300A      3.621257  
     301A      3.635776   302A      3.666584   303A      3.681290  
     304A      3.689048   305A      3.702270   306A      3.709459  
     307A      3.731860   308A      3.737820   309A      3.746034  
     310A      3.759120   311A      3.772334   312A      3.776698  
     313A      3.785304   314A      3.787376   315A      3.799068  
     316A      3.829151   317A      3.842679   318A      3.845020  
     319A      3.859774   320A      3.876254   321A      3.883925  
     322A      3.893890   323A      3.917414   324A      3.930661  
     325A      3.956397   326A      3.967503   327A      3.992112  
     328A      4.003833   329A      4.027728   330A      4.064227  
     331A      4.081661   332A      4.115108   333A      4.131505  
     334A      4.141488   335A      4.159106   336A      4.170962  
     337A      4.195710   338A      4.209542   339A      4.232583  
     340A      4.249353   341A      4.262656   342A      4.270523  
     343A      4.287032   344A      4.305312   345A      4.306727  
     346A      4.325239   347A      4.344797   348A      4.354150  
     349A      4.358833   350A      4.374253   351A      4.382375  
     352A      4.395840   353A      4.410460   354A      4.414716  
     355A      4.424933   356A      4.436142   357A      4.445475  
     358A      4.465823   359A      4.478068   360A      4.492507  
     361A      4.499796   362A      4.513531   363A      4.526089  
     364A      4.542266   365A      4.557040   366A      4.581319  
     367A      4.586637   368A      4.608899   369A      4.621044  
     370A      4.629677   371A      4.654845   372A      4.683040  
     373A      4.692185   374A      4.718692   375A      4.737160  
     376A      4.759105   377A      4.774315   378A      4.783450  
     379A      4.807994   380A      4.828687   381A      4.835958  
     382A      4.869277   383A      4.885416   384A      4.891327  
     385A      4.903921   386A      4.988230   387A      5.013573  
     388A      5.033835   389A      5.056160   390A      5.102406  
     391A      5.115966   392A      5.138823   393A      5.156996  
     394A      5.176788   395A      5.187626   396A      5.202674  
     397A      5.244094   398A      5.257424   399A      5.292053  
     400A      5.304833   401A      5.306236   402A      5.334013  
     403A      5.380612   404A      5.402763   405A      5.425616  
     406A      5.443972   407A      5.495556   408A      5.506136  
     409A      5.516844   410A      5.533300   411A      5.564840  
     412A      5.584982   413A      5.600412   414A      5.614682  
     415A      5.650322   416A      5.671261   417A      5.683459  
     418A      5.686171   419A      5.723252   420A      5.754531  
     421A      5.772351   422A      5.790787   423A      5.798748  
     424A      5.838679   425A      5.850348   426A      5.879638  
     427A      5.890916   428A      5.899608   429A      5.916928  
     430A      5.926446   431A      5.954655   432A      6.001104  
     433A      6.065305   434A      6.076767   435A      6.128846  
     436A      6.159730   437A      6.269765   438A      6.292521  
     439A      6.422902   440A      6.431683   441A      6.452722  
     442A      6.490976   443A      6.517730   444A      6.532023  
     445A      6.545350   446A      6.599567   447A      6.733653  
     448A      6.753374   449A      6.941302   450A      6.975020  
     451A      6.980628   452A      7.043557   453A      7.107176  
     454A      7.203250   455A      7.233993   456A      7.283089  
     457A      7.299504   458A      7.318729   459A      7.360479  
     460A      7.391805   461A      7.428649   462A      7.451940  
     463A      7.464224   464A      7.608452   465A      7.683138  
     466A      7.734342   467A      7.768406   468A      7.869539  
     469A      7.916292   470A      7.987546   471A      8.138783  
     472A      8.358360   473A     12.182672   474A     13.700517  
     475A     13.864735   476A     13.937807   477A     14.117701  
     478A     14.377885   479A     14.680413   480A     14.742877  

    Final Occupation by Irrep:
              A 
    DOCC [    33 ]

  @DF-RHF Final Energy:  -421.10552219685792

   => Energetics <=

    Nuclear Repulsion Energy =            399.0397523201560830
    One-Electron Energy =               -1367.2266230492909926
    Two-Electron Energy =                 547.0813485322769338
    Total Energy =                       -421.1055221968579190

Computation Completed


Properties will be evaluated at   0.000000,   0.000000,   0.000000 [a0]

Properties computed using the SCF density matrix

  Nuclear Dipole Moment: [e a0]
     X:     5.5989      Y:     4.6459      Z:     0.3410

  Electronic Dipole Moment: [e a0]
     X:    -5.4813      Y:    -4.1566      Z:    -0.3436

  Dipole Moment: [e a0]
     X:     0.1177      Y:     0.4893      Z:    -0.0026     Total:     0.5033

  Dipole Moment: [D]
     X:     0.2991      Y:     1.2437      Z:    -0.0066     Total:     1.2792


*** tstop() called on r282 at Fri Sep 10 17:33:38 2021
Module time:
	user time   =      59.46 seconds =       0.99 minutes
	system time =       1.29 seconds =       0.02 minutes
	total time  =         61 seconds =       1.02 minutes
Total time:
	user time   =      59.46 seconds =       0.99 minutes
	system time =       1.29 seconds =       0.02 minutes
	total time  =         61 seconds =       1.02 minutes

  //>>>>>>>>>>>>>>>>>>>>>>>>>>>>>>>>>>>//
  //            Monomer A HF           //
  //<<<<<<<<<<<<<<<<<<<<<<<<<<<<<<<<<<<//


*** tstart() called on r282
*** at Fri Sep 10 17:33:38 2021

   => Loading Basis Set <=

    Name: JUN-CC-PVTZ
    Role: ORBITAL
    Keyword: BASIS
    atoms 1, 5, 9-10, 17              entry C          line   217 file /home/r08543048/miniconda3/share/psi4/basis/jun-cc-pvtz.gbs 
    atoms 2-3, 13                     entry O          line   305 file /home/r08543048/miniconda3/share/psi4/basis/jun-cc-pvtz.gbs 
    atoms 4, 6-8, 11-12, 14-16, 18-20 entry H          line    36 file /home/r08543048/miniconda3/share/psi4/basis/jun-cc-pvtz.gbs 


         ---------------------------------------------------------
                                   SCF
               by Justin Turney, Rob Parrish, Andy Simmonett
                          and Daniel G. A. Smith
                              RHF Reference
                        1 Threads,  20980 MiB Core
         ---------------------------------------------------------

  ==> Geometry <==

    Molecular point group: c1
    Full point group: C1

    Geometry (in Angstrom), charge = 0, multiplicity = 1:

       Center              X                  Y                   Z               Mass       
    ------------   -----------------  -----------------  -----------------  -----------------
         C           -1.863130911870    -0.022909881215     0.103346328596    12.000000000000
         O           -1.293095911870    -0.491345881215     1.077124328596    15.994914619570
         O           -1.321042911870     0.026844118785    -1.118613671404    15.994914619570
         H           -0.414830911870    -0.368826881215    -1.059322671404     1.007825032230
         C           -3.242162911870     0.562422118785     0.131469328596    12.000000000000
         H           -3.643892911870     0.507541118785     1.136668328596     1.007825032230
         H           -3.203271911870     1.596667118785    -0.205072671404     1.007825032230
         H           -3.879798911870     0.016012118785    -0.560829671404     1.007825032230
      Gh(C)           2.512641088130     0.450034118785     0.599870328596    12.000000000000
      Gh(C)           2.342156088130    -0.852595881215    -0.160564671404    12.000000000000
      Gh(H)           2.040849088130     0.351606118785     1.581373328596     1.007825032230
      Gh(H)           3.581030088130     0.593210118785     0.779820328596     1.007825032230
      Gh(O)           0.969929088130    -1.190609881215    -0.382948671404    15.994914619570
      Gh(H)           2.788668088130    -0.775908881215    -1.151991671404     1.007825032230
      Gh(H)           2.835338088130    -1.670809881215     0.369691328596     1.007825032230
      Gh(H)           0.492936088130    -1.166724881215     0.465216328596     1.007825032230
      Gh(C)           1.939779088130     1.652234118785    -0.139113671404    12.000000000000
      Gh(H)           0.866155088130     1.549227118785    -0.287740671404     1.007825032230
      Gh(H)           2.112140088130     2.572203118785     0.417734328596     1.007825032230
      Gh(H)           2.405483088130     1.760112118785    -1.119651671404     1.007825032230

  Running in c1 symmetry.

  Rotational constants: A =      0.11243  B =      0.02995  C =      0.02798 [cm^-1]
  Rotational constants: A =   3370.45779  B =    897.77538  C =    838.86620 [MHz]
  Nuclear repulsion =  121.099903013076897

  Charge       = 0
  Multiplicity = 1
  Electrons    = 32
  Nalpha       = 16
  Nbeta        = 16

  ==> Algorithm <==

  SCF Algorithm Type is DF.
  DIIS enabled.
  MOM disabled.
  Fractional occupation disabled.
  Guess Type is SAD.
  Energy threshold   = 1.00e-08
  Density threshold  = 1.00e-08
  Integral threshold = 0.00e+00

  ==> Primary Basis <==

  Basis Set: JUN-CC-PVTZ
    Blend: JUN-CC-PVTZ
    Number of shells: 176
    Number of basis function: 480
    Number of Cartesian functions: 540
    Spherical Harmonics?: true
    Max angular momentum: 3

   => Loading Basis Set <=

    Name: (JUN-CC-PVTZ AUX)
    Role: JKFIT
    Keyword: DF_BASIS_SCF
    atoms 1, 5, 9-10, 17              entry C          line   152 file /home/r08543048/miniconda3/share/psi4/basis/jun-cc-pvtz-jkfit.gbs 
    atoms 2-3, 13                     entry O          line   272 file /home/r08543048/miniconda3/share/psi4/basis/jun-cc-pvtz-jkfit.gbs 
    atoms 4, 6-8, 11-12, 14-16, 18-20 entry H          line    70 file /home/r08543048/miniconda3/share/psi4/basis/jun-cc-pvtz-jkfit.gbs 

  ==> Pre-Iterations <==

   -------------------------------------------------------
    Irrep   Nso     Nmo     Nalpha   Nbeta   Ndocc  Nsocc
   -------------------------------------------------------
     A        480     480       0       0       0       0
   -------------------------------------------------------
    Total     480     480      16      16      16       0
   -------------------------------------------------------

  ==> Integral Setup <==

  ==> DiskDFJK: Density-Fitted J/K Matrices <==

    J tasked:                  Yes
    K tasked:                  Yes
    wK tasked:                  No
    OpenMP threads:              1
    Integrals threads:           1
    Memory [MiB]:            15735
    Algorithm:                Core
    Integral Cache:           LOAD
    Schwarz Cutoff:          1E-12
    Fitting Condition:       1E-10

   => Auxiliary Basis Set <=

  Basis Set: (JUN-CC-PVTZ AUX)
    Blend: JUN-CC-PVTZ-JKFIT
    Number of shells: 352
    Number of basis function: 1120
    Number of Cartesian functions: 1348
    Spherical Harmonics?: true
    Max angular momentum: 4

  Minimum eigenvalue in the overlap matrix is 5.1496344706E-05.
  Using Symmetric Orthogonalization.

  SCF Guess: Superposition of Atomic Densities via on-the-fly atomic UHF.

  ==> Iterations <==

                           Total Energy        Delta E     RMS |[F,P]|

   @DF-RHF iter SAD:  -226.99957382675311   -2.27000e+02   0.00000e+00 
   @DF-RHF iter   1:  -227.74282622852763   -7.43252e-01   1.24899e-03 DIIS
   @DF-RHF iter   2:  -227.85645857501811   -1.13632e-01   7.72937e-04 DIIS
   @DF-RHF iter   3:  -227.89980419455478   -4.33456e-02   1.27249e-04 DIIS
   @DF-RHF iter   4:  -227.90206922268703   -2.26503e-03   5.76594e-05 DIIS
   @DF-RHF iter   5:  -227.90256803550272   -4.98813e-04   1.40555e-05 DIIS
   @DF-RHF iter   6:  -227.90261014393826   -4.21084e-05   6.67012e-06 DIIS
   @DF-RHF iter   7:  -227.90262071737070   -1.05734e-05   2.24716e-06 DIIS
   @DF-RHF iter   8:  -227.90262253326404   -1.81589e-06   6.15946e-07 DIIS
   @DF-RHF iter   9:  -227.90262268873522   -1.55471e-07   1.29835e-07 DIIS
   @DF-RHF iter  10:  -227.90262269451478   -5.77955e-09   3.27017e-08 DIIS
   @DF-RHF iter  11:  -227.90262269475642   -2.41641e-10   8.67708e-09 DIIS
  Energy and wave function converged.


  ==> Post-Iterations <==

    Orbital Energies [Eh]
    ---------------------

    Doubly Occupied:                                                      

       1A    -20.622687     2A    -20.548587     3A    -11.391153  
       4A    -11.245223     5A     -1.467620     6A     -1.356662  
       7A     -1.029338     8A     -0.828442     9A     -0.705766  
      10A     -0.681584    11A     -0.654075    12A     -0.581623  
      13A     -0.574650    14A     -0.564366    15A     -0.480393  
      16A     -0.454430  

    Virtual:                                                              

      17A      0.031501    18A      0.043515    19A      0.049494  
      20A      0.057798    21A      0.071258    22A      0.077090  
      23A      0.081917    24A      0.088086    25A      0.096121  
      26A      0.100236    27A      0.104431    28A      0.111455  
      29A      0.116333    30A      0.136463    31A      0.137140  
      32A      0.142959    33A      0.146002    34A      0.152531  
      35A      0.164653    36A      0.170216    37A      0.176090  
      38A      0.189600    39A      0.195694    40A      0.200005  
      41A      0.212719    42A      0.214654    43A      0.232650  
      44A      0.243111    45A      0.251882    46A      0.256910  
      47A      0.258516    48A      0.272758    49A      0.281277  
      50A      0.287532    51A      0.293663    52A      0.298525  
      53A      0.300302    54A      0.314626    55A      0.318131  
      56A      0.326658    57A      0.328974    58A      0.335695  
      59A      0.339878    60A      0.352438    61A      0.355530  
      62A      0.361231    63A      0.375778    64A      0.388115  
      65A      0.393436    66A      0.398543    67A      0.412023  
      68A      0.414448    69A      0.424994    70A      0.430225  
      71A      0.446232    72A      0.454309    73A      0.464148  
      74A      0.472980    75A      0.475161    76A      0.485660  
      77A      0.489562    78A      0.501421    79A      0.505428  
      80A      0.515604    81A      0.525619    82A      0.535873  
      83A      0.542586    84A      0.555802    85A      0.563206  
      86A      0.575696    87A      0.580820    88A      0.587222  
      89A      0.592924    90A      0.603330    91A      0.611880  
      92A      0.620563    93A      0.624733    94A      0.625024  
      95A      0.636629    96A      0.645479    97A      0.661202  
      98A      0.674646    99A      0.688548   100A      0.695656  
     101A      0.703194   102A      0.704051   103A      0.711204  
     104A      0.739096   105A      0.763908   106A      0.773432  
     107A      0.778835   108A      0.793930   109A      0.802893  
     110A      0.808422   111A      0.821839   112A      0.833637  
     113A      0.837103   114A      0.840989   115A      0.874542  
     116A      0.885314   117A      0.909449   118A      0.921880  
     119A      0.931470   120A      0.934862   121A      0.948981  
     122A      0.971739   123A      0.984132   124A      0.997139  
     125A      1.007794   126A      1.027650   127A      1.049648  
     128A      1.059528   129A      1.065215   130A      1.070023  
     131A      1.089998   132A      1.110042   133A      1.116417  
     134A      1.126623   135A      1.146352   136A      1.162666  
     137A      1.174281   138A      1.177250   139A      1.187249  
     140A      1.197481   141A      1.200751   142A      1.221428  
     143A      1.224751   144A      1.242728   145A      1.247745  
     146A      1.255647   147A      1.261886   148A      1.270229  
     149A      1.283112   150A      1.298695   151A      1.308917  
     152A      1.315963   153A      1.318823   154A      1.324336  
     155A      1.340402   156A      1.352379   157A      1.365816  
     158A      1.374213   159A      1.377310   160A      1.381387  
     161A      1.391930   162A      1.399828   163A      1.411898  
     164A      1.425680   165A      1.437049   166A      1.461556  
     167A      1.469108   168A      1.476749   169A      1.482460  
     170A      1.505554   171A      1.509862   172A      1.527548  
     173A      1.539297   174A      1.556237   175A      1.559229  
     176A      1.563864   177A      1.588522   178A      1.593638  
     179A      1.599196   180A      1.611473   181A      1.632205  
     182A      1.649715   183A      1.654277   184A      1.664231  
     185A      1.678248   186A      1.706732   187A      1.727701  
     188A      1.740217   189A      1.752912   190A      1.757465  
     191A      1.776243   192A      1.809331   193A      1.833126  
     194A      1.843333   195A      1.860956   196A      1.866530  
     197A      1.888045   198A      1.902929   199A      1.916779  
     200A      1.941390   201A      1.972129   202A      2.013453  
     203A      2.021284   204A      2.047037   205A      2.085168  
     206A      2.118057   207A      2.132003   208A      2.159828  
     209A      2.199200   210A      2.211491   211A      2.240567  
     212A      2.241617   213A      2.267780   214A      2.307320  
     215A      2.334548   216A      2.369218   217A      2.385524  
     218A      2.399176   219A      2.427498   220A      2.446860  
     221A      2.458536   222A      2.480702   223A      2.505274  
     224A      2.518557   225A      2.567184   226A      2.576542  
     227A      2.597067   228A      2.621218   229A      2.645960  
     230A      2.655511   231A      2.687238   232A      2.745087  
     233A      2.785289   234A      2.817687   235A      2.845268  
     236A      2.883303   237A      2.911336   238A      2.942004  
     239A      2.971972   240A      2.982392   241A      3.013838  
     242A      3.042918   243A      3.081272   244A      3.094893  
     245A      3.097845   246A      3.174771   247A      3.183329  
     248A      3.202346   249A      3.258567   250A      3.277288  
     251A      3.335172   252A      3.353251   253A      3.378863  
     254A      3.412862   255A      3.433424   256A      3.443973  
     257A      3.450767   258A      3.499630   259A      3.517048  
     260A      3.545311   261A      3.552002   262A      3.571316  
     263A      3.576275   264A      3.605255   265A      3.613466  
     266A      3.619707   267A      3.637777   268A      3.640589  
     269A      3.665073   270A      3.683168   271A      3.689572  
     272A      3.709000   273A      3.715396   274A      3.733404  
     275A      3.752755   276A      3.758835   277A      3.763525  
     278A      3.769399   279A      3.781789   280A      3.796886  
     281A      3.808540   282A      3.819872   283A      3.837375  
     284A      3.848532   285A      3.854236   286A      3.870873  
     287A      3.882989   288A      3.909150   289A      3.916673  
     290A      3.948151   291A      3.967334   292A      3.993187  
     293A      4.005210   294A      4.029605   295A      4.064866  
     296A      4.072884   297A      4.111515   298A      4.130113  
     299A      4.142237   300A      4.162005   301A      4.174068  
     302A      4.193071   303A      4.220157   304A      4.238234  
     305A      4.240454   306A      4.257477   307A      4.293392  
     308A      4.298614   309A      4.321856   310A      4.330109  
     311A      4.346107   312A      4.367775   313A      4.386037  
     314A      4.400368   315A      4.411798   316A      4.416685  
     317A      4.423708   318A      4.450021   319A      4.466076  
     320A      4.477554   321A      4.483979   322A      4.498512  
     323A      4.522134   324A      4.530892   325A      4.546843  
     326A      4.560044   327A      4.590024   328A      4.598316  
     329A      4.606850   330A      4.613128   331A      4.635119  
     332A      4.649057   333A      4.661332   334A      4.684322  
     335A      4.700280   336A      4.724050   337A      4.736344  
     338A      4.742801   339A      4.748536   340A      4.763074  
     341A      4.771771   342A      4.780089   343A      4.787868  
     344A      4.795773   345A      4.813902   346A      4.822577  
     347A      4.838668   348A      4.853422   349A      4.865852  
     350A      4.884560   351A      4.903547   352A      4.913320  
     353A      4.922916   354A      4.945607   355A      4.948825  
     356A      4.957767   357A      4.969547   358A      4.987241  
     359A      5.001464   360A      5.010130   361A      5.036038  
     362A      5.050979   363A      5.059409   364A      5.072403  
     365A      5.097686   366A      5.118226   367A      5.124186  
     368A      5.142268   369A      5.153424   370A      5.169301  
     371A      5.189078   372A      5.212118   373A      5.246745  
     374A      5.287627   375A      5.308794   376A      5.338614  
     377A      5.352407   378A      5.398083   379A      5.424738  
     380A      5.439739   381A      5.478432   382A      5.494258  
     383A      5.512554   384A      5.571827   385A      5.579375  
     386A      5.598043   387A      5.604799   388A      5.623264  
     389A      5.650432   390A      5.666618   391A      5.679680  
     392A      5.713675   393A      5.729286   394A      5.738332  
     395A      5.811909   396A      5.828316   397A      5.854140  
     398A      5.882263   399A      5.885726   400A      5.893811  
     401A      5.927965   402A      5.961269   403A      6.008425  
     404A      6.053115   405A      6.106916   406A      6.138552  
     407A      6.159516   408A      6.197066   409A      6.247712  
     410A      6.275546   411A      6.305946   412A      6.349617  
     413A      6.389018   414A      6.403901   415A      6.417395  
     416A      6.435785   417A      6.467123   418A      6.472287  
     419A      6.510380   420A      6.632819   421A      6.674513  
     422A      6.724876   423A      6.751683   424A      6.857960  
     425A      6.933863   426A      6.959187   427A      6.962784  
     428A      6.990800   429A      7.075816   430A      7.104609  
     431A      7.219326   432A      7.276997   433A      7.289618  
     434A      7.295703   435A      7.349779   436A      7.365422  
     437A      7.405036   438A      7.436417   439A      7.465990  
     440A      7.491011   441A      7.532406   442A      7.566363  
     443A      7.625015   444A      7.649324   445A      7.689056  
     446A      7.734728   447A      7.744095   448A      7.808255  
     449A      7.832691   450A      7.846483   451A      7.862780  
     452A      7.925642   453A      7.946709   454A      7.986231  
     455A      8.071935   456A      8.182861   457A      8.215948  
     458A      8.343345   459A      8.471478   460A      8.591782  
     461A      9.541872   462A      9.629578   463A      9.786186  
     464A      9.876437   465A      9.922846   466A     10.140435  
     467A     10.167792   468A     10.487760   469A     11.216850  
     470A     11.675260   471A     12.183332   472A     12.756717  
     473A     13.605063   474A     13.903767   475A     14.364162  
     476A     14.736470   477A     44.077640   478A     44.902410  
     479A     45.756315   480A     61.508339  

    Final Occupation by Irrep:
              A 
    DOCC [    16 ]

  @DF-RHF Final Energy:  -227.90262269475642

   => Energetics <=

    Nuclear Repulsion Energy =            121.0999030130768972
    One-Electron Energy =                -551.6318510899839112
    Two-Electron Energy =                 202.6293253821506255
    Total Energy =                       -227.9026226947564169

Computation Completed


Properties will be evaluated at   0.000000,   0.000000,   0.000000 [a0]

Properties computed using the SCF density matrix

  Nuclear Dipole Moment: [e a0]
     X:  -118.4606      Y:     2.4046      Z:     0.7340

  Electronic Dipole Moment: [e a0]
     X:   118.0956      Y:    -2.0850      Z:    -1.4269

  Dipole Moment: [e a0]
     X:    -0.3650      Y:     0.3196      Z:    -0.6928     Total:     0.8458

  Dipole Moment: [D]
     X:    -0.9278      Y:     0.8124      Z:    -1.7610     Total:     2.1499


*** tstop() called on r282 at Fri Sep 10 17:34:12 2021
Module time:
	user time   =      32.97 seconds =       0.55 minutes
	system time =       0.58 seconds =       0.01 minutes
	total time  =         34 seconds =       0.57 minutes
Total time:
	user time   =      92.44 seconds =       1.54 minutes
	system time =       1.87 seconds =       0.03 minutes
	total time  =         95 seconds =       1.58 minutes

  //>>>>>>>>>>>>>>>>>>>>>>>>>>>>>>>>>>>//
  //            Monomer B HF           //
  //<<<<<<<<<<<<<<<<<<<<<<<<<<<<<<<<<<<//


*** tstart() called on r282
*** at Fri Sep 10 17:34:12 2021

   => Loading Basis Set <=

    Name: JUN-CC-PVTZ
    Role: ORBITAL
    Keyword: BASIS
    atoms 1, 5, 9-10, 17              entry C          line   217 file /home/r08543048/miniconda3/share/psi4/basis/jun-cc-pvtz.gbs 
    atoms 2-3, 13                     entry O          line   305 file /home/r08543048/miniconda3/share/psi4/basis/jun-cc-pvtz.gbs 
    atoms 4, 6-8, 11-12, 14-16, 18-20 entry H          line    36 file /home/r08543048/miniconda3/share/psi4/basis/jun-cc-pvtz.gbs 


         ---------------------------------------------------------
                                   SCF
               by Justin Turney, Rob Parrish, Andy Simmonett
                          and Daniel G. A. Smith
                              RHF Reference
                        1 Threads,  20980 MiB Core
         ---------------------------------------------------------

  ==> Geometry <==

    Molecular point group: c1
    Full point group: C1

    Geometry (in Angstrom), charge = 0, multiplicity = 1:

       Center              X                  Y                   Z               Mass       
    ------------   -----------------  -----------------  -----------------  -----------------
      Gh(C)          -1.863130911870    -0.022909881215     0.103346328596    12.000000000000
      Gh(O)          -1.293095911870    -0.491345881215     1.077124328596    15.994914619570
      Gh(O)          -1.321042911870     0.026844118785    -1.118613671404    15.994914619570
      Gh(H)          -0.414830911870    -0.368826881215    -1.059322671404     1.007825032230
      Gh(C)          -3.242162911870     0.562422118785     0.131469328596    12.000000000000
      Gh(H)          -3.643892911870     0.507541118785     1.136668328596     1.007825032230
      Gh(H)          -3.203271911870     1.596667118785    -0.205072671404     1.007825032230
      Gh(H)          -3.879798911870     0.016012118785    -0.560829671404     1.007825032230
         C            2.512641088130     0.450034118785     0.599870328596    12.000000000000
         C            2.342156088130    -0.852595881215    -0.160564671404    12.000000000000
         H            2.040849088130     0.351606118785     1.581373328596     1.007825032230
         H            3.581030088130     0.593210118785     0.779820328596     1.007825032230
         O            0.969929088130    -1.190609881215    -0.382948671404    15.994914619570
         H            2.788668088130    -0.775908881215    -1.151991671404     1.007825032230
         H            2.835338088130    -1.670809881215     0.369691328596     1.007825032230
         H            0.492936088130    -1.166724881215     0.465216328596     1.007825032230
         C            1.939779088130     1.652234118785    -0.139113671404    12.000000000000
         H            0.866155088130     1.549227118785    -0.287740671404     1.007825032230
         H            2.112140088130     2.572203118785     0.417734328596     1.007825032230
         H            2.405483088130     1.760112118785    -1.119651671404     1.007825032230

  Running in c1 symmetry.

  Rotational constants: A =      0.11243  B =      0.02995  C =      0.02798 [cm^-1]
  Rotational constants: A =   3370.45779  B =    897.77538  C =    838.86620 [MHz]
  Nuclear repulsion =  132.590956243692204

  Charge       = 0
  Multiplicity = 1
  Electrons    = 34
  Nalpha       = 17
  Nbeta        = 17

  ==> Algorithm <==

  SCF Algorithm Type is DF.
  DIIS enabled.
  MOM disabled.
  Fractional occupation disabled.
  Guess Type is SAD.
  Energy threshold   = 1.00e-08
  Density threshold  = 1.00e-08
  Integral threshold = 0.00e+00

  ==> Primary Basis <==

  Basis Set: JUN-CC-PVTZ
    Blend: JUN-CC-PVTZ
    Number of shells: 176
    Number of basis function: 480
    Number of Cartesian functions: 540
    Spherical Harmonics?: true
    Max angular momentum: 3

   => Loading Basis Set <=

    Name: (JUN-CC-PVTZ AUX)
    Role: JKFIT
    Keyword: DF_BASIS_SCF
    atoms 1, 5, 9-10, 17              entry C          line   152 file /home/r08543048/miniconda3/share/psi4/basis/jun-cc-pvtz-jkfit.gbs 
    atoms 2-3, 13                     entry O          line   272 file /home/r08543048/miniconda3/share/psi4/basis/jun-cc-pvtz-jkfit.gbs 
    atoms 4, 6-8, 11-12, 14-16, 18-20 entry H          line    70 file /home/r08543048/miniconda3/share/psi4/basis/jun-cc-pvtz-jkfit.gbs 

  ==> Pre-Iterations <==

   -------------------------------------------------------
    Irrep   Nso     Nmo     Nalpha   Nbeta   Ndocc  Nsocc
   -------------------------------------------------------
     A        480     480       0       0       0       0
   -------------------------------------------------------
    Total     480     480      17      17      17       0
   -------------------------------------------------------

  ==> Integral Setup <==

  ==> DiskDFJK: Density-Fitted J/K Matrices <==

    J tasked:                  Yes
    K tasked:                  Yes
    wK tasked:                  No
    OpenMP threads:              1
    Integrals threads:           1
    Memory [MiB]:            15735
    Algorithm:                Core
    Integral Cache:           LOAD
    Schwarz Cutoff:          1E-12
    Fitting Condition:       1E-10

   => Auxiliary Basis Set <=

  Basis Set: (JUN-CC-PVTZ AUX)
    Blend: JUN-CC-PVTZ-JKFIT
    Number of shells: 352
    Number of basis function: 1120
    Number of Cartesian functions: 1348
    Spherical Harmonics?: true
    Max angular momentum: 4

  Minimum eigenvalue in the overlap matrix is 5.1496344706E-05.
  Using Symmetric Orthogonalization.

  SCF Guess: Superposition of Atomic Densities via on-the-fly atomic UHF.

  ==> Iterations <==

                           Total Energy        Delta E     RMS |[F,P]|

   @DF-RHF iter SAD:  -192.48508222556364   -1.92485e+02   0.00000e+00 
   @DF-RHF iter   1:  -193.01113962185266   -5.26057e-01   1.18856e-03 DIIS
   @DF-RHF iter   2:  -193.15195973706466   -1.40820e-01   6.29603e-04 DIIS
   @DF-RHF iter   3:  -193.18878797302335   -3.68282e-02   1.07681e-04 DIIS
   @DF-RHF iter   4:  -193.19089887151165   -2.11090e-03   3.95838e-05 DIIS
   @DF-RHF iter   5:  -193.19110314174108   -2.04270e-04   8.88100e-06 DIIS
   @DF-RHF iter   6:  -193.19111762028871   -1.44785e-05   1.86863e-06 DIIS
   @DF-RHF iter   7:  -193.19111860248452   -9.82196e-07   4.76412e-07 DIIS
   @DF-RHF iter   8:  -193.19111866317593   -6.06914e-08   1.60641e-07 DIIS
   @DF-RHF iter   9:  -193.19111866993615   -6.76022e-09   4.37405e-08 DIIS
   @DF-RHF iter  10:  -193.19111867051450   -5.78353e-10   9.44077e-09 DIIS
  Energy and wave function converged.


  ==> Post-Iterations <==

    Orbital Energies [Eh]
    ---------------------

    Doubly Occupied:                                                      

       1A    -20.553899     2A    -11.271310     3A    -11.224005  
       4A    -11.211296     5A     -1.350100     6A     -1.052438  
       7A     -0.921433     8A     -0.812837     9A     -0.667623  
      10A     -0.638002    11A     -0.630586    12A     -0.564909  
      13A     -0.534317    14A     -0.518883    15A     -0.486830  
      16A     -0.470537    17A     -0.437274  

    Virtual:                                                              

      18A      0.034391    19A      0.050304    20A      0.056144  
      21A      0.059950    22A      0.065429    23A      0.074857  
      24A      0.077180    25A      0.091011    26A      0.097389  
      27A      0.099596    28A      0.105794    29A      0.108319  
      30A      0.123809    31A      0.133448    32A      0.138494  
      33A      0.143635    34A      0.154160    35A      0.162803  
      36A      0.169400    37A      0.177376    38A      0.185523  
      39A      0.196333    40A      0.212255    41A      0.214717  
      42A      0.223760    43A      0.226581    44A      0.230397  
      45A      0.241406    46A      0.249186    47A      0.261536  
      48A      0.272012    49A      0.278861    50A      0.283882  
      51A      0.293557    52A      0.297569    53A      0.303865  
      54A      0.317059    55A      0.319317    56A      0.321357  
      57A      0.329159    58A      0.344559    59A      0.349855  
      60A      0.356242    61A      0.359072    62A      0.364186  
      63A      0.369052    64A      0.370385    65A      0.387472  
      66A      0.395261    67A      0.398525    68A      0.406102  
      69A      0.414029    70A      0.419920    71A      0.423057  
      72A      0.431765    73A      0.438897    74A      0.463232  
      75A      0.468825    76A      0.477421    77A      0.481894  
      78A      0.492239    79A      0.495402    80A      0.501537  
      81A      0.509966    82A      0.513381    83A      0.531227  
      84A      0.534005    85A      0.540296    86A      0.548382  
      87A      0.561209    88A      0.561485    89A      0.564950  
      90A      0.577078    91A      0.593116    92A      0.609845  
      93A      0.622854    94A      0.644747    95A      0.646676  
      96A      0.664517    97A      0.685774    98A      0.689499  
      99A      0.691966   100A      0.717189   101A      0.734837  
     102A      0.743711   103A      0.753337   104A      0.763618  
     105A      0.771452   106A      0.780075   107A      0.790214  
     108A      0.798082   109A      0.807912   110A      0.814418  
     111A      0.818722   112A      0.828809   113A      0.842395  
     114A      0.855173   115A      0.857708   116A      0.868621  
     117A      0.874110   118A      0.884806   119A      0.905941  
     120A      0.913460   121A      0.931083   122A      0.947704  
     123A      0.955636   124A      0.964822   125A      0.972073  
     126A      0.983609   127A      0.995779   128A      1.009967  
     129A      1.019521   130A      1.029259   131A      1.041891  
     132A      1.051179   133A      1.055995   134A      1.075966  
     135A      1.080647   136A      1.086890   137A      1.095430  
     138A      1.102486   139A      1.126644   140A      1.143414  
     141A      1.147904   142A      1.155417   143A      1.185319  
     144A      1.194806   145A      1.206287   146A      1.211862  
     147A      1.228289   148A      1.244991   149A      1.258735  
     150A      1.266863   151A      1.283065   152A      1.291035  
     153A      1.302388   154A      1.316290   155A      1.333678  
     156A      1.334961   157A      1.350396   158A      1.358065  
     159A      1.368753   160A      1.393614   161A      1.403875  
     162A      1.409707   163A      1.429011   164A      1.439485  
     165A      1.449698   166A      1.458565   167A      1.481525  
     168A      1.485639   169A      1.494567   170A      1.505935  
     171A      1.521635   172A      1.534628   173A      1.551763  
     174A      1.554169   175A      1.561436   176A      1.576343  
     177A      1.584849   178A      1.604674   179A      1.616418  
     180A      1.624191   181A      1.629485   182A      1.637385  
     183A      1.650302   184A      1.678873   185A      1.686936  
     186A      1.693751   187A      1.715627   188A      1.721159  
     189A      1.729071   190A      1.776291   191A      1.797094  
     192A      1.804052   193A      1.827386   194A      1.828278  
     195A      1.842345   196A      1.859701   197A      1.877878  
     198A      1.890790   199A      1.901228   200A      1.909636  
     201A      1.925511   202A      1.937328   203A      1.967715  
     204A      1.985619   205A      1.998066   206A      2.010253  
     207A      2.039351   208A      2.072749   209A      2.102579  
     210A      2.142203   211A      2.170349   212A      2.193795  
     213A      2.275382   214A      2.342811   215A      2.381230  
     216A      2.406769   217A      2.427128   218A      2.453364  
     219A      2.504340   220A      2.513800   221A      2.563830  
     222A      2.585562   223A      2.613931   224A      2.678945  
     225A      2.741931   226A      2.761074   227A      2.797396  
     228A      2.810562   229A      2.823525   230A      2.830109  
     231A      2.841562   232A      2.852011   233A      2.882559  
     234A      2.904499   235A      2.928555   236A      2.936443  
     237A      2.952071   238A      2.969184   239A      3.001666  
     240A      3.006714   241A      3.025387   242A      3.033549  
     243A      3.061740   244A      3.067581   245A      3.094369  
     246A      3.101136   247A      3.126154   248A      3.158015  
     249A      3.180129   250A      3.183652   251A      3.215915  
     252A      3.259092   253A      3.269373   254A      3.281484  
     255A      3.310261   256A      3.336533   257A      3.358200  
     258A      3.396238   259A      3.403798   260A      3.410661  
     261A      3.420910   262A      3.434420   263A      3.448877  
     264A      3.461212   265A      3.478474   266A      3.494101  
     267A      3.505262   268A      3.514192   269A      3.546091  
     270A      3.548811   271A      3.559257   272A      3.586727  
     273A      3.591078   274A      3.595326   275A      3.612446  
     276A      3.622820   277A      3.635890   278A      3.657116  
     279A      3.698262   280A      3.706795   281A      3.712079  
     282A      3.719461   283A      3.732830   284A      3.759901  
     285A      3.768389   286A      3.789901   287A      3.791246  
     288A      3.823698   289A      3.835621   290A      3.865531  
     291A      3.888267   292A      3.888667   293A      3.901489  
     294A      3.918297   295A      3.920399   296A      3.945196  
     297A      3.950431   298A      3.964899   299A      3.974793  
     300A      3.990860   301A      4.000600   302A      4.013613  
     303A      4.044619   304A      4.084371   305A      4.097349  
     306A      4.121690   307A      4.147606   308A      4.164838  
     309A      4.171278   310A      4.226025   311A      4.235376  
     312A      4.238908   313A      4.262202   314A      4.273769  
     315A      4.281627   316A      4.306643   317A      4.318838  
     318A      4.325676   319A      4.332953   320A      4.342545  
     321A      4.373398   322A      4.379056   323A      4.390901  
     324A      4.405185   325A      4.412847   326A      4.423323  
     327A      4.437855   328A      4.440938   329A      4.473219  
     330A      4.479583   331A      4.483393   332A      4.502726  
     333A      4.519555   334A      4.526081   335A      4.545763  
     336A      4.560880   337A      4.570488   338A      4.578225  
     339A      4.594259   340A      4.621805   341A      4.645546  
     342A      4.647050   343A      4.656938   344A      4.682847  
     345A      4.692213   346A      4.717176   347A      4.733955  
     348A      4.754684   349A      4.757342   350A      4.765646  
     351A      4.783216   352A      4.792987   353A      4.818493  
     354A      4.844875   355A      4.850809   356A      4.856662  
     357A      4.867343   358A      4.877832   359A      4.885108  
     360A      4.900946   361A      4.919489   362A      4.925646  
     363A      4.961600   364A      4.987746   365A      5.017746  
     366A      5.023876   367A      5.040828   368A      5.079351  
     369A      5.087890   370A      5.109405   371A      5.135361  
     372A      5.149706   373A      5.168923   374A      5.198700  
     375A      5.210178   376A      5.222488   377A      5.253195  
     378A      5.265231   379A      5.300389   380A      5.308500  
     381A      5.336024   382A      5.338671   383A      5.400348  
     384A      5.408289   385A      5.414232   386A      5.495906  
     387A      5.505691   388A      5.519101   389A      5.542307  
     390A      5.590420   391A      5.607571   392A      5.635467  
     393A      5.670569   394A      5.692788   395A      5.706056  
     396A      5.757173   397A      5.786300   398A      5.794619  
     399A      5.836731   400A      5.850418   401A      5.910384  
     402A      5.921250   403A      5.944803   404A      5.988565  
     405A      6.007035   406A      6.039298   407A      6.071204  
     408A      6.078073   409A      6.121596   410A      6.151763  
     411A      6.177011   412A      6.264762   413A      6.272340  
     414A      6.328940   415A      6.340841   416A      6.443693  
     417A      6.483844   418A      6.510545   419A      6.517392  
     420A      6.544461   421A      6.548243   422A      6.562562  
     423A      6.634652   424A      6.691314   425A      6.746721  
     426A      6.811811   427A      6.962658   428A      7.036743  
     429A      7.063635   430A      7.153825   431A      7.193619  
     432A      7.222875   433A      7.252107   434A      7.349094  
     435A      7.393148   436A      7.516794   437A      7.518765  
     438A      7.545948   439A      7.626324   440A      7.667826  
     441A      7.751041   442A      7.811339   443A      7.845855  
     444A      7.859710   445A      7.916393   446A      7.938899  
     447A      8.032252   448A      8.136456   449A      8.218477  
     450A      8.366032   451A      8.674809   452A      8.862250  
     453A      9.138576   454A      9.443610   455A      9.706865  
     456A      9.800713   457A      9.874448   458A      9.906852  
     459A      9.922830   460A      9.928463   461A      9.970425  
     462A     10.098138   463A     10.399311   464A     10.495410  
     465A     11.026307   466A     11.366228   467A     11.597469  
     468A     11.623945   469A     11.997596   470A     13.109165  
     471A     13.706656   472A     13.742340   473A     13.912168  
     474A     13.948851   475A     14.139736   476A     14.667902  
     477A     42.910221   478A     46.104384   479A     60.991792  
     480A     61.834769  

    Final Occupation by Irrep:
              A 
    DOCC [    17 ]

  @DF-RHF Final Energy:  -193.19111867051450

   => Energetics <=

    Nuclear Repulsion Energy =            132.5909562436922045
    One-Electron Energy =                -524.8715902290027771
    Two-Electron Energy =                 199.0895153147961025
    Total Energy =                       -193.1911186705144985

Computation Completed


Properties will be evaluated at   0.000000,   0.000000,   0.000000 [a0]

Properties computed using the SCF density matrix

  Nuclear Dipole Moment: [e a0]
     X:   124.0596      Y:     2.2413      Z:    -0.3930

  Electronic Dipole Moment: [e a0]
     X:  -123.7409      Y:    -2.0178      Z:     1.0068

  Dipole Moment: [e a0]
     X:     0.3187      Y:     0.2235      Z:     0.6138     Total:     0.7268

  Dipole Moment: [D]
     X:     0.8100      Y:     0.5681      Z:     1.5601     Total:     1.8474


*** tstop() called on r282 at Fri Sep 10 17:34:43 2021
Module time:
	user time   =      30.81 seconds =       0.51 minutes
	system time =       0.58 seconds =       0.01 minutes
	total time  =         31 seconds =       0.52 minutes
Total time:
	user time   =     123.26 seconds =       2.05 minutes
	system time =       2.45 seconds =       0.04 minutes
	total time  =        126 seconds =       2.10 minutes
  Constructing Basis Sets for SAPT...

   => Loading Basis Set <=

    Name: (JUN-CC-PVTZ AUX)
    Role: RIFIT
    Keyword: DF_BASIS_SAPT
    atoms 1, 5, 9-10, 17              entry C          line   132 file /home/r08543048/miniconda3/share/psi4/basis/jun-cc-pvtz-ri.gbs 
    atoms 2-3, 13                     entry O          line   244 file /home/r08543048/miniconda3/share/psi4/basis/jun-cc-pvtz-ri.gbs 
    atoms 4, 6-8, 11-12, 14-16, 18-20 entry H          line    30 file /home/r08543048/miniconda3/share/psi4/basis/jun-cc-pvtz-ri.gbs 


  //>>>>>>>>>>>>>>>>>>>>>>>>>>>>>>>>>>>//
  //               SAPT0               //
  //<<<<<<<<<<<<<<<<<<<<<<<<<<<<<<<<<<<//


*** tstart() called on r282
*** at Fri Sep 10 17:34:43 2021

        SAPT0  
    Ed Hohenstein
     6 June 2009

      Orbital Information
  --------------------------
    NSO        =       480
    NMO        =       480
    NRI        =      1136
    NOCC A     =        16
    NOCC B     =        17
    FOCC A     =         0
    FOCC B     =         0
    NVIR A     =       464
    NVIR B     =       463

    Elst10,r            =    -0.035465719654 [Eh]
    Exch10              =     0.036943193193 [Eh]
    Exch10 (S^2)        =     0.036504809201 [Eh]

    Iter     Energy [mEh]          dE [mEh]         Residual      Time [s]
       1      -6.63895501       6.638955012      14.411225868             1
       2      -8.00991981       1.370964794       7.630640183             2
       3      -8.29050100       0.280581198       2.193037528             3
       4      -8.21764408      -0.072856924       0.788611300             4
       5      -8.21436786      -0.003276223       0.272896503             5
       6      -8.22050660       0.006138739       0.100380748             6
       7      -8.22075950       0.000252900       0.028564039             6
       8      -8.22026705      -0.000492448       0.009565868             7
       9      -8.22019484      -0.000072204       0.002763169             8
      10      -8.22024229       0.000047449       0.000625444             9
      11      -8.22024194      -0.000000357       0.000137405            10
      12      -8.22024014      -0.000001796       0.000033746            11
      13      -8.22024027       0.000000129       0.000010272            12
      14      -8.22024039       0.000000118       0.000004222            12
      15      -8.22024036      -0.000000031       0.000001801            13
      16      -8.22024034      -0.000000012       0.000000521            14

    CHF Iterations converged


    Iter     Energy [mEh]          dE [mEh]         Residual      Time [s]
       1      -9.02319679       9.023196786      18.980129395             1
       2     -10.93110220       1.907905415       9.269318134             2
       3     -11.35846321       0.427361009       2.510219121             3
       4     -11.33606389      -0.022399323       0.726911408             4
       5     -11.30598710      -0.030076788       0.147436315             5
       6     -11.30859037       0.002603269       0.055209206             5
       7     -11.30983117       0.001240807       0.014427264             6
       8     -11.30955046      -0.000280714       0.003973288             7
       9     -11.30951743      -0.000033034       0.001052132             8
      10     -11.30953810       0.000020670       0.000302124             9
      11     -11.30953827       0.000000171       0.000089321            10
      12     -11.30953693      -0.000001341       0.000027068            11
      13     -11.30953695       0.000000030       0.000006327            12
      14     -11.30953704       0.000000090       0.000001330            13
      15     -11.30953704      -0.000000007       0.000000417            13

    CHF Iterations converged

    Ind20,r (A<-B)      =    -0.008220240344 [Eh]
    Ind20,r (B<-A)      =    -0.011309537037 [Eh]
    Ind20,r             =    -0.019529777382 [Eh]
    Exch-Ind20,r (A<-B) =     0.005839356144 [Eh]
    Exch-Ind20,r (B<-A) =     0.005900491005 [Eh]
    Exch-Ind20,r        =     0.011739847150 [Eh]
    Disp20              =    -0.014330640310 [Eh]
    Disp20 (SS)         =    -0.007165320155 [Eh]
    Disp20 (OS)         =    -0.007165320155 [Eh]
    Exch-Disp20         =     0.002654863709 [Eh]
    Exch-Disp20 (SS)    =     0.001666436008 [Eh]
    Exch-Disp20 (OS)    =     0.000988427701 [Eh]

    SAPT Results 
  --------------------------------------------------------------------------------------------------------
    Electrostatics                -35.46571965 [mEh]     -22.25507508 [kcal/mol]     -93.11523412 [kJ/mol]
      Elst10,r                    -35.46571965 [mEh]     -22.25507508 [kcal/mol]     -93.11523412 [kJ/mol]

    Exchange                       36.94319319 [mEh]      23.18220372 [kcal/mol]      96.99434037 [kJ/mol]
      Exch10                       36.94319319 [mEh]      23.18220372 [kcal/mol]      96.99434037 [kJ/mol]
      Exch10(S^2)                  36.50480920 [mEh]      22.90711361 [kcal/mol]      95.84336335 [kJ/mol]

    Induction                     -13.25830513 [mEh]      -8.31971207 [kcal/mol]     -34.80967531 [kJ/mol]
      Ind20,r                     -19.52977738 [mEh]     -12.25512033 [kcal/mol]     -51.27542345 [kJ/mol]
      Exch-Ind20,r                 11.73984715 [mEh]       7.36686531 [kcal/mol]      30.82296445 [kJ/mol]
      delta HF,r (2)               -5.46837489 [mEh]      -3.43145705 [kcal/mol]     -14.35721631 [kJ/mol]

    Dispersion                    -11.67577660 [mEh]      -7.32666043 [kcal/mol]     -30.65474724 [kJ/mol]
      Disp20                      -14.33064031 [mEh]      -8.99261256 [kcal/mol]     -37.62509095 [kJ/mol]
      Exch-Disp20                   2.65486371 [mEh]       1.66595213 [kcal/mol]       6.97034371 [kJ/mol]
      Disp20 (SS)                  -7.16532016 [mEh]      -4.49630628 [kcal/mol]     -18.81254548 [kJ/mol]
      Disp20 (OS)                  -7.16532016 [mEh]      -4.49630628 [kcal/mol]     -18.81254548 [kJ/mol]
      Exch-Disp20 (SS)              1.66643601 [mEh]       1.04570438 [kcal/mol]       4.37522714 [kJ/mol]
      Exch-Disp20 (OS)              0.98842770 [mEh]       0.62024775 [kcal/mol]       2.59511657 [kJ/mol]

  Total HF                        -11.78083159 [mEh]      -7.39258343 [kcal/mol]     -30.93056907 [kJ/mol]
  Total SAPT0                     -23.45660819 [mEh]     -14.71924386 [kcal/mol]     -61.58531631 [kJ/mol]

  Special recipe for scaled SAPT0 (see Manual):
    Electrostatics sSAPT0         -35.46571965 [mEh]     -22.25507508 [kcal/mol]     -93.11523412 [kJ/mol]
    Exchange sSAPT0                36.94319319 [mEh]      23.18220372 [kcal/mol]      96.99434037 [kJ/mol]
    Induction sSAPT0              -12.83025633 [mEh]      -8.05110740 [kcal/mol]     -33.68583336 [kJ/mol]
    Dispersion sSAPT0             -11.57897711 [mEh]      -7.26591783 [kcal/mol]     -30.40060022 [kJ/mol]
  Total sSAPT0                    -22.93175990 [mEh]     -14.38989659 [kcal/mol]     -60.20732733 [kJ/mol]
  --------------------------------------------------------------------------------------------------------

*** tstop() called on r282 at Fri Sep 10 17:36:33 2021
Module time:
	user time   =      92.81 seconds =       1.55 minutes
	system time =      16.54 seconds =       0.28 minutes
	total time  =        110 seconds =       1.83 minutes
Total time:
	user time   =     216.20 seconds =       3.60 minutes
	system time =      18.99 seconds =       0.32 minutes
	total time  =        236 seconds =       3.93 minutes

    Psi4 stopped on: Friday, 10 September 2021 05:36PM
    Psi4 wall time for execution: 0:03:55.78

*** Psi4 exiting successfully. Buy a developer a beer!
