
    -----------------------------------------------------------------------
          Psi4: An Open-Source Ab Initio Electronic Structure Package
                               Psi4 1.3.2 release

                         Git: Rev {HEAD} ecbda83 


    R. M. Parrish, L. A. Burns, D. G. A. Smith, A. C. Simmonett,
    A. E. DePrince III, E. G. Hohenstein, U. Bozkaya, A. Yu. Sokolov,
    R. Di Remigio, R. M. Richard, J. F. Gonthier, A. M. James,
    H. R. McAlexander, A. Kumar, M. Saitow, X. Wang, B. P. Pritchard,
    P. Verma, H. F. Schaefer III, K. Patkowski, R. A. King, E. F. Valeev,
    F. A. Evangelista, J. M. Turney, T. D. Crawford, and C. D. Sherrill,
    J. Chem. Theory Comput. 13(7) pp 3185--3197 (2017).
    (doi: 10.1021/acs.jctc.7b00174)


                         Additional Contributions by
    P. Kraus, H. Kruse, M. H. Lechner, M. C. Schieber, R. A. Shaw,
    A. Alenaizan, R. Galvelis, Z. L. Glick, S. Lehtola, and J. P. Misiewicz

    -----------------------------------------------------------------------


    Psi4 started on: Friday, 10 September 2021 05:26PM

    Process ID: 56906
    Host:       r282
    PSIDATADIR: /home/r08543048/miniconda3/share/psi4
    Memory:     500.0 MiB
    Threads:    1
    
  ==> Input File <==

--------------------------------------------------------------------------
# Any line starting with the # character is a comment line
#! Sample  computation

memory 22 gb

molecule Dimer {
0 1
 C  3.638015    0.524933   -0.746054
 C  2.842124    0.198901    0.504883
 C  1.441455   -0.257357    0.203390
 O  0.978035   -0.361051   -0.922583
 O  0.753346   -0.537606    1.315987
 H  3.156933    1.317648   -1.315088
 H  4.642911    0.848882   -0.481362
 H  3.713728   -0.345702   -1.393944
 H  2.763970    1.060123    1.170704
 H  3.316898   -0.588803    1.092349
 H -0.155162   -0.820996    1.042081




    
    
    
 --
0 1
 C -2.792228    0.713548   -0.598324 
 C -2.792860   -0.766477   -0.260843
 H -2.201054    0.869781   -1.504857
 H -3.818445    1.000170   -0.841392
 O -1.481920   -1.278285   -0.004296
 H -3.361748   -0.948729    0.650963
 H -3.254694   -1.340842   -1.067568
 H -0.895499   -1.039678   -0.743777
 C -2.258597    1.583740    0.531997
 H -1.220862    1.344319    0.758237
 H -2.307267    2.639559    0.269197
 H -2.842853    1.436062    1.441297

 

 
 







units angstrom

no_reorient
symmetry c1
}

set globals{
  basis jun-cc-pvtz
}

energy('sapt0')


--------------------------------------------------------------------------

  Memory set to  20.489 GiB by Python driver.

  //>>>>>>>>>>>>>>>>>>>>>>>>>>>>>>>>>>>//
  //              Dimer HF             //
  //<<<<<<<<<<<<<<<<<<<<<<<<<<<<<<<<<<<//


*** tstart() called on r282
*** at Fri Sep 10 17:26:24 2021

   => Loading Basis Set <=

    Name: JUN-CC-PVTZ
    Role: ORBITAL
    Keyword: BASIS
    atoms 1-3, 12-13, 20            entry C          line   217 file /home/r08543048/miniconda3/share/psi4/basis/jun-cc-pvtz.gbs 
    atoms 4-5, 16                   entry O          line   305 file /home/r08543048/miniconda3/share/psi4/basis/jun-cc-pvtz.gbs 
    atoms 6-11, 14-15, 17-19, 21-23 entry H          line    36 file /home/r08543048/miniconda3/share/psi4/basis/jun-cc-pvtz.gbs 


         ---------------------------------------------------------
                                   SCF
               by Justin Turney, Rob Parrish, Andy Simmonett
                          and Daniel G. A. Smith
                              RHF Reference
                        1 Threads,  20980 MiB Core
         ---------------------------------------------------------

  ==> Geometry <==

    Molecular point group: c1
    Full point group: C1

    Geometry (in Angstrom), charge = 0, multiplicity = 1:

       Center              X                  Y                   Z               Mass       
    ------------   -----------------  -----------------  -----------------  -----------------
         C            3.619799480635     0.565040951545    -0.752869752197    12.000000000000
         C            2.823908480635     0.239008951545     0.498067247803    12.000000000000
         C            1.423239480635    -0.217249048455     0.196574247803    12.000000000000
         O            0.959819480635    -0.320943048455    -0.929398752197    15.994914619570
         O            0.735130480635    -0.497498048455     1.309171247803    15.994914619570
         H            3.138717480635     1.357755951545    -1.321903752197     1.007825032230
         H            4.624695480635     0.888989951545    -0.488177752197     1.007825032230
         H            3.695512480635    -0.305594048455    -1.400759752197     1.007825032230
         H            2.745754480635     1.100230951545     1.163888247803     1.007825032230
         H            3.298682480635    -0.548695048455     1.085533247803     1.007825032230
         H           -0.173377519365    -0.780888048455     1.035265247803     1.007825032230
         C           -2.810443519365     0.753655951545    -0.605139752197    12.000000000000
         C           -2.811075519365    -0.726369048455    -0.267658752197    12.000000000000
         H           -2.219269519365     0.909888951545    -1.511672752197     1.007825032230
         H           -3.836660519365     1.040277951545    -0.848207752197     1.007825032230
         O           -1.500135519365    -1.238177048455    -0.011111752197    15.994914619570
         H           -3.379963519365    -0.908621048455     0.644147247803     1.007825032230
         H           -3.272909519365    -1.300734048455    -1.074383752197     1.007825032230
         H           -0.913714519365    -0.999570048455    -0.750592752197     1.007825032230
         C           -2.276812519365     1.623847951545     0.525181247803    12.000000000000
         H           -1.239077519365     1.384426951545     0.751421247803     1.007825032230
         H           -2.325482519365     2.679666951545     0.262381247803     1.007825032230
         H           -2.861068519365     1.476169951545     1.434481247803     1.007825032230

  Running in c1 symmetry.

  Rotational constants: A =      0.09511  B =      0.02145  C =      0.02075 [cm^-1]
  Rotational constants: A =   2851.18570  B =    643.02036  C =    622.19296 [MHz]
  Nuclear repulsion =  479.844896657253173

  Charge       = 0
  Multiplicity = 1
  Electrons    = 74
  Nalpha       = 37
  Nbeta        = 37

  ==> Algorithm <==

  SCF Algorithm Type is DF.
  DIIS enabled.
  MOM disabled.
  Fractional occupation disabled.
  Guess Type is SAD.
  Energy threshold   = 1.00e-08
  Density threshold  = 1.00e-08
  Integral threshold = 0.00e+00

  ==> Primary Basis <==

  Basis Set: JUN-CC-PVTZ
    Blend: JUN-CC-PVTZ
    Number of shells: 201
    Number of basis function: 547
    Number of Cartesian functions: 615
    Spherical Harmonics?: true
    Max angular momentum: 3

   => Loading Basis Set <=

    Name: (JUN-CC-PVTZ AUX)
    Role: JKFIT
    Keyword: DF_BASIS_SCF
    atoms 1-3, 12-13, 20            entry C          line   152 file /home/r08543048/miniconda3/share/psi4/basis/jun-cc-pvtz-jkfit.gbs 
    atoms 4-5, 16                   entry O          line   272 file /home/r08543048/miniconda3/share/psi4/basis/jun-cc-pvtz-jkfit.gbs 
    atoms 6-11, 14-15, 17-19, 21-23 entry H          line    70 file /home/r08543048/miniconda3/share/psi4/basis/jun-cc-pvtz-jkfit.gbs 

  ==> Pre-Iterations <==

   -------------------------------------------------------
    Irrep   Nso     Nmo     Nalpha   Nbeta   Ndocc  Nsocc
   -------------------------------------------------------
     A        547     547       0       0       0       0
   -------------------------------------------------------
    Total     547     547      37      37      37       0
   -------------------------------------------------------

  ==> Integral Setup <==

  ==> DiskDFJK: Density-Fitted J/K Matrices <==

    J tasked:                  Yes
    K tasked:                  Yes
    wK tasked:                  No
    OpenMP threads:              1
    Integrals threads:           1
    Memory [MiB]:            15735
    Algorithm:                Core
    Integral Cache:           SAVE
    Schwarz Cutoff:          1E-12
    Fitting Condition:       1E-10

   => Auxiliary Basis Set <=

  Basis Set: (JUN-CC-PVTZ AUX)
    Blend: JUN-CC-PVTZ-JKFIT
    Number of shells: 401
    Number of basis function: 1275
    Number of Cartesian functions: 1534
    Spherical Harmonics?: true
    Max angular momentum: 4

  Minimum eigenvalue in the overlap matrix is 3.6087624867E-05.
  Using Symmetric Orthogonalization.

  SCF Guess: Superposition of Atomic Densities via on-the-fly atomic UHF.

  ==> Iterations <==

                           Total Energy        Delta E     RMS |[F,P]|

   @DF-RHF iter SAD:  -458.81033563993572   -4.58810e+02   0.00000e+00 
   @DF-RHF iter   1:  -459.80157643699488   -9.91241e-01   1.51945e-03 DIIS
   @DF-RHF iter   2:  -460.07683004201522   -2.75254e-01   7.99541e-04 DIIS
   @DF-RHF iter   3:  -460.14820408523514   -7.13740e-02   1.50758e-04 DIIS
   @DF-RHF iter   4:  -460.15274539489099   -4.54131e-03   7.10596e-05 DIIS
   @DF-RHF iter   5:  -460.15353214072348   -7.86746e-04   1.40738e-05 DIIS
   @DF-RHF iter   6:  -460.15358882875762   -5.66880e-05   6.19283e-06 DIIS
   @DF-RHF iter   7:  -460.15359802345745   -9.19470e-06   2.12811e-06 DIIS
   @DF-RHF iter   8:  -460.15359987954020   -1.85608e-06   8.74417e-07 DIIS
   @DF-RHF iter   9:  -460.15360021770346   -3.38163e-07   2.45709e-07 DIIS
   @DF-RHF iter  10:  -460.15360024386291   -2.61595e-08   7.31116e-08 DIIS
   @DF-RHF iter  11:  -460.15360024571385   -1.85094e-09   1.97582e-08 DIIS
   @DF-RHF iter  12:  -460.15360024581582   -1.01977e-10   7.77631e-09 DIIS
  Energy and wave function converged.


  ==> Post-Iterations <==

    Orbital Energies [Eh]
    ---------------------

    Doubly Occupied:                                                      

       1A    -20.594173     2A    -20.561663     3A    -20.546256  
       4A    -11.383530     5A    -11.276903     6A    -11.243409  
       7A    -11.224627     8A    -11.219349     9A    -11.213598  
      10A     -1.454798    11A     -1.364130    12A     -1.351303  
      13A     -1.064148    14A     -1.055439    15A     -0.928909  
      16A     -0.909614    17A     -0.818536    18A     -0.787353  
      19A     -0.711359    20A     -0.688175    21A     -0.670172  
      22A     -0.657518    23A     -0.643034    24A     -0.637571  
      25A     -0.592580    26A     -0.585934    27A     -0.566056  
      28A     -0.541327    29A     -0.533567    30A     -0.523643  
      31A     -0.518246    32A     -0.501656    33A     -0.489371  
      34A     -0.477465    35A     -0.475540    36A     -0.454691  
      37A     -0.441165  

    Virtual:                                                              

      38A      0.048795    39A      0.054252    40A      0.056845  
      41A      0.060374    42A      0.067772    43A      0.075427  
      44A      0.077375    45A      0.092216    46A      0.096787  
      47A      0.100775    48A      0.104868    49A      0.107587  
      50A      0.111618    51A      0.114621    52A      0.135692  
      53A      0.136413    54A      0.139047    55A      0.147249  
      56A      0.156834    57A      0.167391    58A      0.175332  
      59A      0.185304    60A      0.192569    61A      0.202145  
      62A      0.210615    63A      0.217328    64A      0.227012  
      65A      0.237194    66A      0.242815    67A      0.247745  
      68A      0.252585    69A      0.257135    70A      0.262861  
      71A      0.269453    72A      0.279872    73A      0.283222  
      74A      0.294322    75A      0.300809    76A      0.305355  
      77A      0.305931    78A      0.311306    79A      0.315191  
      80A      0.318948    81A      0.326931    82A      0.328433  
      83A      0.334327    84A      0.339339    85A      0.343120  
      86A      0.348992    87A      0.356066    88A      0.357515  
      89A      0.362720    90A      0.375706    91A      0.383332  
      92A      0.389041    93A      0.393100    94A      0.393739  
      95A      0.402603    96A      0.412553    97A      0.420724  
      98A      0.426385    99A      0.433077   100A      0.437401  
     101A      0.446390   102A      0.458023   103A      0.467428  
     104A      0.472896   105A      0.486822   106A      0.494039  
     107A      0.504460   108A      0.505621   109A      0.510716  
     110A      0.518187   111A      0.524592   112A      0.529141  
     113A      0.532661   114A      0.541579   115A      0.548069  
     116A      0.557204   117A      0.560430   118A      0.570495  
     119A      0.573494   120A      0.586208   121A      0.603600  
     122A      0.609763   123A      0.621006   124A      0.638477  
     125A      0.648584   126A      0.650795   127A      0.667418  
     128A      0.669680   129A      0.688971   130A      0.693286  
     131A      0.703784   132A      0.708231   133A      0.716750  
     134A      0.723882   135A      0.734571   136A      0.745830  
     137A      0.748290   138A      0.757603   139A      0.771823  
     140A      0.775713   141A      0.783914   142A      0.785212  
     143A      0.790503   144A      0.804526   145A      0.808955  
     146A      0.810875   147A      0.818146   148A      0.822722  
     149A      0.835652   150A      0.841448   151A      0.856722  
     152A      0.860043   153A      0.868776   154A      0.878338  
     155A      0.886300   156A      0.889483   157A      0.900802  
     158A      0.909796   159A      0.915337   160A      0.919881  
     161A      0.934913   162A      0.937983   163A      0.952704  
     164A      0.968127   165A      0.980080   166A      0.987640  
     167A      0.991012   168A      1.008505   169A      1.022572  
     170A      1.028789   171A      1.030107   172A      1.049261  
     173A      1.058712   174A      1.069680   175A      1.087957  
     176A      1.112395   177A      1.113810   178A      1.128800  
     179A      1.137576   180A      1.141014   181A      1.164441  
     182A      1.173600   183A      1.202914   184A      1.208635  
     185A      1.221440   186A      1.227434   187A      1.235284  
     188A      1.248206   189A      1.271004   190A      1.288361  
     191A      1.299170   192A      1.300347   193A      1.312157  
     194A      1.327684   195A      1.338159   196A      1.354693  
     197A      1.358368   198A      1.373644   199A      1.375986  
     200A      1.383287   201A      1.391074   202A      1.404557  
     203A      1.411369   204A      1.419553   205A      1.423023  
     206A      1.428768   207A      1.443080   208A      1.448534  
     209A      1.464326   210A      1.474747   211A      1.477261  
     212A      1.494148   213A      1.498034   214A      1.516049  
     215A      1.520497   216A      1.528302   217A      1.532556  
     218A      1.534512   219A      1.551978   220A      1.556206  
     221A      1.567553   222A      1.575405   223A      1.592152  
     224A      1.608574   225A      1.614255   226A      1.616512  
     227A      1.626245   228A      1.640990   229A      1.641605  
     230A      1.666980   231A      1.677887   232A      1.686895  
     233A      1.691630   234A      1.695652   235A      1.711779  
     236A      1.725690   237A      1.735789   238A      1.759611  
     239A      1.794952   240A      1.800528   241A      1.810292  
     242A      1.814896   243A      1.821244   244A      1.840516  
     245A      1.851478   246A      1.869020   247A      1.876643  
     248A      1.888779   249A      1.905809   250A      1.922975  
     251A      1.926521   252A      1.957880   253A      1.961899  
     254A      1.999914   255A      2.013501   256A      2.067870  
     257A      2.078814   258A      2.112947   259A      2.160669  
     260A      2.228697   261A      2.261327   262A      2.276132  
     263A      2.342670   264A      2.377110   265A      2.402979  
     266A      2.416384   267A      2.451733   268A      2.465068  
     269A      2.492200   270A      2.526809   271A      2.539064  
     272A      2.592688   273A      2.642955   274A      2.653429  
     275A      2.686374   276A      2.695019   277A      2.766000  
     278A      2.803127   279A      2.808791   280A      2.829424  
     281A      2.840774   282A      2.857978   283A      2.872387  
     284A      2.885500   285A      2.888941   286A      2.901946  
     287A      2.914155   288A      2.930018   289A      2.937344  
     290A      2.974675   291A      2.979357   292A      2.995522  
     293A      3.030811   294A      3.036759   295A      3.048230  
     296A      3.075694   297A      3.084881   298A      3.086575  
     299A      3.111210   300A      3.120379   301A      3.128751  
     302A      3.134718   303A      3.142780   304A      3.147859  
     305A      3.178957   306A      3.196489   307A      3.204951  
     308A      3.227144   309A      3.244506   310A      3.253640  
     311A      3.271911   312A      3.298457   313A      3.310090  
     314A      3.314752   315A      3.325786   316A      3.344169  
     317A      3.358920   318A      3.373937   319A      3.382698  
     320A      3.385513   321A      3.398064   322A      3.405763  
     323A      3.414749   324A      3.427310   325A      3.438953  
     326A      3.459522   327A      3.470571   328A      3.478975  
     329A      3.483561   330A      3.484289   331A      3.490223  
     332A      3.502582   333A      3.504009   334A      3.516867  
     335A      3.522121   336A      3.526733   337A      3.545409  
     338A      3.553774   339A      3.561689   340A      3.571383  
     341A      3.582391   342A      3.597655   343A      3.627000  
     344A      3.635341   345A      3.636735   346A      3.673440  
     347A      3.679447   348A      3.686697   349A      3.700178  
     350A      3.713659   351A      3.717665   352A      3.746305  
     353A      3.747108   354A      3.756062   355A      3.769603  
     356A      3.779117   357A      3.786398   358A      3.804197  
     359A      3.809966   360A      3.834039   361A      3.842366  
     362A      3.855667   363A      3.866940   364A      3.877098  
     365A      3.889378   366A      3.893151   367A      3.902978  
     368A      3.917611   369A      3.920726   370A      3.927643  
     371A      3.950253   372A      3.962936   373A      3.980624  
     374A      3.990091   375A      4.011533   376A      4.033049  
     377A      4.073544   378A      4.078779   379A      4.083681  
     380A      4.119255   381A      4.125247   382A      4.148242  
     383A      4.162301   384A      4.201045   385A      4.215046  
     386A      4.222153   387A      4.227532   388A      4.242272  
     389A      4.251868   390A      4.263212   391A      4.271057  
     392A      4.282446   393A      4.302934   394A      4.312275  
     395A      4.315403   396A      4.339487   397A      4.346471  
     398A      4.360720   399A      4.369214   400A      4.375476  
     401A      4.380629   402A      4.394463   403A      4.406148  
     404A      4.414333   405A      4.426017   406A      4.437774  
     407A      4.447491   408A      4.453839   409A      4.462471  
     410A      4.478730   411A      4.486490   412A      4.495591  
     413A      4.497493   414A      4.515192   415A      4.527594  
     416A      4.533106   417A      4.550447   418A      4.568623  
     419A      4.578711   420A      4.600048   421A      4.608452  
     422A      4.624706   423A      4.642091   424A      4.649278  
     425A      4.674563   426A      4.689214   427A      4.694268  
     428A      4.704786   429A      4.727471   430A      4.730584  
     431A      4.748413   432A      4.759505   433A      4.782530  
     434A      4.800731   435A      4.834405   436A      4.846836  
     437A      4.863702   438A      4.888789   439A      4.888965  
     440A      4.902770   441A      4.916428   442A      4.946237  
     443A      4.949150   444A      4.992447   445A      5.038255  
     446A      5.078933   447A      5.084697   448A      5.129182  
     449A      5.135652   450A      5.146568   451A      5.181809  
     452A      5.184937   453A      5.203738   454A      5.236096  
     455A      5.251790   456A      5.264145   457A      5.277389  
     458A      5.284309   459A      5.298293   460A      5.308856  
     461A      5.310364   462A      5.323486   463A      5.334544  
     464A      5.359445   465A      5.403738   466A      5.423455  
     467A      5.459080   468A      5.483546   469A      5.503079  
     470A      5.509307   471A      5.538448   472A      5.577652  
     473A      5.601953   474A      5.621270   475A      5.634399  
     476A      5.651471   477A      5.660935   478A      5.683041  
     479A      5.738057   480A      5.740526   481A      5.754928  
     482A      5.766299   483A      5.783987   484A      5.800400  
     485A      5.814862   486A      5.827326   487A      5.835313  
     488A      5.853592   489A      5.883536   490A      5.897582  
     491A      5.908743   492A      5.920440   493A      5.924007  
     494A      5.949470   495A      5.984517   496A      6.004532  
     497A      6.033075   498A      6.069899   499A      6.080012  
     500A      6.131117   501A      6.184611   502A      6.271677  
     503A      6.307924   504A      6.446581   505A      6.478262  
     506A      6.491754   507A      6.498746   508A      6.503242  
     509A      6.532979   510A      6.547422   511A      6.565551  
     512A      6.600050   513A      6.757086   514A      6.761509  
     515A      6.944804   516A      6.982953   517A      6.985236  
     518A      7.049990   519A      7.115735   520A      7.208041  
     521A      7.248407   522A      7.302968   523A      7.323962  
     524A      7.327841   525A      7.378203   526A      7.419545  
     527A      7.440084   528A      7.458568   529A      7.468368  
     530A      7.617933   531A      7.688667   532A      7.743629  
     533A      7.785404   534A      7.896556   535A      7.916341  
     536A      8.012217   537A      8.149207   538A      8.360094  
     539A     12.216575   540A     13.713670   541A     13.931540  
     542A     13.971516   543A     14.125197   544A     14.162476  
     545A     14.499342   546A     14.701250   547A     14.715282  

    Final Occupation by Irrep:
              A 
    DOCC [    37 ]

  @DF-RHF Final Energy:  -460.15360024581582

   => Energetics <=

    Nuclear Repulsion Energy =            479.8448966572531731
    One-Electron Energy =               -1580.5833797526524904
    Two-Electron Energy =                 640.5848828495834368
    Total Energy =                       -460.1536002458158237

Computation Completed


Properties will be evaluated at   0.000000,   0.000000,   0.000000 [a0]

Properties computed using the SCF density matrix

  Nuclear Dipole Moment: [e a0]
     X:    -2.5473      Y:     5.6087      Z:    -0.9531

  Electronic Dipole Moment: [e a0]
     X:     2.4746      Y:    -5.1265      Z:     1.0305

  Dipole Moment: [e a0]
     X:    -0.0727      Y:     0.4822      Z:     0.0774     Total:     0.4937

  Dipole Moment: [D]
     X:    -0.1848      Y:     1.2255      Z:     0.1966     Total:     1.2549


*** tstop() called on r282 at Fri Sep 10 17:27:52 2021
Module time:
	user time   =      85.76 seconds =       1.43 minutes
	system time =       1.81 seconds =       0.03 minutes
	total time  =         88 seconds =       1.47 minutes
Total time:
	user time   =      85.76 seconds =       1.43 minutes
	system time =       1.81 seconds =       0.03 minutes
	total time  =         88 seconds =       1.47 minutes

  //>>>>>>>>>>>>>>>>>>>>>>>>>>>>>>>>>>>//
  //            Monomer A HF           //
  //<<<<<<<<<<<<<<<<<<<<<<<<<<<<<<<<<<<//


*** tstart() called on r282
*** at Fri Sep 10 17:27:52 2021

   => Loading Basis Set <=

    Name: JUN-CC-PVTZ
    Role: ORBITAL
    Keyword: BASIS
    atoms 1-3, 12-13, 20            entry C          line   217 file /home/r08543048/miniconda3/share/psi4/basis/jun-cc-pvtz.gbs 
    atoms 4-5, 16                   entry O          line   305 file /home/r08543048/miniconda3/share/psi4/basis/jun-cc-pvtz.gbs 
    atoms 6-11, 14-15, 17-19, 21-23 entry H          line    36 file /home/r08543048/miniconda3/share/psi4/basis/jun-cc-pvtz.gbs 


         ---------------------------------------------------------
                                   SCF
               by Justin Turney, Rob Parrish, Andy Simmonett
                          and Daniel G. A. Smith
                              RHF Reference
                        1 Threads,  20980 MiB Core
         ---------------------------------------------------------

  ==> Geometry <==

    Molecular point group: c1
    Full point group: C1

    Geometry (in Angstrom), charge = 0, multiplicity = 1:

       Center              X                  Y                   Z               Mass       
    ------------   -----------------  -----------------  -----------------  -----------------
         C            3.619799480635     0.565040951545    -0.752869752197    12.000000000000
         C            2.823908480635     0.239008951545     0.498067247803    12.000000000000
         C            1.423239480635    -0.217249048455     0.196574247803    12.000000000000
         O            0.959819480635    -0.320943048455    -0.929398752197    15.994914619570
         O            0.735130480635    -0.497498048455     1.309171247803    15.994914619570
         H            3.138717480635     1.357755951545    -1.321903752197     1.007825032230
         H            4.624695480635     0.888989951545    -0.488177752197     1.007825032230
         H            3.695512480635    -0.305594048455    -1.400759752197     1.007825032230
         H            2.745754480635     1.100230951545     1.163888247803     1.007825032230
         H            3.298682480635    -0.548695048455     1.085533247803     1.007825032230
         H           -0.173377519365    -0.780888048455     1.035265247803     1.007825032230
      Gh(C)          -2.810443519365     0.753655951545    -0.605139752197    12.000000000000
      Gh(C)          -2.811075519365    -0.726369048455    -0.267658752197    12.000000000000
      Gh(H)          -2.219269519365     0.909888951545    -1.511672752197     1.007825032230
      Gh(H)          -3.836660519365     1.040277951545    -0.848207752197     1.007825032230
      Gh(O)          -1.500135519365    -1.238177048455    -0.011111752197    15.994914619570
      Gh(H)          -3.379963519365    -0.908621048455     0.644147247803     1.007825032230
      Gh(H)          -3.272909519365    -1.300734048455    -1.074383752197     1.007825032230
      Gh(H)          -0.913714519365    -0.999570048455    -0.750592752197     1.007825032230
      Gh(C)          -2.276812519365     1.623847951545     0.525181247803    12.000000000000
      Gh(H)          -1.239077519365     1.384426951545     0.751421247803     1.007825032230
      Gh(H)          -2.325482519365     2.679666951545     0.262381247803     1.007825032230
      Gh(H)          -2.861068519365     1.476169951545     1.434481247803     1.007825032230

  Running in c1 symmetry.

  Rotational constants: A =      0.09511  B =      0.02145  C =      0.02075 [cm^-1]
  Rotational constants: A =   2851.18570  B =    643.02036  C =    622.19296 [MHz]
  Nuclear repulsion =  178.621553349293833

  Charge       = 0
  Multiplicity = 1
  Electrons    = 40
  Nalpha       = 20
  Nbeta        = 20

  ==> Algorithm <==

  SCF Algorithm Type is DF.
  DIIS enabled.
  MOM disabled.
  Fractional occupation disabled.
  Guess Type is SAD.
  Energy threshold   = 1.00e-08
  Density threshold  = 1.00e-08
  Integral threshold = 0.00e+00

  ==> Primary Basis <==

  Basis Set: JUN-CC-PVTZ
    Blend: JUN-CC-PVTZ
    Number of shells: 201
    Number of basis function: 547
    Number of Cartesian functions: 615
    Spherical Harmonics?: true
    Max angular momentum: 3

   => Loading Basis Set <=

    Name: (JUN-CC-PVTZ AUX)
    Role: JKFIT
    Keyword: DF_BASIS_SCF
    atoms 1-3, 12-13, 20            entry C          line   152 file /home/r08543048/miniconda3/share/psi4/basis/jun-cc-pvtz-jkfit.gbs 
    atoms 4-5, 16                   entry O          line   272 file /home/r08543048/miniconda3/share/psi4/basis/jun-cc-pvtz-jkfit.gbs 
    atoms 6-11, 14-15, 17-19, 21-23 entry H          line    70 file /home/r08543048/miniconda3/share/psi4/basis/jun-cc-pvtz-jkfit.gbs 

  ==> Pre-Iterations <==

   -------------------------------------------------------
    Irrep   Nso     Nmo     Nalpha   Nbeta   Ndocc  Nsocc
   -------------------------------------------------------
     A        547     547       0       0       0       0
   -------------------------------------------------------
    Total     547     547      20      20      20       0
   -------------------------------------------------------

  ==> Integral Setup <==

  ==> DiskDFJK: Density-Fitted J/K Matrices <==

    J tasked:                  Yes
    K tasked:                  Yes
    wK tasked:                  No
    OpenMP threads:              1
    Integrals threads:           1
    Memory [MiB]:            15735
    Algorithm:                Core
    Integral Cache:           LOAD
    Schwarz Cutoff:          1E-12
    Fitting Condition:       1E-10

   => Auxiliary Basis Set <=

  Basis Set: (JUN-CC-PVTZ AUX)
    Blend: JUN-CC-PVTZ-JKFIT
    Number of shells: 401
    Number of basis function: 1275
    Number of Cartesian functions: 1534
    Spherical Harmonics?: true
    Max angular momentum: 4

  Minimum eigenvalue in the overlap matrix is 3.6087624867E-05.
  Using Symmetric Orthogonalization.

  SCF Guess: Superposition of Atomic Densities via on-the-fly atomic UHF.

  ==> Iterations <==

                           Total Energy        Delta E     RMS |[F,P]|

   @DF-RHF iter SAD:  -266.05757299855048   -2.66058e+02   0.00000e+00 
   @DF-RHF iter   1:  -266.74915678588735   -6.91584e-01   1.18947e-03 DIIS
   @DF-RHF iter   2:  -266.89675160289573   -1.47595e-01   7.05546e-04 DIIS
   @DF-RHF iter   3:  -266.94738818844581   -5.06366e-02   1.25995e-04 DIIS
   @DF-RHF iter   4:  -266.95022521338478   -2.83702e-03   5.95388e-05 DIIS
   @DF-RHF iter   5:  -266.95085689435666   -6.31681e-04   1.18111e-05 DIIS
   @DF-RHF iter   6:  -266.95090175419625   -4.48598e-05   5.74706e-06 DIIS
   @DF-RHF iter   7:  -266.95091082294158   -9.06875e-06   2.08537e-06 DIIS
   @DF-RHF iter   8:  -266.95091272695595   -1.90401e-06   7.50084e-07 DIIS
   @DF-RHF iter   9:  -266.95091299456180   -2.67606e-07   1.76638e-07 DIIS
   @DF-RHF iter  10:  -266.95091300810060   -1.35388e-08   5.39140e-08 DIIS
   @DF-RHF iter  11:  -266.95091300891613   -8.15533e-10   1.37228e-08 DIIS
   @DF-RHF iter  12:  -266.95091300897809   -6.19593e-11   3.16629e-09 DIIS
  Energy and wave function converged.


  ==> Post-Iterations <==

    Orbital Energies [Eh]
    ---------------------

    Doubly Occupied:                                                      

       1A    -20.620496     2A    -20.547010     3A    -11.386484  
       4A    -11.247788     5A    -11.221249     6A     -1.465568  
       7A     -1.355387     8A     -1.067229     9A     -0.916289  
      10A     -0.798205    11A     -0.703831    12A     -0.689731  
      13A     -0.662735    14A     -0.595202    15A     -0.593835  
      16A     -0.534794    17A     -0.524970    18A     -0.505145  
      19A     -0.479637    20A     -0.451483  

    Virtual:                                                              

      21A      0.031863    22A      0.045411    23A      0.051116  
      24A      0.054964    25A      0.065230    26A      0.070934  
      27A      0.074749    28A      0.086793    29A      0.093067  
      30A      0.098702    31A      0.101746    32A      0.104138  
      33A      0.108860    34A      0.110658    35A      0.117840  
      36A      0.134746    37A      0.139084    38A      0.145092  
      39A      0.148850    40A      0.150577    41A      0.153536  
      42A      0.167665    43A      0.175689    44A      0.182181  
      45A      0.195304    46A      0.199151    47A      0.210812  
      48A      0.213211    49A      0.227208    50A      0.239714  
      51A      0.241423    52A      0.243397    53A      0.251771  
      54A      0.258501    55A      0.264591    56A      0.274811  
      57A      0.284490    58A      0.294669    59A      0.295395  
      60A      0.303751    61A      0.308569    62A      0.313005  
      63A      0.314555    64A      0.320627    65A      0.325006  
      66A      0.334209    67A      0.339444    68A      0.342779  
      69A      0.346596    70A      0.359316    71A      0.363252  
      72A      0.368958    73A      0.375517    74A      0.384459  
      75A      0.388024    76A      0.398228    77A      0.407352  
      78A      0.414929    79A      0.417530    80A      0.419621  
      81A      0.425115    82A      0.438995    83A      0.443572  
      84A      0.456318    85A      0.470693    86A      0.474969  
      87A      0.478713    88A      0.480910    89A      0.491143  
      90A      0.496697    91A      0.499551    92A      0.512517  
      93A      0.521238    94A      0.524073    95A      0.532987  
      96A      0.537937    97A      0.543491    98A      0.550137  
      99A      0.562935   100A      0.574661   101A      0.583642  
     102A      0.588489   103A      0.592985   104A      0.596532  
     105A      0.603909   106A      0.616726   107A      0.623223  
     108A      0.625977   109A      0.633608   110A      0.639780  
     111A      0.663907   112A      0.667896   113A      0.681039  
     114A      0.691666   115A      0.701495   116A      0.707412  
     117A      0.710188   118A      0.718594   119A      0.727264  
     120A      0.731756   121A      0.755294   122A      0.766495  
     123A      0.774102   124A      0.775973   125A      0.781448  
     126A      0.798528   127A      0.811426   128A      0.814647  
     129A      0.824582   130A      0.837895   131A      0.849590  
     132A      0.861245   133A      0.877428   134A      0.885692  
     135A      0.899257   136A      0.908400   137A      0.918816  
     138A      0.932762   139A      0.934144   140A      0.938758  
     141A      0.955071   142A      0.966622   143A      0.979946  
     144A      0.993255   145A      1.015182   146A      1.028115  
     147A      1.038472   148A      1.046647   149A      1.059391  
     150A      1.066348   151A      1.071590   152A      1.078873  
     153A      1.092014   154A      1.112005   155A      1.121166  
     156A      1.131109   157A      1.135493   158A      1.162936  
     159A      1.178903   160A      1.183108   161A      1.195286  
     162A      1.206446   163A      1.209540   164A      1.213149  
     165A      1.225776   166A      1.237597   167A      1.241379  
     168A      1.257244   169A      1.261852   170A      1.269266  
     171A      1.293101   172A      1.297657   173A      1.308156  
     174A      1.314416   175A      1.323724   176A      1.327090  
     177A      1.330496   178A      1.350358   179A      1.355192  
     180A      1.374357   181A      1.379224   182A      1.385394  
     183A      1.393301   184A      1.399508   185A      1.409691  
     186A      1.419380   187A      1.426154   188A      1.439934  
     189A      1.445168   190A      1.451837   191A      1.461137  
     192A      1.472199   193A      1.475583   194A      1.486029  
     195A      1.494769   196A      1.499350   197A      1.516450  
     198A      1.524462   199A      1.534271   200A      1.542066  
     201A      1.557134   202A      1.568908   203A      1.584322  
     204A      1.594382   205A      1.602090   206A      1.607583  
     207A      1.621511   208A      1.639938   209A      1.646844  
     210A      1.654057   211A      1.656156   212A      1.681147  
     213A      1.686018   214A      1.688793   215A      1.718764  
     216A      1.737379   217A      1.752804   218A      1.761041  
     219A      1.770916   220A      1.790413   221A      1.804165  
     222A      1.822506   223A      1.827643   224A      1.846368  
     225A      1.854959   226A      1.870636   227A      1.877684  
     228A      1.894200   229A      1.914800   230A      1.920632  
     231A      1.936541   232A      1.961635   233A      1.995594  
     234A      2.010624   235A      2.023722   236A      2.050364  
     237A      2.076432   238A      2.110791   239A      2.128512  
     240A      2.143901   241A      2.187642   242A      2.205154  
     243A      2.218738   244A      2.260054   245A      2.270229  
     246A      2.277953   247A      2.326926   248A      2.347304  
     249A      2.385748   250A      2.398511   251A      2.416028  
     252A      2.433675   253A      2.457915   254A      2.476227  
     255A      2.483913   256A      2.524821   257A      2.544653  
     258A      2.579108   259A      2.587366   260A      2.619845  
     261A      2.654540   262A      2.656431   263A      2.670423  
     264A      2.699231   265A      2.753811   266A      2.809419  
     267A      2.817853   268A      2.854988   269A      2.867526  
     270A      2.892031   271A      2.919161   272A      2.928562  
     273A      2.954482   274A      2.982792   275A      2.985785  
     276A      3.033963   277A      3.039368   278A      3.047027  
     279A      3.075110   280A      3.111413   281A      3.115300  
     282A      3.118115   283A      3.131235   284A      3.167148  
     285A      3.194126   286A      3.242167   287A      3.246529  
     288A      3.293217   289A      3.306476   290A      3.344017  
     291A      3.351264   292A      3.377881   293A      3.381433  
     294A      3.426406   295A      3.444384   296A      3.474452  
     297A      3.478552   298A      3.488983   299A      3.495519  
     300A      3.509939   301A      3.513667   302A      3.520603  
     303A      3.550517   304A      3.563021   305A      3.570058  
     306A      3.576771   307A      3.596931   308A      3.607105  
     309A      3.623438   310A      3.631990   311A      3.638895  
     312A      3.647649   313A      3.662106   314A      3.677054  
     315A      3.681666   316A      3.714432   317A      3.720338  
     318A      3.731540   319A      3.739968   320A      3.760057  
     321A      3.768496   322A      3.781613   323A      3.792039  
     324A      3.800447   325A      3.818498   326A      3.829665  
     327A      3.849092   328A      3.857501   329A      3.866649  
     330A      3.874673   331A      3.885377   332A      3.888708  
     333A      3.907439   334A      3.914771   335A      3.918546  
     336A      3.943746   337A      3.968287   338A      3.972548  
     339A      3.985730   340A      4.015360   341A      4.034534  
     342A      4.065516   343A      4.075842   344A      4.082284  
     345A      4.113843   346A      4.127677   347A      4.137045  
     348A      4.172636   349A      4.205704   350A      4.216416  
     351A      4.225744   352A      4.236510   353A      4.242781  
     354A      4.249042   355A      4.258395   356A      4.271921  
     357A      4.297598   358A      4.321013   359A      4.328191  
     360A      4.351988   361A      4.364890   362A      4.371687  
     363A      4.383750   364A      4.389877   365A      4.413796  
     366A      4.420545   367A      4.423013   368A      4.438906  
     369A      4.442910   370A      4.458980   371A      4.475841  
     372A      4.480926   373A      4.491157   374A      4.503378  
     375A      4.519482   376A      4.524400   377A      4.538012  
     378A      4.553893   379A      4.568991   380A      4.594498  
     381A      4.600965   382A      4.612800   383A      4.633744  
     384A      4.637787   385A      4.645231   386A      4.661381  
     387A      4.670431   388A      4.689571   389A      4.694530  
     390A      4.709808   391A      4.726437   392A      4.728940  
     393A      4.742199   394A      4.747881   395A      4.763831  
     396A      4.776816   397A      4.778066   398A      4.785990  
     399A      4.800678   400A      4.814829   401A      4.822204  
     402A      4.833977   403A      4.848012   404A      4.866193  
     405A      4.885350   406A      4.890241   407A      4.911572  
     408A      4.914713   409A      4.927028   410A      4.934242  
     411A      4.942790   412A      4.952434   413A      4.958980  
     414A      4.968840   415A      4.974328   416A      4.994286  
     417A      5.020369   418A      5.035515   419A      5.053725  
     420A      5.063750   421A      5.077822   422A      5.101322  
     423A      5.122506   424A      5.131746   425A      5.137749  
     426A      5.144089   427A      5.171906   428A      5.187333  
     429A      5.224651   430A      5.231406   431A      5.257602  
     432A      5.275619   433A      5.287219   434A      5.296565  
     435A      5.312199   436A      5.320421   437A      5.325293  
     438A      5.358894   439A      5.385714   440A      5.427493  
     441A      5.456047   442A      5.486523   443A      5.493458  
     444A      5.498653   445A      5.583149   446A      5.605967  
     447A      5.609139   448A      5.620876   449A      5.635644  
     450A      5.645390   451A      5.661029   452A      5.710013  
     453A      5.736677   454A      5.739045   455A      5.740455  
     456A      5.802190   457A      5.816374   458A      5.819506  
     459A      5.829644   460A      5.851051   461A      5.887519  
     462A      5.896325   463A      5.907819   464A      5.920022  
     465A      5.960765   466A      5.973574   467A      6.010503  
     468A      6.036121   469A      6.056631   470A      6.110638  
     471A      6.157251   472A      6.162395   473A      6.202362  
     474A      6.253235   475A      6.288076   476A      6.310248  
     477A      6.351532   478A      6.392215   479A      6.406256  
     480A      6.461268   481A      6.473329   482A      6.479085  
     483A      6.499138   484A      6.500579   485A      6.559652  
     486A      6.634093   487A      6.675197   488A      6.747593  
     489A      6.760207   490A      6.860111   491A      6.936860  
     492A      6.964458   493A      6.969580   494A      6.992569  
     495A      7.081667   496A      7.110134   497A      7.231564  
     498A      7.295386   499A      7.301552   500A      7.314506  
     501A      7.365284   502A      7.396950   503A      7.419683  
     504A      7.441378   505A      7.469972   506A      7.493491  
     507A      7.534589   508A      7.567871   509A      7.627039  
     510A      7.658730   511A      7.691432   512A      7.735922  
     513A      7.765583   514A      7.809860   515A      7.838909  
     516A      7.863392   517A      7.868058   518A      7.928073  
     519A      7.960568   520A      8.005017   521A      8.074053  
     522A      8.191152   523A      8.219113   524A      8.344183  
     525A      8.478292   526A      8.599480   527A      9.543849  
     528A      9.632017   529A      9.790776   530A      9.884326  
     531A      9.928781   532A     10.143783   533A     10.171639  
     534A     10.488453   535A     11.219749   536A     11.681708  
     537A     12.218677   538A     12.761860   539A     13.615827  
     540A     14.001746   541A     14.147616   542A     14.493158  
     543A     14.709755   544A     44.097153   545A     44.908918  
     546A     45.780320   547A     61.552917  

    Final Occupation by Irrep:
              A 
    DOCC [    20 ]

  @DF-RHF Final Energy:  -266.95091300897809

   => Energetics <=

    Nuclear Repulsion Energy =            178.6215533492938334
    One-Electron Energy =                -718.4108007284723953
    Two-Electron Energy =                 272.8383343702004140
    Total Energy =                       -266.9509130089780911

Computation Completed


Properties will be evaluated at   0.000000,   0.000000,   0.000000 [a0]

Properties computed using the SCF density matrix

  Nuclear Dipole Moment: [e a0]
     X:   147.5711      Y:    -2.4848      Z:     5.2207

  Electronic Dipole Moment: [e a0]
     X:  -147.2741      Y:     2.5567      Z:    -4.5049

  Dipole Moment: [e a0]
     X:     0.2970      Y:     0.0719      Z:     0.7158     Total:     0.7783

  Dipole Moment: [D]
     X:     0.7550      Y:     0.1827      Z:     1.8194     Total:     1.9783


*** tstop() called on r282 at Fri Sep 10 17:28:52 2021
Module time:
	user time   =      59.04 seconds =       0.98 minutes
	system time =       0.88 seconds =       0.01 minutes
	total time  =         60 seconds =       1.00 minutes
Total time:
	user time   =     144.80 seconds =       2.41 minutes
	system time =       2.69 seconds =       0.04 minutes
	total time  =        148 seconds =       2.47 minutes

  //>>>>>>>>>>>>>>>>>>>>>>>>>>>>>>>>>>>//
  //            Monomer B HF           //
  //<<<<<<<<<<<<<<<<<<<<<<<<<<<<<<<<<<<//


*** tstart() called on r282
*** at Fri Sep 10 17:28:52 2021

   => Loading Basis Set <=

    Name: JUN-CC-PVTZ
    Role: ORBITAL
    Keyword: BASIS
    atoms 1-3, 12-13, 20            entry C          line   217 file /home/r08543048/miniconda3/share/psi4/basis/jun-cc-pvtz.gbs 
    atoms 4-5, 16                   entry O          line   305 file /home/r08543048/miniconda3/share/psi4/basis/jun-cc-pvtz.gbs 
    atoms 6-11, 14-15, 17-19, 21-23 entry H          line    36 file /home/r08543048/miniconda3/share/psi4/basis/jun-cc-pvtz.gbs 


         ---------------------------------------------------------
                                   SCF
               by Justin Turney, Rob Parrish, Andy Simmonett
                          and Daniel G. A. Smith
                              RHF Reference
                        1 Threads,  20980 MiB Core
         ---------------------------------------------------------

  ==> Geometry <==

    Molecular point group: c1
    Full point group: C1

    Geometry (in Angstrom), charge = 0, multiplicity = 1:

       Center              X                  Y                   Z               Mass       
    ------------   -----------------  -----------------  -----------------  -----------------
      Gh(C)           3.619799480635     0.565040951545    -0.752869752197    12.000000000000
      Gh(C)           2.823908480635     0.239008951545     0.498067247803    12.000000000000
      Gh(C)           1.423239480635    -0.217249048455     0.196574247803    12.000000000000
      Gh(O)           0.959819480635    -0.320943048455    -0.929398752197    15.994914619570
      Gh(O)           0.735130480635    -0.497498048455     1.309171247803    15.994914619570
      Gh(H)           3.138717480635     1.357755951545    -1.321903752197     1.007825032230
      Gh(H)           4.624695480635     0.888989951545    -0.488177752197     1.007825032230
      Gh(H)           3.695512480635    -0.305594048455    -1.400759752197     1.007825032230
      Gh(H)           2.745754480635     1.100230951545     1.163888247803     1.007825032230
      Gh(H)           3.298682480635    -0.548695048455     1.085533247803     1.007825032230
      Gh(H)          -0.173377519365    -0.780888048455     1.035265247803     1.007825032230
         C           -2.810443519365     0.753655951545    -0.605139752197    12.000000000000
         C           -2.811075519365    -0.726369048455    -0.267658752197    12.000000000000
         H           -2.219269519365     0.909888951545    -1.511672752197     1.007825032230
         H           -3.836660519365     1.040277951545    -0.848207752197     1.007825032230
         O           -1.500135519365    -1.238177048455    -0.011111752197    15.994914619570
         H           -3.379963519365    -0.908621048455     0.644147247803     1.007825032230
         H           -3.272909519365    -1.300734048455    -1.074383752197     1.007825032230
         H           -0.913714519365    -0.999570048455    -0.750592752197     1.007825032230
         C           -2.276812519365     1.623847951545     0.525181247803    12.000000000000
         H           -1.239077519365     1.384426951545     0.751421247803     1.007825032230
         H           -2.325482519365     2.679666951545     0.262381247803     1.007825032230
         H           -2.861068519365     1.476169951545     1.434481247803     1.007825032230

  Running in c1 symmetry.

  Rotational constants: A =      0.09511  B =      0.02145  C =      0.02075 [cm^-1]
  Rotational constants: A =   2851.18570  B =    643.02036  C =    622.19296 [MHz]
  Nuclear repulsion =  132.594908191815904

  Charge       = 0
  Multiplicity = 1
  Electrons    = 34
  Nalpha       = 17
  Nbeta        = 17

  ==> Algorithm <==

  SCF Algorithm Type is DF.
  DIIS enabled.
  MOM disabled.
  Fractional occupation disabled.
  Guess Type is SAD.
  Energy threshold   = 1.00e-08
  Density threshold  = 1.00e-08
  Integral threshold = 0.00e+00

  ==> Primary Basis <==

  Basis Set: JUN-CC-PVTZ
    Blend: JUN-CC-PVTZ
    Number of shells: 201
    Number of basis function: 547
    Number of Cartesian functions: 615
    Spherical Harmonics?: true
    Max angular momentum: 3

   => Loading Basis Set <=

    Name: (JUN-CC-PVTZ AUX)
    Role: JKFIT
    Keyword: DF_BASIS_SCF
    atoms 1-3, 12-13, 20            entry C          line   152 file /home/r08543048/miniconda3/share/psi4/basis/jun-cc-pvtz-jkfit.gbs 
    atoms 4-5, 16                   entry O          line   272 file /home/r08543048/miniconda3/share/psi4/basis/jun-cc-pvtz-jkfit.gbs 
    atoms 6-11, 14-15, 17-19, 21-23 entry H          line    70 file /home/r08543048/miniconda3/share/psi4/basis/jun-cc-pvtz-jkfit.gbs 

  ==> Pre-Iterations <==

   -------------------------------------------------------
    Irrep   Nso     Nmo     Nalpha   Nbeta   Ndocc  Nsocc
   -------------------------------------------------------
     A        547     547       0       0       0       0
   -------------------------------------------------------
    Total     547     547      17      17      17       0
   -------------------------------------------------------

  ==> Integral Setup <==

  ==> DiskDFJK: Density-Fitted J/K Matrices <==

    J tasked:                  Yes
    K tasked:                  Yes
    wK tasked:                  No
    OpenMP threads:              1
    Integrals threads:           1
    Memory [MiB]:            15735
    Algorithm:                Core
    Integral Cache:           LOAD
    Schwarz Cutoff:          1E-12
    Fitting Condition:       1E-10

   => Auxiliary Basis Set <=

  Basis Set: (JUN-CC-PVTZ AUX)
    Blend: JUN-CC-PVTZ-JKFIT
    Number of shells: 401
    Number of basis function: 1275
    Number of Cartesian functions: 1534
    Spherical Harmonics?: true
    Max angular momentum: 4

  Minimum eigenvalue in the overlap matrix is 3.6087624867E-05.
  Using Symmetric Orthogonalization.

  SCF Guess: Superposition of Atomic Densities via on-the-fly atomic UHF.

  ==> Iterations <==

                           Total Energy        Delta E     RMS |[F,P]|

   @DF-RHF iter SAD:  -192.48540248432047   -1.92485e+02   0.00000e+00 
   @DF-RHF iter   1:  -193.01117164234856   -5.25769e-01   1.04279e-03 DIIS
   @DF-RHF iter   2:  -193.15198009753857   -1.40808e-01   5.52263e-04 DIIS
   @DF-RHF iter   3:  -193.18877522193165   -3.67951e-02   9.44850e-05 DIIS
   @DF-RHF iter   4:  -193.19088591919220   -2.11070e-03   3.47258e-05 DIIS
   @DF-RHF iter   5:  -193.19109012345825   -2.04204e-04   7.79514e-06 DIIS
   @DF-RHF iter   6:  -193.19110460147584   -1.44780e-05   1.64068e-06 DIIS
   @DF-RHF iter   7:  -193.19110558465758   -9.83182e-07   4.18184e-07 DIIS
   @DF-RHF iter   8:  -193.19110564545147   -6.07939e-08   1.40986e-07 DIIS
   @DF-RHF iter   9:  -193.19110565221743   -6.76596e-09   3.84042e-08 DIIS
   @DF-RHF iter  10:  -193.19110565279328   -5.75852e-10   8.28647e-09 DIIS
  Energy and wave function converged.


  ==> Post-Iterations <==

    Orbital Energies [Eh]
    ---------------------

    Doubly Occupied:                                                      

       1A    -20.553926     2A    -11.271304     3A    -11.224081  
       4A    -11.211379     5A     -1.350155     6A     -1.052458  
       7A     -0.921461     8A     -0.812884     9A     -0.667438  
      10A     -0.638015    11A     -0.630804    12A     -0.564974  
      13A     -0.534501    14A     -0.518800    15A     -0.486890  
      16A     -0.470538    17A     -0.437276  

    Virtual:                                                              

      18A      0.031296    19A      0.049396    20A      0.053152  
      21A      0.056506    22A      0.062643    23A      0.067049  
      24A      0.071903    25A      0.087259    26A      0.094771  
      27A      0.095711    28A      0.100416    29A      0.101498  
      30A      0.107521    31A      0.111959    32A      0.124586  
      33A      0.129204    34A      0.139216    35A      0.141204  
      36A      0.151501    37A      0.159298    38A      0.161662  
      39A      0.171211    40A      0.173997    41A      0.190998  
      42A      0.192451    43A      0.213734    44A      0.214453  
      45A      0.217953    46A      0.222850    47A      0.235701  
      48A      0.241445    49A      0.248584    50A      0.250871  
      51A      0.259663    52A      0.275188    53A      0.280169  
      54A      0.287180    55A      0.292349    56A      0.297257  
      57A      0.303021    58A      0.306967    59A      0.314382  
      60A      0.317890    61A      0.330259    62A      0.333501  
      63A      0.341075    64A      0.346323    65A      0.351021  
      66A      0.353255    67A      0.359186    68A      0.373425  
      69A      0.375190    70A      0.377822    71A      0.386288  
      72A      0.391859    73A      0.395417    74A      0.410297  
      75A      0.412391    76A      0.415813    77A      0.422520  
      78A      0.428913    79A      0.437488    80A      0.438685  
      81A      0.449451    82A      0.462924    83A      0.468960  
      84A      0.482925    85A      0.486833    86A      0.489407  
      87A      0.498861    88A      0.504708    89A      0.512133  
      90A      0.517535    91A      0.526929    92A      0.527603  
      93A      0.534634    94A      0.542083    95A      0.552139  
      96A      0.554950    97A      0.564523    98A      0.565533  
      99A      0.575530   100A      0.579687   101A      0.594134  
     102A      0.598839   103A      0.623272   104A      0.640436  
     105A      0.643201   106A      0.650283   107A      0.655059  
     108A      0.660890   109A      0.673423   110A      0.681612  
     111A      0.701995   112A      0.708610   113A      0.715062  
     114A      0.732645   115A      0.738008   116A      0.749830  
     117A      0.759349   118A      0.772306   119A      0.778704  
     120A      0.781888   121A      0.800890   122A      0.808216  
     123A      0.813043   124A      0.825555   125A      0.830337  
     126A      0.842233   127A      0.846723   128A      0.854807  
     129A      0.862248   130A      0.870302   131A      0.880514  
     132A      0.884328   133A      0.903883   134A      0.921976  
     135A      0.928871   136A      0.939740   137A      0.951882  
     138A      0.968652   139A      0.972155   140A      0.983534  
     141A      0.996710   142A      1.001899   143A      1.026190  
     144A      1.034460   145A      1.045802   146A      1.053310  
     147A      1.061467   148A      1.069534   149A      1.074400  
     150A      1.088080   151A      1.092174   152A      1.108342  
     153A      1.113306   154A      1.126958   155A      1.141757  
     156A      1.153021   157A      1.171847   158A      1.184989  
     159A      1.189814   160A      1.209788   161A      1.214527  
     162A      1.219202   163A      1.228058   164A      1.239718  
     165A      1.246789   166A      1.250321   167A      1.266013  
     168A      1.277533   169A      1.279952   170A      1.292382  
     171A      1.297184   172A      1.308836   173A      1.323559  
     174A      1.338851   175A      1.343690   176A      1.352700  
     177A      1.359742   178A      1.365229   179A      1.386026  
     180A      1.389561   181A      1.406141   182A      1.414665  
     183A      1.416829   184A      1.441563   185A      1.451325  
     186A      1.459968   187A      1.461478   188A      1.488146  
     189A      1.503037   190A      1.506356   191A      1.514271  
     192A      1.526003   193A      1.534112   194A      1.540336  
     195A      1.551227   196A      1.557647   197A      1.565095  
     198A      1.579648   199A      1.586516   200A      1.599820  
     201A      1.605114   202A      1.622433   203A      1.628315  
     204A      1.643075   205A      1.648766   206A      1.651172  
     207A      1.680076   208A      1.688875   209A      1.708841  
     210A      1.714596   211A      1.718264   212A      1.730637  
     213A      1.735622   214A      1.757714   215A      1.772900  
     216A      1.786476   217A      1.798032   218A      1.820751  
     219A      1.829976   220A      1.839720   221A      1.851349  
     222A      1.870897   223A      1.891454   224A      1.905378  
     225A      1.916354   226A      1.932041   227A      1.945691  
     228A      1.950599   229A      1.955642   230A      1.995355  
     231A      2.005273   232A      2.014688   233A      2.054867  
     234A      2.058438   235A      2.079841   236A      2.106834  
     237A      2.147515   238A      2.177339   239A      2.184044  
     240A      2.191778   241A      2.237163   242A      2.283680  
     243A      2.343756   244A      2.376630   245A      2.411083  
     246A      2.417576   247A      2.448839   248A      2.461813  
     249A      2.511507   250A      2.517613   251A      2.555006  
     252A      2.587063   253A      2.597646   254A      2.633979  
     255A      2.648383   256A      2.702387   257A      2.753342  
     258A      2.790355   259A      2.808552   260A      2.818660  
     261A      2.829108   262A      2.841534   263A      2.858380  
     264A      2.861490   265A      2.887337   266A      2.918213  
     267A      2.937999   268A      2.955048   269A      2.973344  
     270A      2.987503   271A      3.011381   272A      3.033048  
     273A      3.038184   274A      3.053384   275A      3.071182  
     276A      3.097025   277A      3.100482   278A      3.113968  
     279A      3.135248   280A      3.162294   281A      3.185023  
     282A      3.205789   283A      3.227844   284A      3.262779  
     285A      3.273292   286A      3.311208   287A      3.317015  
     288A      3.348293   289A      3.363475   290A      3.398173  
     291A      3.408400   292A      3.414475   293A      3.423771  
     294A      3.444948   295A      3.455402   296A      3.468588  
     297A      3.479384   298A      3.499219   299A      3.505963  
     300A      3.518834   301A      3.544614   302A      3.551308  
     303A      3.555264   304A      3.561450   305A      3.590184  
     306A      3.604576   307A      3.609678   308A      3.618929  
     309A      3.629326   310A      3.640147   311A      3.664554  
     312A      3.691608   313A      3.702541   314A      3.703513  
     315A      3.709911   316A      3.722712   317A      3.737157  
     318A      3.753589   319A      3.766573   320A      3.776906  
     321A      3.790447   322A      3.805300   323A      3.805878  
     324A      3.831839   325A      3.847465   326A      3.856707  
     327A      3.874033   328A      3.879716   329A      3.883931  
     330A      3.900438   331A      3.914910   332A      3.915793  
     333A      3.922789   334A      3.934484   335A      3.949118  
     336A      3.971626   337A      3.993147   338A      3.997455  
     339A      4.013914   340A      4.043790   341A      4.060673  
     342A      4.085171   343A      4.098416   344A      4.113088  
     345A      4.129243   346A      4.150660   347A      4.160652  
     348A      4.175033   349A      4.188873   350A      4.224450  
     351A      4.241082   352A      4.252375   353A      4.253991  
     354A      4.267757   355A      4.283740   356A      4.300224  
     357A      4.312322   358A      4.326764   359A      4.331614  
     360A      4.346426   361A      4.370203   362A      4.381097  
     363A      4.393422   364A      4.402118   365A      4.410754  
     366A      4.420084   367A      4.427332   368A      4.438248  
     369A      4.465884   370A      4.478728   371A      4.482296  
     372A      4.482639   373A      4.497627   374A      4.504052  
     375A      4.517192   376A      4.524237   377A      4.541819  
     378A      4.567618   379A      4.575115   380A      4.584561  
     381A      4.595337   382A      4.612723   383A      4.631412  
     384A      4.650283   385A      4.653610   386A      4.674705  
     387A      4.687172   388A      4.690281   389A      4.696662  
     390A      4.729080   391A      4.743720   392A      4.753758  
     393A      4.756467   394A      4.774623   395A      4.776214  
     396A      4.788810   397A      4.807622   398A      4.815861  
     399A      4.817670   400A      4.829623   401A      4.854229  
     402A      4.862111   403A      4.866191   404A      4.875248  
     405A      4.900608   406A      4.906082   407A      4.915889  
     408A      4.921166   409A      4.947875   410A      4.958857  
     411A      4.983159   412A      4.987110   413A      4.993848  
     414A      5.006225   415A      5.021423   416A      5.028005  
     417A      5.043161   418A      5.053009   419A      5.079939  
     420A      5.088596   421A      5.128475   422A      5.137724  
     423A      5.149096   424A      5.161065   425A      5.167077  
     426A      5.201707   427A      5.219470   428A      5.238266  
     429A      5.260118   430A      5.275894   431A      5.282906  
     432A      5.301196   433A      5.319829   434A      5.322908  
     435A      5.339508   436A      5.390435   437A      5.409643  
     438A      5.417721   439A      5.469399   440A      5.507354  
     441A      5.522756   442A      5.538368   443A      5.563453  
     444A      5.571609   445A      5.586163   446A      5.617278  
     447A      5.661892   448A      5.687449   449A      5.700899  
     450A      5.747347   451A      5.756036   452A      5.758414  
     453A      5.789507   454A      5.796878   455A      5.827311  
     456A      5.836638   457A      5.847453   458A      5.896906  
     459A      5.920060   460A      5.931183   461A      5.965934  
     462A      6.001206   463A      6.011103   464A      6.066314  
     465A      6.097852   466A      6.123388   467A      6.178711  
     468A      6.205555   469A      6.235572   470A      6.297144  
     471A      6.308421   472A      6.372256   473A      6.406697  
     474A      6.436836   475A      6.457295   476A      6.461520  
     477A      6.487467   478A      6.521970   479A      6.530945  
     480A      6.552819   481A      6.563591   482A      6.572664  
     483A      6.646267   484A      6.687298   485A      6.823710  
     486A      6.828151   487A      6.897463   488A      6.965440  
     489A      7.038123   490A      7.068332   491A      7.157927  
     492A      7.205583   493A      7.227853   494A      7.269262  
     495A      7.352377   496A      7.400895   497A      7.458195  
     498A      7.522147   499A      7.535059   500A      7.600357  
     501A      7.635152   502A      7.655468   503A      7.697049  
     504A      7.781758   505A      7.800496   506A      7.849228  
     507A      7.856358   508A      7.921530   509A      7.955202  
     510A      7.990045   511A      8.053954   512A      8.176375  
     513A      8.221850   514A      8.273246   515A      8.525491  
     516A      8.698314   517A      8.880077   518A      9.169041  
     519A      9.464850   520A      9.691628   521A      9.743715  
     522A      9.820059   523A      9.888337   524A      9.928080  
     525A      9.930210   526A      9.976804   527A      9.988008  
     528A     10.137201   529A     10.408343   530A     10.504043  
     531A     11.054250   532A     11.414281   533A     11.632920  
     534A     11.642044   535A     12.064724   536A     13.130346  
     537A     13.716740   538A     13.754993   539A     13.949079  
     540A     13.959979   541A     14.153691   542A     14.681294  
     543A     43.059910   544A     45.122872   545A     45.829997  
     546A     61.199184   547A     62.163512  

    Final Occupation by Irrep:
              A 
    DOCC [    17 ]

  @DF-RHF Final Energy:  -193.19110565279328

   => Energetics <=

    Nuclear Repulsion Energy =            132.5949081918159038
    One-Electron Energy =                -524.8782589322270269
    Two-Electron Energy =                 199.0922450876178686
    Total Energy =                       -193.1911056527932828

Computation Completed


Properties will be evaluated at   0.000000,   0.000000,   0.000000 [a0]

Properties computed using the SCF density matrix

  Nuclear Dipole Moment: [e a0]
     X:  -150.1184      Y:     8.0935      Z:    -6.1738

  Electronic Dipole Moment: [e a0]
     X:   149.8961      Y:    -7.6652      Z:     5.6293

  Dipole Moment: [e a0]
     X:    -0.2222      Y:     0.4283      Z:    -0.5444     Total:     0.7275

  Dipole Moment: [D]
     X:    -0.5649      Y:     1.0887      Z:    -1.3839     Total:     1.8492


*** tstop() called on r282 at Fri Sep 10 17:29:40 2021
Module time:
	user time   =      46.90 seconds =       0.78 minutes
	system time =       0.77 seconds =       0.01 minutes
	total time  =         48 seconds =       0.80 minutes
Total time:
	user time   =     191.71 seconds =       3.20 minutes
	system time =       3.46 seconds =       0.06 minutes
	total time  =        196 seconds =       3.27 minutes
  Constructing Basis Sets for SAPT...

   => Loading Basis Set <=

    Name: (JUN-CC-PVTZ AUX)
    Role: RIFIT
    Keyword: DF_BASIS_SAPT
    atoms 1-3, 12-13, 20            entry C          line   132 file /home/r08543048/miniconda3/share/psi4/basis/jun-cc-pvtz-ri.gbs 
    atoms 4-5, 16                   entry O          line   244 file /home/r08543048/miniconda3/share/psi4/basis/jun-cc-pvtz-ri.gbs 
    atoms 6-11, 14-15, 17-19, 21-23 entry H          line    30 file /home/r08543048/miniconda3/share/psi4/basis/jun-cc-pvtz-ri.gbs 


  //>>>>>>>>>>>>>>>>>>>>>>>>>>>>>>>>>>>//
  //               SAPT0               //
  //<<<<<<<<<<<<<<<<<<<<<<<<<<<<<<<<<<<//


*** tstart() called on r282
*** at Fri Sep 10 17:29:40 2021

        SAPT0  
    Ed Hohenstein
     6 June 2009

      Orbital Information
  --------------------------
    NSO        =       547
    NMO        =       547
    NRI        =      1293
    NOCC A     =        20
    NOCC B     =        17
    FOCC A     =         0
    FOCC B     =         0
    NVIR A     =       527
    NVIR B     =       530

    Elst10,r            =    -0.035375854827 [Eh]
    Exch10              =     0.036947974032 [Eh]
    Exch10 (S^2)        =     0.036511323657 [Eh]

    Iter     Energy [mEh]          dE [mEh]         Residual      Time [s]
       1      -6.68615405       6.686154050      14.463661608             1
       2      -8.07052825       1.384374197       7.670409970             3
       3      -8.35391405       0.283385804       2.195851221             4
       4      -8.28077976      -0.073134295       0.789590598             5
       5      -8.27733723      -0.003442527       0.273850194             7
       6      -8.28356822       0.006230993       0.099953362             8
       7      -8.28379106       0.000222834       0.028498206             9
       8      -8.28332359      -0.000467470       0.009650710            11
       9      -8.28324345      -0.000080137       0.002770156            12
      10      -8.28329039       0.000046938       0.000673132            14
      11      -8.28329165       0.000001260       0.000153682            15
      12      -8.28328939      -0.000002256       0.000038063            16
      13      -8.28328945       0.000000056       0.000011640            18
      14      -8.28328958       0.000000134       0.000004359            19
      15      -8.28328957      -0.000000017       0.000001906            20
      16      -8.28328955      -0.000000017       0.000000595            22

    CHF Iterations converged


    Iter     Energy [mEh]          dE [mEh]         Residual      Time [s]
       1      -8.93443262       8.934432620      18.813526029             1
       2     -10.82937064       1.894938016       9.150789291             2
       3     -11.24474048       0.415369843       2.487660256             4
       4     -11.22169318      -0.023047304       0.723288156             5
       5     -11.19208020      -0.029612979       0.146548629             6
       6     -11.19471582       0.002635620       0.054934910             8
       7     -11.19592625       0.001210434       0.014392356             9
       8     -11.19564521      -0.000281045       0.003975211            10
       9     -11.19561273      -0.000032476       0.001051950            12
      10     -11.19563345       0.000020718       0.000299166            13
      11     -11.19563350       0.000000048       0.000088314            14
      12     -11.19563218      -0.000001315       0.000026777            16
      13     -11.19563222       0.000000038       0.000006231            17
      14     -11.19563231       0.000000088       0.000001262            18
      15     -11.19563230      -0.000000009       0.000000373            20

    CHF Iterations converged

    Ind20,r (A<-B)      =    -0.008283289549 [Eh]
    Ind20,r (B<-A)      =    -0.011195632298 [Eh]
    Ind20,r             =    -0.019478921848 [Eh]
    Exch-Ind20,r (A<-B) =     0.005881813650 [Eh]
    Exch-Ind20,r (B<-A) =     0.005877656015 [Eh]
    Exch-Ind20,r        =     0.011759469664 [Eh]
    Disp20              =    -0.014511973509 [Eh]
    Disp20 (SS)         =    -0.007255986755 [Eh]
    Disp20 (OS)         =    -0.007255986755 [Eh]
    Exch-Disp20         =     0.002675177726 [Eh]
    Exch-Disp20 (SS)    =     0.001678921179 [Eh]
    Exch-Disp20 (OS)    =     0.000996256547 [Eh]

    SAPT Results 
  --------------------------------------------------------------------------------------------------------
    Electrostatics                -35.37585483 [mEh]     -22.19868405 [kcal/mol]     -92.87929405 [kJ/mol]
      Elst10,r                    -35.37585483 [mEh]     -22.19868405 [kcal/mol]     -92.87929405 [kJ/mol]

    Exchange                       36.94797403 [mEh]      23.18520374 [kcal/mol]      97.00689246 [kJ/mol]
      Exch10                       36.94797403 [mEh]      23.18520374 [kcal/mol]      97.00689246 [kJ/mol]
      Exch10(S^2)                  36.51132366 [mEh]      22.91120150 [kcal/mol]      95.86046706 [kJ/mol]

    Induction                     -13.15370325 [mEh]      -8.25407340 [kcal/mol]     -34.53504312 [kJ/mol]
      Ind20,r                     -19.47892185 [mEh]     -12.22320800 [kcal/mol]     -51.14190227 [kJ/mol]
      Exch-Ind20,r                 11.75946966 [mEh]       7.37917862 [kcal/mol]      30.87448335 [kJ/mol]
      delta HF,r (2)               -5.43425107 [mEh]      -3.41004403 [kcal/mol]     -14.26762421 [kJ/mol]

    Dispersion                    -11.83679578 [mEh]      -7.42770149 [kcal/mol]     -31.07750305 [kJ/mol]
      Disp20                      -14.51197351 [mEh]      -9.10640086 [kcal/mol]     -38.10118120 [kJ/mol]
      Exch-Disp20                   2.67517773 [mEh]       1.67869937 [kcal/mol]       7.02367815 [kJ/mol]
      Disp20 (SS)                  -7.25598675 [mEh]      -4.55320043 [kcal/mol]     -19.05059060 [kJ/mol]
      Disp20 (OS)                  -7.25598675 [mEh]      -4.55320043 [kcal/mol]     -19.05059060 [kJ/mol]
      Exch-Disp20 (SS)              1.67892118 [mEh]       1.05353895 [kcal/mol]       4.40800695 [kJ/mol]
      Exch-Disp20 (OS)              0.99625655 [mEh]       0.62516042 [kcal/mol]       2.61567120 [kJ/mol]

  Total HF                        -11.58158404 [mEh]      -7.26755371 [kcal/mol]     -30.40744472 [kJ/mol]
  Total SAPT0                     -23.41837983 [mEh]     -14.69525520 [kcal/mol]     -61.48494777 [kJ/mol]

  Special recipe for scaled SAPT0 (see Manual):
    Electrostatics sSAPT0         -35.37585483 [mEh]     -22.19868405 [kcal/mol]     -92.87929405 [kJ/mol]
    Exchange sSAPT0                36.94797403 [mEh]      23.18520374 [kcal/mol]      97.00689246 [kJ/mol]
    Induction sSAPT0              -12.72673187 [mEh]      -7.98614482 [kcal/mol]     -33.41402993 [kJ/mol]
    Dispersion sSAPT0             -11.73966348 [mEh]      -7.36675006 [kcal/mol]     -30.82248223 [kJ/mol]
  Total sSAPT0                    -22.89427615 [mEh]     -14.36637518 [kcal/mol]     -60.10891376 [kJ/mol]
  --------------------------------------------------------------------------------------------------------

*** tstop() called on r282 at Fri Sep 10 17:32:36 2021
Module time:
	user time   =     151.87 seconds =       2.53 minutes
	system time =      24.61 seconds =       0.41 minutes
	total time  =        176 seconds =       2.93 minutes
Total time:
	user time   =     343.73 seconds =       5.73 minutes
	system time =      28.07 seconds =       0.47 minutes
	total time  =        372 seconds =       6.20 minutes

    Psi4 stopped on: Friday, 10 September 2021 05:32PM
    Psi4 wall time for execution: 0:06:12.26

*** Psi4 exiting successfully. Buy a developer a beer!
