
    -----------------------------------------------------------------------
          Psi4: An Open-Source Ab Initio Electronic Structure Package
                               Psi4 1.3.2 release

                         Git: Rev {HEAD} ecbda83 


    R. M. Parrish, L. A. Burns, D. G. A. Smith, A. C. Simmonett,
    A. E. DePrince III, E. G. Hohenstein, U. Bozkaya, A. Yu. Sokolov,
    R. Di Remigio, R. M. Richard, J. F. Gonthier, A. M. James,
    H. R. McAlexander, A. Kumar, M. Saitow, X. Wang, B. P. Pritchard,
    P. Verma, H. F. Schaefer III, K. Patkowski, R. A. King, E. F. Valeev,
    F. A. Evangelista, J. M. Turney, T. D. Crawford, and C. D. Sherrill,
    J. Chem. Theory Comput. 13(7) pp 3185--3197 (2017).
    (doi: 10.1021/acs.jctc.7b00174)


                         Additional Contributions by
    P. Kraus, H. Kruse, M. H. Lechner, M. C. Schieber, R. A. Shaw,
    A. Alenaizan, R. Galvelis, Z. L. Glick, S. Lehtola, and J. P. Misiewicz

    -----------------------------------------------------------------------


    Psi4 started on: Friday, 10 September 2021 05:42PM

    Process ID: 56920
    Host:       r282
    PSIDATADIR: /home/r08543048/miniconda3/share/psi4
    Memory:     500.0 MiB
    Threads:    1
    
  ==> Input File <==

--------------------------------------------------------------------------
# Any line starting with the # character is a comment line
#! Sample  computation

memory 22 gb

molecule Dimer {
0 1
 C -2.376615    0.306315    0.163413
 O -1.845336    0.324098   -1.053575
 O -1.895674   -0.229229    1.144221
 H -3.325685    0.847915    0.180362
 H -0.988095   -0.175927   -1.012467
 
 
 
 
 
 




    
    
    
 --
0 1
 C   2.095996    0.212074    0.554429
 C   1.701753   -1.024939   -0.231174
 H   1.675900    0.141642    1.561536
 H   3.182715    0.201069    0.668694
 O   0.283791   -1.160194   -0.378057
 H   2.094659   -0.973574   -1.246392
 
H   2.102951   -1.923932    0.242137
 
H  -0.134979   -1.122650    0.498064
 
C   1.651218    1.507852   -0.110798
 
H   0.566703    1.557659   -0.192626
 
H   1.981552    2.374135    0.460398
 
H   2.067920    1.588451   -1.115636







units angstrom

no_reorient
symmetry c1
}

set globals{
  basis jun-cc-pvtz
}

energy('sapt0')


--------------------------------------------------------------------------

  Memory set to  20.489 GiB by Python driver.

  //>>>>>>>>>>>>>>>>>>>>>>>>>>>>>>>>>>>//
  //              Dimer HF             //
  //<<<<<<<<<<<<<<<<<<<<<<<<<<<<<<<<<<<//


*** tstart() called on r282
*** at Fri Sep 10 17:42:05 2021

   => Loading Basis Set <=

    Name: JUN-CC-PVTZ
    Role: ORBITAL
    Keyword: BASIS
    atoms 1, 6-7, 14             entry C          line   217 file /home/r08543048/miniconda3/share/psi4/basis/jun-cc-pvtz.gbs 
    atoms 2-3, 10                entry O          line   305 file /home/r08543048/miniconda3/share/psi4/basis/jun-cc-pvtz.gbs 
    atoms 4-5, 8-9, 11-13, 15-17 entry H          line    36 file /home/r08543048/miniconda3/share/psi4/basis/jun-cc-pvtz.gbs 


         ---------------------------------------------------------
                                   SCF
               by Justin Turney, Rob Parrish, Andy Simmonett
                          and Daniel G. A. Smith
                              RHF Reference
                        1 Threads,  20980 MiB Core
         ---------------------------------------------------------

  ==> Geometry <==

    Molecular point group: c1
    Full point group: C1

    Geometry (in Angstrom), charge = 0, multiplicity = 1:

       Center              X                  Y                   Z               Mass       
    ------------   -----------------  -----------------  -----------------  -----------------
         C           -2.290497476083     0.329788711441     0.163811438276    12.000000000000
         O           -1.759218476083     0.347571711441    -1.053176561724    15.994914619570
         O           -1.809556476083    -0.205755288559     1.144619438276    15.994914619570
         H           -3.239567476083     0.871388711441     0.180760438276     1.007825032230
         H           -0.901977476083    -0.152453288559    -1.012068561724     1.007825032230
         C            2.182113523917     0.235547711441     0.554827438276    12.000000000000
         C            1.787870523917    -1.001465288559    -0.230775561724    12.000000000000
         H            1.762017523917     0.165115711441     1.561934438276     1.007825032230
         H            3.268832523917     0.224542711441     0.669092438276     1.007825032230
         O            0.369908523917    -1.136720288559    -0.377658561724    15.994914619570
         H            2.180776523917    -0.950100288559    -1.245993561724     1.007825032230
         H            2.189068523917    -1.900458288559     0.242535438276     1.007825032230
         H           -0.048861476083    -1.099176288559     0.498462438276     1.007825032230
         C            1.737335523917     1.531325711441    -0.110399561724    12.000000000000
         H            0.652820523917     1.581132711441    -0.192227561724     1.007825032230
         H            2.067669523917     2.397608711441     0.460796438276     1.007825032230
         H            2.154037523917     1.611924711441    -1.115237561724     1.007825032230

  Running in c1 symmetry.

  Rotational constants: A =      0.12385  B =      0.04255  C =      0.03957 [cm^-1]
  Rotational constants: A =   3713.07525  B =   1275.51901  C =   1186.14101 [MHz]
  Nuclear repulsion =  320.742712749423902

  Charge       = 0
  Multiplicity = 1
  Electrons    = 58
  Nalpha       = 29
  Nbeta        = 29

  ==> Algorithm <==

  SCF Algorithm Type is DF.
  DIIS enabled.
  MOM disabled.
  Fractional occupation disabled.
  Guess Type is SAD.
  Energy threshold   = 1.00e-08
  Density threshold  = 1.00e-08
  Integral threshold = 0.00e+00

  ==> Primary Basis <==

  Basis Set: JUN-CC-PVTZ
    Blend: JUN-CC-PVTZ
    Number of shells: 151
    Number of basis function: 413
    Number of Cartesian functions: 465
    Spherical Harmonics?: true
    Max angular momentum: 3

   => Loading Basis Set <=

    Name: (JUN-CC-PVTZ AUX)
    Role: JKFIT
    Keyword: DF_BASIS_SCF
    atoms 1, 6-7, 14             entry C          line   152 file /home/r08543048/miniconda3/share/psi4/basis/jun-cc-pvtz-jkfit.gbs 
    atoms 2-3, 10                entry O          line   272 file /home/r08543048/miniconda3/share/psi4/basis/jun-cc-pvtz-jkfit.gbs 
    atoms 4-5, 8-9, 11-13, 15-17 entry H          line    70 file /home/r08543048/miniconda3/share/psi4/basis/jun-cc-pvtz-jkfit.gbs 

  ==> Pre-Iterations <==

   -------------------------------------------------------
    Irrep   Nso     Nmo     Nalpha   Nbeta   Ndocc  Nsocc
   -------------------------------------------------------
     A        413     413       0       0       0       0
   -------------------------------------------------------
    Total     413     413      29      29      29       0
   -------------------------------------------------------

  ==> Integral Setup <==

  ==> DiskDFJK: Density-Fitted J/K Matrices <==

    J tasked:                  Yes
    K tasked:                  Yes
    wK tasked:                  No
    OpenMP threads:              1
    Integrals threads:           1
    Memory [MiB]:            15735
    Algorithm:                Core
    Integral Cache:           SAVE
    Schwarz Cutoff:          1E-12
    Fitting Condition:       1E-10

   => Auxiliary Basis Set <=

  Basis Set: (JUN-CC-PVTZ AUX)
    Blend: JUN-CC-PVTZ-JKFIT
    Number of shells: 303
    Number of basis function: 965
    Number of Cartesian functions: 1162
    Spherical Harmonics?: true
    Max angular momentum: 4

  Minimum eigenvalue in the overlap matrix is 7.9489821099E-05.
  Using Symmetric Orthogonalization.

  SCF Guess: Superposition of Atomic Densities via on-the-fly atomic UHF.

  ==> Iterations <==

                           Total Energy        Delta E     RMS |[F,P]|

   @DF-RHF iter SAD:  -380.73362048294655   -3.80734e+02   0.00000e+00 
   @DF-RHF iter   1:  -381.78500628162260   -1.05139e+00   1.78965e-03 DIIS
   @DF-RHF iter   2:  -381.97600742654947   -1.91001e-01   1.03761e-03 DIIS
   @DF-RHF iter   3:  -382.04079813287319   -6.47907e-02   1.75108e-04 DIIS
   @DF-RHF iter   4:  -382.04406750561930   -3.26937e-03   7.92683e-05 DIIS
   @DF-RHF iter   5:  -382.04462112674173   -5.53621e-04   1.79390e-05 DIIS
   @DF-RHF iter   6:  -382.04467204047893   -5.09137e-05   7.79917e-06 DIIS
   @DF-RHF iter   7:  -382.04468217876911   -1.01383e-05   2.79289e-06 DIIS
   @DF-RHF iter   8:  -382.04468415991005   -1.98114e-06   1.12871e-06 DIIS
   @DF-RHF iter   9:  -382.04468448828430   -3.28374e-07   2.94929e-07 DIIS
   @DF-RHF iter  10:  -382.04468451119249   -2.29082e-08   9.11524e-08 DIIS
   @DF-RHF iter  11:  -382.04468451283947   -1.64698e-09   2.78208e-08 DIIS
   @DF-RHF iter  12:  -382.04468451296987   -1.30399e-10   9.95464e-09 DIIS
  Energy and wave function converged.


  ==> Post-Iterations <==

    Orbital Energies [Eh]
    ---------------------

    Doubly Occupied:                                                      

       1A    -20.606088     2A    -20.570296     3A    -20.558830  
       4A    -11.390817     5A    -11.282481     6A    -11.228919  
       7A    -11.217044     8A     -1.463267     9A     -1.372234  
      10A     -1.362661    11A     -1.060361    12A     -0.933650  
      13A     -0.883073    14A     -0.822257    15A     -0.719851  
      16A     -0.711364    17A     -0.678905    18A     -0.651408  
      19A     -0.644457    20A     -0.623341    21A     -0.597792  
      22A     -0.565963    23A     -0.544641    24A     -0.528210  
      25A     -0.493969    26A     -0.484301    27A     -0.481915  
      28A     -0.469279    29A     -0.450014  

    Virtual:                                                              

      30A      0.052966    31A      0.054339    32A      0.060886  
      33A      0.064242    34A      0.078877    35A      0.082474  
      36A      0.089084    37A      0.095235    38A      0.099211  
      39A      0.112023    40A      0.116191    41A      0.125377  
      42A      0.136330    43A      0.155263    44A      0.169870  
      45A      0.173419    46A      0.178099    47A      0.193368  
      48A      0.205231    49A      0.219693    50A      0.223710  
      51A      0.234238    52A      0.236894    53A      0.246591  
      54A      0.258046    55A      0.262844    56A      0.271516  
      57A      0.273391    58A      0.283504    59A      0.284720  
      60A      0.289721    61A      0.298074    62A      0.308426  
      63A      0.321956    64A      0.329111    65A      0.332564  
      66A      0.342926    67A      0.347309    68A      0.349506  
      69A      0.369271    70A      0.375838    71A      0.377098  
      72A      0.385086    73A      0.398102    74A      0.410547  
      75A      0.417531    76A      0.431281    77A      0.440212  
      78A      0.450446    79A      0.468853    80A      0.476761  
      81A      0.480777    82A      0.490193    83A      0.495754  
      84A      0.512356    85A      0.516244    86A      0.532004  
      87A      0.537183    88A      0.548628    89A      0.555020  
      90A      0.563053    91A      0.575554    92A      0.582762  
      93A      0.604027    94A      0.612968    95A      0.627294  
      96A      0.646320    97A      0.654274    98A      0.665273  
      99A      0.671067   100A      0.679202   101A      0.698911  
     102A      0.720022   103A      0.730211   104A      0.740788  
     105A      0.750603   106A      0.763453   107A      0.773878  
     108A      0.776296   109A      0.780620   110A      0.791560  
     111A      0.807194   112A      0.809968   113A      0.815378  
     114A      0.835251   115A      0.852108   116A      0.858799  
     117A      0.873076   118A      0.876548   119A      0.886073  
     120A      0.896703   121A      0.921350   122A      0.935732  
     123A      0.950498   124A      0.959390   125A      0.970962  
     126A      0.986880   127A      1.005554   128A      1.019183  
     129A      1.022564   130A      1.043494   131A      1.055596  
     132A      1.066899   133A      1.083253   134A      1.103543  
     135A      1.125733   136A      1.141143   137A      1.150400  
     138A      1.166291   139A      1.178595   140A      1.189544  
     141A      1.198361   142A      1.211231   143A      1.244535  
     144A      1.257772   145A      1.266079   146A      1.276117  
     147A      1.298033   148A      1.309594   149A      1.328923  
     150A      1.331994   151A      1.340194   152A      1.357174  
     153A      1.364971   154A      1.379940   155A      1.397348  
     156A      1.404023   157A      1.414538   158A      1.420931  
     159A      1.448613   160A      1.457779   161A      1.461448  
     162A      1.483691   163A      1.492967   164A      1.513824  
     165A      1.526656   166A      1.537728   167A      1.551282  
     168A      1.569023   169A      1.589072   170A      1.603685  
     171A      1.618951   172A      1.622605   173A      1.638782  
     174A      1.663157   175A      1.670762   176A      1.690295  
     177A      1.697831   178A      1.713734   179A      1.741224  
     180A      1.741743   181A      1.761657   182A      1.795515  
     183A      1.821232   184A      1.835453   185A      1.845428  
     186A      1.874630   187A      1.893805   188A      1.922466  
     189A      1.934187   190A      1.983336   191A      1.998709  
     192A      2.060999   193A      2.088632   194A      2.178573  
     195A      2.205126   196A      2.222494   197A      2.283734  
     198A      2.318507   199A      2.344254   200A      2.364774  
     201A      2.386805   202A      2.415668   203A      2.427140  
     204A      2.470665   205A      2.499928   206A      2.524498  
     207A      2.578134   208A      2.597902   209A      2.627933  
     210A      2.684995   211A      2.709353   212A      2.759689  
     213A      2.806944   214A      2.821227   215A      2.832428  
     216A      2.856412   217A      2.874436   218A      2.893956  
     219A      2.928604   220A      2.958414   221A      2.968004  
     222A      2.987910   223A      3.041308   224A      3.070763  
     225A      3.105641   226A      3.112170   227A      3.118884  
     228A      3.136462   229A      3.159481   230A      3.167258  
     231A      3.189405   232A      3.233952   233A      3.247004  
     234A      3.276076   235A      3.288842   236A      3.295933  
     237A      3.322755   238A      3.340334   239A      3.357726  
     240A      3.375835   241A      3.393087   242A      3.397734  
     243A      3.406105   244A      3.427079   245A      3.453437  
     246A      3.458094   247A      3.471951   248A      3.485111  
     249A      3.500323   250A      3.516860   251A      3.521359  
     252A      3.536185   253A      3.537145   254A      3.560135  
     255A      3.563347   256A      3.586265   257A      3.613588  
     258A      3.628878   259A      3.640753   260A      3.645433  
     261A      3.681430   262A      3.694401   263A      3.712257  
     264A      3.726295   265A      3.746930   266A      3.758711  
     267A      3.772035   268A      3.793293   269A      3.819425  
     270A      3.832311   271A      3.841944   272A      3.861439  
     273A      3.881402   274A      3.885473   275A      3.906528  
     276A      3.910889   277A      3.938865   278A      3.946142  
     279A      3.957803   280A      3.967750   281A      3.985072  
     282A      4.008143   283A      4.071819   284A      4.080090  
     285A      4.104557   286A      4.132753   287A      4.151718  
     288A      4.181583   289A      4.214385   290A      4.237433  
     291A      4.250733   292A      4.257599   293A      4.271655  
     294A      4.295155   295A      4.311112   296A      4.321455  
     297A      4.337287   298A      4.345575   299A      4.362355  
     300A      4.386180   301A      4.403592   302A      4.410040  
     303A      4.424298   304A      4.453368   305A      4.464662  
     306A      4.472765   307A      4.480381   308A      4.497625  
     309A      4.509425   310A      4.530061   311A      4.545766  
     312A      4.552370   313A      4.568469   314A      4.610254  
     315A      4.617484   316A      4.655415   317A      4.663225  
     318A      4.678638   319A      4.704482   320A      4.720672  
     321A      4.755555   322A      4.777915   323A      4.786229  
     324A      4.799258   325A      4.846783   326A      4.868149  
     327A      4.876151   328A      4.884509   329A      4.968529  
     330A      4.983435   331A      5.024630   332A      5.050597  
     333A      5.086279   334A      5.098482   335A      5.116475  
     336A      5.169430   337A      5.170058   338A      5.193254  
     339A      5.228512   340A      5.248713   341A      5.253700  
     342A      5.288178   343A      5.300164   344A      5.328139  
     345A      5.371977   346A      5.398175   347A      5.411322  
     348A      5.483589   349A      5.498544   350A      5.538314  
     351A      5.573051   352A      5.598817   353A      5.648231  
     354A      5.653451   355A      5.668671   356A      5.740600  
     357A      5.749178   358A      5.771488   359A      5.787130  
     360A      5.807238   361A      5.831001   362A      5.844230  
     363A      5.871922   364A      5.890492   365A      5.916087  
     366A      5.922818   367A      5.952660   368A      5.988145  
     369A      6.060457   370A      6.072495   371A      6.123691  
     372A      6.221893   373A      6.251690   374A      6.281181  
     375A      6.441426   376A      6.486532   377A      6.517416  
     378A      6.523903   379A      6.539339   380A      6.594760  
     381A      6.723249   382A      6.851885   383A      6.924815  
     384A      6.943564   385A      6.960739   386A      7.043972  
     387A      7.144472   388A      7.194265   389A      7.215379  
     390A      7.246608   391A      7.251799   392A      7.305723  
     393A      7.349090   394A      7.372383   395A      7.408510  
     396A      7.419173   397A      7.516900   398A      7.581348  
     399A      7.633325   400A      7.724425   401A      7.731066  
     402A      7.804434   403A      7.908528   404A      7.979418  
     405A      8.130982   406A      8.353887   407A     12.626458  
     408A     13.665431   409A     13.780469   410A     13.904947  
     411A     14.103397   412A     14.593227   413A     14.663194  

    Final Occupation by Irrep:
              A 
    DOCC [    29 ]

  @DF-RHF Final Energy:  -382.04468451296987

   => Energetics <=

    Nuclear Repulsion Energy =            320.7427127494239016
    One-Electron Energy =               -1158.7800268161454369
    Two-Electron Energy =                 455.9926295537517262
    Total Energy =                       -382.0446845129698659

Computation Completed


Properties will be evaluated at   0.000000,   0.000000,   0.000000 [a0]

Properties computed using the SCF density matrix

  Nuclear Dipole Moment: [e a0]
     X:     9.4388      Y:     2.5728      Z:     0.0437

  Electronic Dipole Moment: [e a0]
     X:    -8.9007      Y:    -2.2803      Z:    -0.0900

  Dipole Moment: [e a0]
     X:     0.5382      Y:     0.2925      Z:    -0.0463     Total:     0.6142

  Dipole Moment: [D]
     X:     1.3678      Y:     0.7434      Z:    -0.1178     Total:     1.5613


*** tstop() called on r282 at Fri Sep 10 17:42:39 2021
Module time:
	user time   =      33.50 seconds =       0.56 minutes
	system time =       0.88 seconds =       0.01 minutes
	total time  =         34 seconds =       0.57 minutes
Total time:
	user time   =      33.50 seconds =       0.56 minutes
	system time =       0.88 seconds =       0.01 minutes
	total time  =         34 seconds =       0.57 minutes

  //>>>>>>>>>>>>>>>>>>>>>>>>>>>>>>>>>>>//
  //            Monomer A HF           //
  //<<<<<<<<<<<<<<<<<<<<<<<<<<<<<<<<<<<//


*** tstart() called on r282
*** at Fri Sep 10 17:42:39 2021

   => Loading Basis Set <=

    Name: JUN-CC-PVTZ
    Role: ORBITAL
    Keyword: BASIS
    atoms 1, 6-7, 14             entry C          line   217 file /home/r08543048/miniconda3/share/psi4/basis/jun-cc-pvtz.gbs 
    atoms 2-3, 10                entry O          line   305 file /home/r08543048/miniconda3/share/psi4/basis/jun-cc-pvtz.gbs 
    atoms 4-5, 8-9, 11-13, 15-17 entry H          line    36 file /home/r08543048/miniconda3/share/psi4/basis/jun-cc-pvtz.gbs 


         ---------------------------------------------------------
                                   SCF
               by Justin Turney, Rob Parrish, Andy Simmonett
                          and Daniel G. A. Smith
                              RHF Reference
                        1 Threads,  20980 MiB Core
         ---------------------------------------------------------

  ==> Geometry <==

    Molecular point group: c1
    Full point group: C1

    Geometry (in Angstrom), charge = 0, multiplicity = 1:

       Center              X                  Y                   Z               Mass       
    ------------   -----------------  -----------------  -----------------  -----------------
         C           -2.290497476083     0.329788711441     0.163811438276    12.000000000000
         O           -1.759218476083     0.347571711441    -1.053176561724    15.994914619570
         O           -1.809556476083    -0.205755288559     1.144619438276    15.994914619570
         H           -3.239567476083     0.871388711441     0.180760438276     1.007825032230
         H           -0.901977476083    -0.152453288559    -1.012068561724     1.007825032230
      Gh(C)           2.182113523917     0.235547711441     0.554827438276    12.000000000000
      Gh(C)           1.787870523917    -1.001465288559    -0.230775561724    12.000000000000
      Gh(H)           1.762017523917     0.165115711441     1.561934438276     1.007825032230
      Gh(H)           3.268832523917     0.224542711441     0.669092438276     1.007825032230
      Gh(O)           0.369908523917    -1.136720288559    -0.377658561724    15.994914619570
      Gh(H)           2.180776523917    -0.950100288559    -1.245993561724     1.007825032230
      Gh(H)           2.189068523917    -1.900458288559     0.242535438276     1.007825032230
      Gh(H)          -0.048861476083    -1.099176288559     0.498462438276     1.007825032230
      Gh(C)           1.737335523917     1.531325711441    -0.110399561724    12.000000000000
      Gh(H)           0.652820523917     1.581132711441    -0.192227561724     1.007825032230
      Gh(H)           2.067669523917     2.397608711441     0.460796438276     1.007825032230
      Gh(H)           2.154037523917     1.611924711441    -1.115237561724     1.007825032230

  Running in c1 symmetry.

  Rotational constants: A =      0.12385  B =      0.04255  C =      0.03957 [cm^-1]
  Rotational constants: A =   3713.07525  B =   1275.51901  C =   1186.14101 [MHz]
  Nuclear repulsion =   69.997339364247566

  Charge       = 0
  Multiplicity = 1
  Electrons    = 24
  Nalpha       = 12
  Nbeta        = 12

  ==> Algorithm <==

  SCF Algorithm Type is DF.
  DIIS enabled.
  MOM disabled.
  Fractional occupation disabled.
  Guess Type is SAD.
  Energy threshold   = 1.00e-08
  Density threshold  = 1.00e-08
  Integral threshold = 0.00e+00

  ==> Primary Basis <==

  Basis Set: JUN-CC-PVTZ
    Blend: JUN-CC-PVTZ
    Number of shells: 151
    Number of basis function: 413
    Number of Cartesian functions: 465
    Spherical Harmonics?: true
    Max angular momentum: 3

   => Loading Basis Set <=

    Name: (JUN-CC-PVTZ AUX)
    Role: JKFIT
    Keyword: DF_BASIS_SCF
    atoms 1, 6-7, 14             entry C          line   152 file /home/r08543048/miniconda3/share/psi4/basis/jun-cc-pvtz-jkfit.gbs 
    atoms 2-3, 10                entry O          line   272 file /home/r08543048/miniconda3/share/psi4/basis/jun-cc-pvtz-jkfit.gbs 
    atoms 4-5, 8-9, 11-13, 15-17 entry H          line    70 file /home/r08543048/miniconda3/share/psi4/basis/jun-cc-pvtz-jkfit.gbs 

  ==> Pre-Iterations <==

   -------------------------------------------------------
    Irrep   Nso     Nmo     Nalpha   Nbeta   Ndocc  Nsocc
   -------------------------------------------------------
     A        413     413       0       0       0       0
   -------------------------------------------------------
    Total     413     413      12      12      12       0
   -------------------------------------------------------

  ==> Integral Setup <==

  ==> DiskDFJK: Density-Fitted J/K Matrices <==

    J tasked:                  Yes
    K tasked:                  Yes
    wK tasked:                  No
    OpenMP threads:              1
    Integrals threads:           1
    Memory [MiB]:            15735
    Algorithm:                Core
    Integral Cache:           LOAD
    Schwarz Cutoff:          1E-12
    Fitting Condition:       1E-10

   => Auxiliary Basis Set <=

  Basis Set: (JUN-CC-PVTZ AUX)
    Blend: JUN-CC-PVTZ-JKFIT
    Number of shells: 303
    Number of basis function: 965
    Number of Cartesian functions: 1162
    Spherical Harmonics?: true
    Max angular momentum: 4

  Minimum eigenvalue in the overlap matrix is 7.9489821099E-05.
  Using Symmetric Orthogonalization.

  SCF Guess: Superposition of Atomic Densities via on-the-fly atomic UHF.

  ==> Iterations <==

                           Total Energy        Delta E     RMS |[F,P]|

   @DF-RHF iter SAD:  -187.99598847301490   -1.87996e+02   0.00000e+00 
   @DF-RHF iter   1:  -188.73335021964866   -7.37362e-01   1.27109e-03 DIIS
   @DF-RHF iter   2:  -188.79526150141820   -6.19113e-02   9.08929e-04 DIIS
   @DF-RHF iter   3:  -188.83957094874359   -4.43094e-02   1.05762e-04 DIIS
   @DF-RHF iter   4:  -188.84068397385960   -1.11303e-03   5.63859e-05 DIIS
   @DF-RHF iter   5:  -188.84096555638334   -2.81583e-04   1.36257e-05 DIIS
   @DF-RHF iter   6:  -188.84100807542001   -4.25190e-05   5.92950e-06 DIIS
   @DF-RHF iter   7:  -188.84101767857612   -9.60316e-06   2.10922e-06 DIIS
   @DF-RHF iter   8:  -188.84101873918087   -1.06060e-06   6.46659e-07 DIIS
   @DF-RHF iter   9:  -188.84101883969521   -1.00514e-07   1.88255e-07 DIIS
   @DF-RHF iter  10:  -188.84101884804724   -8.35203e-09   4.23926e-08 DIIS
   @DF-RHF iter  11:  -188.84101884841559   -3.68345e-10   7.39296e-09 DIIS
  Energy and wave function converged.


  ==> Post-Iterations <==

    Orbital Energies [Eh]
    ---------------------

    Doubly Occupied:                                                      

       1A    -20.636725     2A    -20.564825     3A    -11.398213  
       4A     -1.478950     5A     -1.371307     6A     -0.898406  
       7A     -0.728118     8A     -0.712395     9A     -0.641373  
      10A     -0.600756    11A     -0.493223    12A     -0.472821  

    Virtual:                                                              

      13A      0.029583    14A      0.046137    15A      0.054057  
      16A      0.060540    17A      0.073793    18A      0.077793  
      19A      0.085067    20A      0.090028    21A      0.094705  
      22A      0.109027    23A      0.109780    24A      0.115739  
      25A      0.130881    26A      0.138800    27A      0.146393  
      28A      0.157327    29A      0.165695    30A      0.173428  
      31A      0.177791    32A      0.192218    33A      0.208404  
      34A      0.213397    35A      0.220911    36A      0.229510  
      37A      0.237240    38A      0.251575    39A      0.258832  
      40A      0.264890    41A      0.270513    42A      0.278657  
      43A      0.282161    44A      0.287216    45A      0.303892  
      46A      0.312351    47A      0.319790    48A      0.326671  
      49A      0.342174    50A      0.352186    51A      0.359912  
      52A      0.378475    53A      0.381672    54A      0.391287  
      55A      0.403997    56A      0.406586    57A      0.420227  
      58A      0.432560    59A      0.440445    60A      0.452178  
      61A      0.460284    62A      0.469449    63A      0.474586  
      64A      0.481633    65A      0.488636    66A      0.490524  
      67A      0.502219    68A      0.520152    69A      0.529710  
      70A      0.542150    71A      0.559168    72A      0.562727  
      73A      0.571954    74A      0.576368    75A      0.586640  
      76A      0.593298    77A      0.607440    78A      0.609855  
      79A      0.615735    80A      0.620668    81A      0.635209  
      82A      0.649755    83A      0.660842    84A      0.687388  
      85A      0.695001    86A      0.702677    87A      0.718143  
      88A      0.729361    89A      0.758001    90A      0.769827  
      91A      0.789742    92A      0.797872    93A      0.807082  
      94A      0.834216    95A      0.854726    96A      0.868538  
      97A      0.887064    98A      0.909370    99A      0.914285  
     100A      0.922947   101A      0.951685   102A      0.967852  
     103A      0.997028   104A      1.013708   105A      1.026785  
     106A      1.046381   107A      1.048145   108A      1.063129  
     109A      1.076497   110A      1.084166   111A      1.104952  
     112A      1.114130   113A      1.139250   114A      1.145292  
     115A      1.154906   116A      1.158922   117A      1.176644  
     118A      1.179770   119A      1.190129   120A      1.207186  
     121A      1.213126   122A      1.227552   123A      1.234865  
     124A      1.244740   125A      1.255228   126A      1.266248  
     127A      1.273745   128A      1.281811   129A      1.302932  
     130A      1.316929   131A      1.324836   132A      1.338525  
     133A      1.347765   134A      1.361233   135A      1.367192  
     136A      1.374603   137A      1.380207   138A      1.396854  
     139A      1.413198   140A      1.425091   141A      1.448493  
     142A      1.451089   143A      1.473560   144A      1.474442  
     145A      1.504432   146A      1.513532   147A      1.539129  
     148A      1.560422   149A      1.568165   150A      1.578863  
     151A      1.593869   152A      1.610537   153A      1.634559  
     154A      1.644676   155A      1.660018   156A      1.663634  
     157A      1.690532   158A      1.716537   159A      1.734241  
     160A      1.739150   161A      1.778208   162A      1.791138  
     163A      1.835679   164A      1.840886   165A      1.856201  
     166A      1.873307   167A      1.912301   168A      1.945959  
     169A      1.970310   170A      1.997505   171A      2.025690  
     172A      2.056295   173A      2.089595   174A      2.113862  
     175A      2.143903   176A      2.183964   177A      2.188668  
     178A      2.196711   179A      2.222070   180A      2.223365  
     181A      2.285752   182A      2.319184   183A      2.337199  
     184A      2.359918   185A      2.367460   186A      2.387798  
     187A      2.415647   188A      2.418839   189A      2.462850  
     190A      2.472871   191A      2.501432   192A      2.532100  
     193A      2.545752   194A      2.567731   195A      2.589271  
     196A      2.605396   197A      2.629892   198A      2.662238  
     199A      2.708178   200A      2.761885   201A      2.779756  
     202A      2.874803   203A      2.915611   204A      2.949924  
     205A      2.979056   206A      3.057251   207A      3.098182  
     208A      3.124056   209A      3.185858   210A      3.261214  
     211A      3.313651   212A      3.320751   213A      3.383081  
     214A      3.410362   215A      3.474191   216A      3.479011  
     217A      3.520324   218A      3.528572   219A      3.558951  
     220A      3.563908   221A      3.573739   222A      3.595250  
     223A      3.612327   224A      3.627004   225A      3.633213  
     226A      3.643685   227A      3.646673   228A      3.691788  
     229A      3.703847   230A      3.724449   231A      3.735790  
     232A      3.756321   233A      3.778794   234A      3.794954  
     235A      3.819404   236A      3.833432   237A      3.840589  
     238A      3.851528   239A      3.872951   240A      3.902383  
     241A      3.908998   242A      3.920583   243A      3.942823  
     244A      3.951406   245A      3.953462   246A      4.001656  
     247A      4.028818   248A      4.039049   249A      4.074326  
     250A      4.112486   251A      4.125243   252A      4.164675  
     253A      4.215788   254A      4.225099   255A      4.226238  
     256A      4.242122   257A      4.252771   258A      4.279901  
     259A      4.303385   260A      4.343323   261A      4.372401  
     262A      4.389708   263A      4.398357   264A      4.412707  
     265A      4.417722   266A      4.460772   267A      4.475978  
     268A      4.486295   269A      4.504310   270A      4.520997  
     271A      4.529386   272A      4.537218   273A      4.585195  
     274A      4.597541   275A      4.602627   276A      4.630077  
     277A      4.640870   278A      4.650624   279A      4.668179  
     280A      4.690448   281A      4.714155   282A      4.724020  
     283A      4.738882   284A      4.744282   285A      4.752138  
     286A      4.763213   287A      4.776850   288A      4.785495  
     289A      4.803469   290A      4.820172   291A      4.833737  
     292A      4.854171   293A      4.882080   294A      4.899553  
     295A      4.905188   296A      4.914955   297A      4.934026  
     298A      4.944125   299A      4.946816   300A      4.953187  
     301A      4.959805   302A      4.982619   303A      5.000894  
     304A      5.024106   305A      5.036021   306A      5.046134  
     307A      5.053941   308A      5.078068   309A      5.094581  
     310A      5.111494   311A      5.139666   312A      5.159296  
     313A      5.170583   314A      5.189735   315A      5.225995  
     316A      5.248229   317A      5.293887   318A      5.315412  
     319A      5.345012   320A      5.379600   321A      5.415322  
     322A      5.465258   323A      5.501714   324A      5.582823  
     325A      5.599260   326A      5.608202   327A      5.630179  
     328A      5.644409   329A      5.690471   330A      5.725348  
     331A      5.782376   332A      5.800521   333A      5.812101  
     334A      5.848856   335A      5.862328   336A      5.875823  
     337A      5.946352   338A      5.956327   339A      6.004484  
     340A      6.043126   341A      6.096860   342A      6.151285  
     343A      6.172961   344A      6.200862   345A      6.229761  
     346A      6.269301   347A      6.300861   348A      6.339962  
     349A      6.383767   350A      6.396504   351A      6.453584  
     352A      6.465801   353A      6.507846   354A      6.627329  
     355A      6.672500   356A      6.717261   357A      6.839712  
     358A      6.859188   359A      6.912692   360A      6.926791  
     361A      6.942516   362A      6.988316   363A      7.073413  
     364A      7.125291   365A      7.188887   366A      7.233352  
     367A      7.242389   368A      7.295036   369A      7.334734  
     370A      7.364001   371A      7.387908   372A      7.406663  
     373A      7.480947   374A      7.486837   375A      7.528646  
     376A      7.560943   377A      7.599120   378A      7.620117  
     379A      7.683612   380A      7.695854   381A      7.731974  
     382A      7.780598   383A      7.801553   384A      7.821908  
     385A      7.859134   386A      7.905319   387A      7.937575  
     388A      7.982912   389A      8.066092   390A      8.161270  
     391A      8.203752   392A      8.341800   393A      8.455068  
     394A      8.571648   395A      9.534213   396A      9.621484  
     397A      9.776241   398A      9.855894   399A      9.909800  
     400A     10.124376   401A     10.168010   402A     10.492663  
     403A     11.211599   404A     11.659226   405A     12.616431  
     406A     12.741779   407A     13.581961   408A     13.797640  
     409A     14.599598   410A     44.029885   411A     44.860767  
     412A     45.701642   413A     61.443884  

    Final Occupation by Irrep:
              A 
    DOCC [    12 ]

  @DF-RHF Final Energy:  -188.84101884841559

   => Energetics <=

    Nuclear Repulsion Energy =             69.9973393642475656
    One-Electron Energy =                -397.6824907383889922
    Two-Electron Energy =                 138.8441325257258256
    Total Energy =                       -188.8410188484155867

Computation Completed


Properties will be evaluated at   0.000000,   0.000000,   0.000000 [a0]

Properties computed using the SCF density matrix

  Nuclear Dipole Moment: [e a0]
     X:   -87.7489      Y:     7.2418      Z:     1.6688

  Electronic Dipole Moment: [e a0]
     X:    87.6790      Y:    -7.0096      Z:    -2.3888

  Dipole Moment: [e a0]
     X:    -0.0700      Y:     0.2322      Z:    -0.7200     Total:     0.7597

  Dipole Moment: [D]
     X:    -0.1778      Y:     0.5903      Z:    -1.8300     Total:     1.9310


*** tstop() called on r282 at Fri Sep 10 17:42:55 2021
Module time:
	user time   =      15.54 seconds =       0.26 minutes
	system time =       0.37 seconds =       0.01 minutes
	total time  =         16 seconds =       0.27 minutes
Total time:
	user time   =      49.04 seconds =       0.82 minutes
	system time =       1.25 seconds =       0.02 minutes
	total time  =         50 seconds =       0.83 minutes

  //>>>>>>>>>>>>>>>>>>>>>>>>>>>>>>>>>>>//
  //            Monomer B HF           //
  //<<<<<<<<<<<<<<<<<<<<<<<<<<<<<<<<<<<//


*** tstart() called on r282
*** at Fri Sep 10 17:42:55 2021

   => Loading Basis Set <=

    Name: JUN-CC-PVTZ
    Role: ORBITAL
    Keyword: BASIS
    atoms 1, 6-7, 14             entry C          line   217 file /home/r08543048/miniconda3/share/psi4/basis/jun-cc-pvtz.gbs 
    atoms 2-3, 10                entry O          line   305 file /home/r08543048/miniconda3/share/psi4/basis/jun-cc-pvtz.gbs 
    atoms 4-5, 8-9, 11-13, 15-17 entry H          line    36 file /home/r08543048/miniconda3/share/psi4/basis/jun-cc-pvtz.gbs 


         ---------------------------------------------------------
                                   SCF
               by Justin Turney, Rob Parrish, Andy Simmonett
                          and Daniel G. A. Smith
                              RHF Reference
                        1 Threads,  20980 MiB Core
         ---------------------------------------------------------

  ==> Geometry <==

    Molecular point group: c1
    Full point group: C1

    Geometry (in Angstrom), charge = 0, multiplicity = 1:

       Center              X                  Y                   Z               Mass       
    ------------   -----------------  -----------------  -----------------  -----------------
      Gh(C)          -2.290497476083     0.329788711441     0.163811438276    12.000000000000
      Gh(O)          -1.759218476083     0.347571711441    -1.053176561724    15.994914619570
      Gh(O)          -1.809556476083    -0.205755288559     1.144619438276    15.994914619570
      Gh(H)          -3.239567476083     0.871388711441     0.180760438276     1.007825032230
      Gh(H)          -0.901977476083    -0.152453288559    -1.012068561724     1.007825032230
         C            2.182113523917     0.235547711441     0.554827438276    12.000000000000
         C            1.787870523917    -1.001465288559    -0.230775561724    12.000000000000
         H            1.762017523917     0.165115711441     1.561934438276     1.007825032230
         H            3.268832523917     0.224542711441     0.669092438276     1.007825032230
         O            0.369908523917    -1.136720288559    -0.377658561724    15.994914619570
         H            2.180776523917    -0.950100288559    -1.245993561724     1.007825032230
         H            2.189068523917    -1.900458288559     0.242535438276     1.007825032230
         H           -0.048861476083    -1.099176288559     0.498462438276     1.007825032230
         C            1.737335523917     1.531325711441    -0.110399561724    12.000000000000
         H            0.652820523917     1.581132711441    -0.192227561724     1.007825032230
         H            2.067669523917     2.397608711441     0.460796438276     1.007825032230
         H            2.154037523917     1.611924711441    -1.115237561724     1.007825032230

  Running in c1 symmetry.

  Rotational constants: A =      0.12385  B =      0.04255  C =      0.03957 [cm^-1]
  Rotational constants: A =   3713.07525  B =   1275.51901  C =   1186.14101 [MHz]
  Nuclear repulsion =  132.594398622943174

  Charge       = 0
  Multiplicity = 1
  Electrons    = 34
  Nalpha       = 17
  Nbeta        = 17

  ==> Algorithm <==

  SCF Algorithm Type is DF.
  DIIS enabled.
  MOM disabled.
  Fractional occupation disabled.
  Guess Type is SAD.
  Energy threshold   = 1.00e-08
  Density threshold  = 1.00e-08
  Integral threshold = 0.00e+00

  ==> Primary Basis <==

  Basis Set: JUN-CC-PVTZ
    Blend: JUN-CC-PVTZ
    Number of shells: 151
    Number of basis function: 413
    Number of Cartesian functions: 465
    Spherical Harmonics?: true
    Max angular momentum: 3

   => Loading Basis Set <=

    Name: (JUN-CC-PVTZ AUX)
    Role: JKFIT
    Keyword: DF_BASIS_SCF
    atoms 1, 6-7, 14             entry C          line   152 file /home/r08543048/miniconda3/share/psi4/basis/jun-cc-pvtz-jkfit.gbs 
    atoms 2-3, 10                entry O          line   272 file /home/r08543048/miniconda3/share/psi4/basis/jun-cc-pvtz-jkfit.gbs 
    atoms 4-5, 8-9, 11-13, 15-17 entry H          line    70 file /home/r08543048/miniconda3/share/psi4/basis/jun-cc-pvtz-jkfit.gbs 

  ==> Pre-Iterations <==

   -------------------------------------------------------
    Irrep   Nso     Nmo     Nalpha   Nbeta   Ndocc  Nsocc
   -------------------------------------------------------
     A        413     413       0       0       0       0
   -------------------------------------------------------
    Total     413     413      17      17      17       0
   -------------------------------------------------------

  ==> Integral Setup <==

  ==> DiskDFJK: Density-Fitted J/K Matrices <==

    J tasked:                  Yes
    K tasked:                  Yes
    wK tasked:                  No
    OpenMP threads:              1
    Integrals threads:           1
    Memory [MiB]:            15735
    Algorithm:                Core
    Integral Cache:           LOAD
    Schwarz Cutoff:          1E-12
    Fitting Condition:       1E-10

   => Auxiliary Basis Set <=

  Basis Set: (JUN-CC-PVTZ AUX)
    Blend: JUN-CC-PVTZ-JKFIT
    Number of shells: 303
    Number of basis function: 965
    Number of Cartesian functions: 1162
    Spherical Harmonics?: true
    Max angular momentum: 4

  Minimum eigenvalue in the overlap matrix is 7.9489821099E-05.
  Using Symmetric Orthogonalization.

  SCF Guess: Superposition of Atomic Densities via on-the-fly atomic UHF.

  ==> Iterations <==

                           Total Energy        Delta E     RMS |[F,P]|

   @DF-RHF iter SAD:  -192.48411539830815   -1.92484e+02   0.00000e+00 
   @DF-RHF iter   1:  -193.01116028788050   -5.27045e-01   1.38212e-03 DIIS
   @DF-RHF iter   2:  -193.15196605743262   -1.40806e-01   7.32538e-04 DIIS
   @DF-RHF iter   3:  -193.18887760307570   -3.69115e-02   1.25156e-04 DIIS
   @DF-RHF iter   4:  -193.19098777386037   -2.11017e-03   4.59993e-05 DIIS
   @DF-RHF iter   5:  -193.19119188122585   -2.04107e-04   1.03107e-05 DIIS
   @DF-RHF iter   6:  -193.19120633062931   -1.44494e-05   2.16332e-06 DIIS
   @DF-RHF iter   7:  -193.19120730450106   -9.73872e-07   5.50727e-07 DIIS
   @DF-RHF iter   8:  -193.19120736423801   -5.97369e-08   1.85703e-07 DIIS
   @DF-RHF iter   9:  -193.19120737091896   -6.68095e-09   5.05560e-08 DIIS
   @DF-RHF iter  10:  -193.19120737148924   -5.70282e-10   1.09312e-08 DIIS
   @DF-RHF iter  11:  -193.19120737151309   -2.38458e-11   2.79124e-09 DIIS
  Energy and wave function converged.


  ==> Post-Iterations <==

    Orbital Energies [Eh]
    ---------------------

    Doubly Occupied:                                                      

       1A    -20.553567     2A    -11.271364     3A    -11.223826  
       4A    -11.211065     5A     -1.349864     6A     -1.052440  
       7A     -0.921472     8A     -0.812755     9A     -0.668233  
      10A     -0.637872    11A     -0.629971    12A     -0.564581  
      13A     -0.533802    14A     -0.519088    15A     -0.486588  
      16A     -0.470658    17A     -0.437455  

    Virtual:                                                              

      18A      0.041403    19A      0.053371    20A      0.057336  
      21A      0.060998    22A      0.075299    23A      0.081241  
      24A      0.083208    25A      0.094374    26A      0.099079  
      27A      0.110202    28A      0.116892    29A      0.122477  
      30A      0.137057    31A      0.155331    32A      0.162980  
      33A      0.165822    34A      0.175442    35A      0.186058  
      36A      0.194896    37A      0.209696    38A      0.210249  
      39A      0.221861    40A      0.232618    41A      0.236044  
      42A      0.248160    43A      0.264392    44A      0.267790  
      45A      0.276195    46A      0.284131    47A      0.286528  
      48A      0.291612    49A      0.311204    50A      0.323572  
      51A      0.331023    52A      0.336441    53A      0.341827  
      54A      0.349123    55A      0.355109    56A      0.360748  
      57A      0.372000    58A      0.377249    59A      0.384774  
      60A      0.397942    61A      0.407000    62A      0.413946  
      63A      0.424264    64A      0.428545    65A      0.442558  
      66A      0.447568    67A      0.460459    68A      0.464819  
      69A      0.486492    70A      0.491073    71A      0.498218  
      72A      0.505604    73A      0.517395    74A      0.521511  
      75A      0.533511    76A      0.538235    77A      0.546781  
      78A      0.557134    79A      0.562079    80A      0.569756  
      81A      0.609624    82A      0.629322    83A      0.641470  
      84A      0.649038    85A      0.673922    86A      0.683901  
      87A      0.712613    88A      0.729426    89A      0.733173  
      90A      0.740646    91A      0.759573    92A      0.770438  
      93A      0.771338    94A      0.774477    95A      0.791854  
      96A      0.801586    97A      0.806986    98A      0.811144  
      99A      0.818418   100A      0.827552   101A      0.849513  
     102A      0.857916   103A      0.867376   104A      0.875203  
     105A      0.883567   106A      0.893699   107A      0.915118  
     108A      0.928845   109A      0.942104   110A      0.960802  
     111A      0.971027   112A      0.977586   113A      0.984055  
     114A      1.000735   115A      1.013706   116A      1.033760  
     117A      1.044608   118A      1.050919   119A      1.055105  
     120A      1.062293   121A      1.073474   122A      1.083147  
     123A      1.099585   124A      1.132459   125A      1.149002  
     126A      1.158856   127A      1.181091   128A      1.202941  
     129A      1.211064   130A      1.225202   131A      1.255843  
     132A      1.259965   133A      1.276528   134A      1.283850  
     135A      1.296751   136A      1.316698   137A      1.342376  
     138A      1.354439   139A      1.356544   140A      1.380451  
     141A      1.406126   142A      1.424010   143A      1.429784  
     144A      1.431086   145A      1.446606   146A      1.458756  
     147A      1.479959   148A      1.497179   149A      1.518189  
     150A      1.526515   151A      1.548070   152A      1.556053  
     153A      1.577181   154A      1.585794   155A      1.607828  
     156A      1.612779   157A      1.625404   158A      1.634163  
     159A      1.650203   160A      1.675728   161A      1.679413  
     162A      1.703066   163A      1.711702   164A      1.726186  
     165A      1.741129   166A      1.765089   167A      1.785828  
     168A      1.792620   169A      1.818534   170A      1.845628  
     171A      1.858237   172A      1.867811   173A      1.870252  
     174A      1.900633   175A      1.928034   176A      1.955564  
     177A      1.978165   178A      1.987202   179A      2.008399  
     180A      2.044084   181A      2.074918   182A      2.143084  
     183A      2.212203   184A      2.265944   185A      2.302601  
     186A      2.386202   187A      2.437543   188A      2.483034  
     189A      2.524103   190A      2.527366   191A      2.552816  
     192A      2.644180   193A      2.679835   194A      2.729481  
     195A      2.757772   196A      2.760006   197A      2.796011  
     198A      2.807333   199A      2.824931   200A      2.839454  
     201A      2.870285   202A      2.881351   203A      2.886202  
     204A      2.909480   205A      2.925048   206A      2.942168  
     207A      2.950842   208A      2.976351   209A      2.990394  
     210A      2.997064   211A      3.014820   212A      3.037503  
     213A      3.079177   214A      3.083252   215A      3.118329  
     216A      3.147978   217A      3.149812   218A      3.176620  
     219A      3.197733   220A      3.225684   221A      3.254627  
     222A      3.267801   223A      3.302097   224A      3.315130  
     225A      3.342075   226A      3.359520   227A      3.389279  
     228A      3.394912   229A      3.409978   230A      3.416540  
     231A      3.442268   232A      3.445405   233A      3.465875  
     234A      3.481852   235A      3.493712   236A      3.497136  
     237A      3.520091   238A      3.535197   239A      3.550561  
     240A      3.566119   241A      3.576466   242A      3.618827  
     243A      3.644521   244A      3.683285   245A      3.700033  
     246A      3.706157   247A      3.715561   248A      3.723894  
     249A      3.755900   250A      3.766168   251A      3.775131  
     252A      3.790843   253A      3.820474   254A      3.830655  
     255A      3.866832   256A      3.887667   257A      3.904554  
     258A      3.919335   259A      3.929352   260A      3.950344  
     261A      3.972739   262A      3.992632   263A      4.019369  
     264A      4.057115   265A      4.062282   266A      4.081478  
     267A      4.130570   268A      4.141195   269A      4.164397  
     270A      4.207009   271A      4.221504   272A      4.234866  
     273A      4.257922   274A      4.270078   275A      4.290573  
     276A      4.313416   277A      4.320933   278A      4.335533  
     279A      4.342808   280A      4.374855   281A      4.383684  
     282A      4.401975   283A      4.412341   284A      4.429384  
     285A      4.437255   286A      4.460083   287A      4.466305  
     288A      4.480551   289A      4.487010   290A      4.500962  
     291A      4.518185   292A      4.547487   293A      4.557481  
     294A      4.572447   295A      4.574494   296A      4.595765  
     297A      4.605515   298A      4.630741   299A      4.645711  
     300A      4.673843   301A      4.708683   302A      4.724317  
     303A      4.741506   304A      4.766449   305A      4.793519  
     306A      4.798096   307A      4.820101   308A      4.852615  
     309A      4.856988   310A      4.890621   311A      4.900630  
     312A      4.946844   313A      4.956184   314A      4.989724  
     315A      5.021065   316A      5.031513   317A      5.075397  
     318A      5.094177   319A      5.134422   320A      5.146136  
     321A      5.161514   322A      5.188987   323A      5.201276  
     324A      5.242172   325A      5.257100   326A      5.293923  
     327A      5.301112   328A      5.327742   329A      5.350619  
     330A      5.396747   331A      5.408562   332A      5.429571  
     333A      5.486640   334A      5.511567   335A      5.523826  
     336A      5.587524   337A      5.608525   338A      5.639986  
     339A      5.674578   340A      5.753843   341A      5.755724  
     342A      5.782602   343A      5.791466   344A      5.831861  
     345A      5.833868   346A      5.905547   347A      5.917172  
     348A      5.938796   349A      5.997248   350A      6.013438  
     351A      6.061975   352A      6.103995   353A      6.176551  
     354A      6.191237   355A      6.264650   356A      6.308192  
     357A      6.437399   358A      6.477375   359A      6.485382  
     360A      6.516592   361A      6.529895   362A      6.537939  
     363A      6.564336   364A      6.642297   365A      6.774443  
     366A      6.802177   367A      6.958994   368A      7.029756  
     369A      7.066900   370A      7.157381   371A      7.170209  
     372A      7.233007   373A      7.336389   374A      7.386060  
     375A      7.497942   376A      7.537999   377A      7.616022  
     378A      7.639410   379A      7.812650   380A      7.814739  
     381A      7.922445   382A      7.998910   383A      8.008467  
     384A      8.260223   385A      8.430441   386A      8.667339  
     387A      8.889691   388A      9.335219   389A      9.486179  
     390A      9.695340   391A      9.781430   392A      9.840203  
     393A      9.852248   394A      9.890253   395A      9.951398  
     396A     10.019394   397A     10.321055   398A     10.505622  
     399A     10.967090   400A     11.377027   401A     11.553274  
     402A     11.573105   403A     11.944865   404A     13.065031  
     405A     13.592249   406A     13.696141   407A     13.867559  
     408A     13.921507   409A     14.117117   410A     14.637093  
     411A     44.676432   412A     60.271819   413A     61.562715  

    Final Occupation by Irrep:
              A 
    DOCC [    17 ]

  @DF-RHF Final Energy:  -193.19120737151309

   => Energetics <=

    Nuclear Repulsion Energy =            132.5943986229431744
    One-Electron Energy =                -524.8820085785669107
    Two-Electron Energy =                 199.0964025841106491
    Total Energy =                       -193.1912073715130873

Computation Completed


Properties will be evaluated at   0.000000,   0.000000,   0.000000 [a0]

Properties computed using the SCF density matrix

  Nuclear Dipole Moment: [e a0]
     X:    97.1878      Y:    -4.6690      Z:    -1.6251

  Electronic Dipole Moment: [e a0]
     X:   -96.8054      Y:     4.8096      Z:     2.2252

  Dipole Moment: [e a0]
     X:     0.3824      Y:     0.1407      Z:     0.6001     Total:     0.7253

  Dipole Moment: [D]
     X:     0.9720      Y:     0.3575      Z:     1.5253     Total:     1.8436


*** tstop() called on r282 at Fri Sep 10 17:43:14 2021
Module time:
	user time   =      18.02 seconds =       0.30 minutes
	system time =       0.41 seconds =       0.01 minutes
	total time  =         19 seconds =       0.32 minutes
Total time:
	user time   =      67.06 seconds =       1.12 minutes
	system time =       1.66 seconds =       0.03 minutes
	total time  =         69 seconds =       1.15 minutes
  Constructing Basis Sets for SAPT...

   => Loading Basis Set <=

    Name: (JUN-CC-PVTZ AUX)
    Role: RIFIT
    Keyword: DF_BASIS_SAPT
    atoms 1, 6-7, 14             entry C          line   132 file /home/r08543048/miniconda3/share/psi4/basis/jun-cc-pvtz-ri.gbs 
    atoms 2-3, 10                entry O          line   244 file /home/r08543048/miniconda3/share/psi4/basis/jun-cc-pvtz-ri.gbs 
    atoms 4-5, 8-9, 11-13, 15-17 entry H          line    30 file /home/r08543048/miniconda3/share/psi4/basis/jun-cc-pvtz-ri.gbs 


  //>>>>>>>>>>>>>>>>>>>>>>>>>>>>>>>>>>>//
  //               SAPT0               //
  //<<<<<<<<<<<<<<<<<<<<<<<<<<<<<<<<<<<//


*** tstart() called on r282
*** at Fri Sep 10 17:43:14 2021

        SAPT0  
    Ed Hohenstein
     6 June 2009

      Orbital Information
  --------------------------
    NSO        =       413
    NMO        =       413
    NRI        =       979
    NOCC A     =        12
    NOCC B     =        17
    FOCC A     =         0
    FOCC B     =         0
    NVIR A     =       401
    NVIR B     =       396

    Elst10,r            =    -0.034712938259 [Eh]
    Exch10              =     0.035559574700 [Eh]
    Exch10 (S^2)        =     0.035125455719 [Eh]

    Iter     Energy [mEh]          dE [mEh]         Residual      Time [s]
       1      -6.23426329       6.234263293      13.675910435             1
       2      -7.42318338       1.188920092       7.269679828             1
       3      -7.69683648       0.273653099       2.035631886             2
       4      -7.63026640      -0.066570085       0.761541417             2
       5      -7.62838851      -0.001877886       0.264349336             3
       6      -7.63388863       0.005500122       0.095799014             3
       7      -7.63415020       0.000261565       0.026779782             4
       8      -7.63361880      -0.000531397       0.008001472             4
       9      -7.63358240      -0.000036404       0.002416391             5
      10      -7.63362856       0.000046157       0.000461592             5
      11      -7.63362396      -0.000004599       0.000100094             6
      12      -7.63362329      -0.000000670       0.000025207             6
      13      -7.63362362       0.000000338       0.000006288             7
      14      -7.63362356      -0.000000067       0.000002360             7
      15      -7.63362357       0.000000009       0.000000847             8

    CHF Iterations converged


    Iter     Energy [mEh]          dE [mEh]         Residual      Time [s]
       1      -9.21067975       9.210679749      19.619957858             0
       2     -11.16207416       1.951394415       9.779940993             1
       3     -11.63923389       0.477159725       2.574322294             1
       4     -11.61972308      -0.019510808       0.728612949             2
       5     -11.58907095      -0.030652131       0.148481475             2
       6     -11.59134924       0.002278290       0.054734571             3
       7     -11.59268222       0.001332982       0.014011129             4
       8     -11.59242539      -0.000256833       0.003744124             4
       9     -11.59239131      -0.000034076       0.000979375             5
      10     -11.59240966       0.000018352       0.000296877             5
      11     -11.59241050       0.000000839       0.000088312             6
      12     -11.59240917      -0.000001333       0.000027646             6
      13     -11.59240915      -0.000000016       0.000006656             7
      14     -11.59240925       0.000000094       0.000001595             7
      15     -11.59240925      -0.000000002       0.000000494             8

    CHF Iterations converged

    Ind20,r (A<-B)      =    -0.007633623567 [Eh]
    Ind20,r (B<-A)      =    -0.011592409246 [Eh]
    Ind20,r             =    -0.019226032813 [Eh]
    Exch-Ind20,r (A<-B) =     0.005532452572 [Eh]
    Exch-Ind20,r (B<-A) =     0.005876905995 [Eh]
    Exch-Ind20,r        =     0.011409358567 [Eh]
    Disp20              =    -0.013464663673 [Eh]
    Disp20 (SS)         =    -0.006732331836 [Eh]
    Disp20 (OS)         =    -0.006732331836 [Eh]
    Exch-Disp20         =     0.002493990517 [Eh]
    Exch-Disp20 (SS)    =     0.001566124828 [Eh]
    Exch-Disp20 (OS)    =     0.000927865688 [Eh]

    SAPT Results 
  --------------------------------------------------------------------------------------------------------
    Electrostatics                -34.71293826 [mEh]     -21.78269762 [kcal/mol]     -91.13880684 [kJ/mol]
      Elst10,r                    -34.71293826 [mEh]     -21.78269762 [kcal/mol]     -91.13880684 [kJ/mol]

    Exchange                       35.55957470 [mEh]      22.31397001 [kcal/mol]      93.36165051 [kJ/mol]
      Exch10                       35.55957470 [mEh]      22.31397001 [kcal/mol]      93.36165051 [kJ/mol]
      Exch10(S^2)                  35.12545572 [mEh]      22.04155623 [kcal/mol]      92.22187128 [kJ/mol]

    Induction                     -13.30492948 [mEh]      -8.34896930 [kcal/mol]     -34.93208754 [kJ/mol]
      Ind20,r                     -19.22603281 [mEh]     -12.06451773 [kcal/mol]     -50.47794220 [kJ/mol]
      Exch-Ind20,r                 11.40935857 [mEh]       7.15948059 [kcal/mol]      29.95526679 [kJ/mol]
      delta HF,r (2)               -5.48825524 [mEh]      -3.44393216 [kcal/mol]     -14.40941214 [kJ/mol]

    Dispersion                    -10.97067316 [mEh]      -6.88420134 [kcal/mol]     -28.80349840 [kJ/mol]
      Disp20                      -13.46466367 [mEh]      -8.44920402 [kcal/mol]     -35.35146960 [kJ/mol]
      Exch-Disp20                   2.49399052 [mEh]       1.56500268 [kcal/mol]       6.54797120 [kJ/mol]
      Disp20 (SS)                  -6.73233184 [mEh]      -4.22460201 [kcal/mol]     -17.67573480 [kJ/mol]
      Disp20 (OS)                  -6.73233184 [mEh]      -4.22460201 [kcal/mol]     -17.67573480 [kJ/mol]
      Exch-Disp20 (SS)              1.56612483 [mEh]       0.98275817 [kcal/mol]       4.11186017 [kJ/mol]
      Exch-Disp20 (OS)              0.92786569 [mEh]       0.58224451 [kcal/mol]       2.43611103 [kJ/mol]

  Total HF                        -12.45829304 [mEh]      -7.81769691 [kcal/mol]     -32.70924387 [kJ/mol]
  Total SAPT0                     -23.42896620 [mEh]     -14.70189825 [kcal/mol]     -61.51274228 [kJ/mol]

  Special recipe for scaled SAPT0 (see Manual):
    Electrostatics sSAPT0         -34.71293826 [mEh]     -21.78269762 [kcal/mol]     -91.13880684 [kJ/mol]
    Exchange sSAPT0                35.55957470 [mEh]      22.31397001 [kcal/mol]      93.36165051 [kJ/mol]
    Induction sSAPT0              -12.87665152 [mEh]      -8.08022082 [kcal/mol]     -33.80764392 [kJ/mol]
    Dispersion sSAPT0             -10.87705517 [mEh]      -6.82545517 [kcal/mol]     -28.55770442 [kJ/mol]
  Total sSAPT0                    -22.90707025 [mEh]     -14.37440360 [kcal/mol]     -60.14250466 [kJ/mol]
  --------------------------------------------------------------------------------------------------------

*** tstop() called on r282 at Fri Sep 10 17:44:17 2021
Module time:
	user time   =      52.92 seconds =       0.88 minutes
	system time =      10.43 seconds =       0.17 minutes
	total time  =         63 seconds =       1.05 minutes
Total time:
	user time   =     120.09 seconds =       2.00 minutes
	system time =      12.09 seconds =       0.20 minutes
	total time  =        132 seconds =       2.20 minutes

    Psi4 stopped on: Friday, 10 September 2021 05:44PM
    Psi4 wall time for execution: 0:02:12.60

*** Psi4 exiting successfully. Buy a developer a beer!
