
    -----------------------------------------------------------------------
          Psi4: An Open-Source Ab Initio Electronic Structure Package
                               Psi4 1.3.2 release

                         Git: Rev {HEAD} ecbda83 


    R. M. Parrish, L. A. Burns, D. G. A. Smith, A. C. Simmonett,
    A. E. DePrince III, E. G. Hohenstein, U. Bozkaya, A. Yu. Sokolov,
    R. Di Remigio, R. M. Richard, J. F. Gonthier, A. M. James,
    H. R. McAlexander, A. Kumar, M. Saitow, X. Wang, B. P. Pritchard,
    P. Verma, H. F. Schaefer III, K. Patkowski, R. A. King, E. F. Valeev,
    F. A. Evangelista, J. M. Turney, T. D. Crawford, and C. D. Sherrill,
    J. Chem. Theory Comput. 13(7) pp 3185--3197 (2017).
    (doi: 10.1021/acs.jctc.7b00174)


                         Additional Contributions by
    P. Kraus, H. Kruse, M. H. Lechner, M. C. Schieber, R. A. Shaw,
    A. Alenaizan, R. Galvelis, Z. L. Glick, S. Lehtola, and J. P. Misiewicz

    -----------------------------------------------------------------------


    Psi4 started on: Friday, 10 September 2021 11:15AM

    Process ID: 56535
    Host:       r282
    PSIDATADIR: /home/r08543048/miniconda3/share/psi4
    Memory:     500.0 MiB
    Threads:    1
    
  ==> Input File <==

--------------------------------------------------------------------------
# Any line starting with the # character is a comment line
#! Sample  computation

memory 22 gb

molecule Dimer {
0 1
 C -3.961862    0.622538    0.356414
 C -2.553353    0.159079    0.087896
 O -1.611251    0.552107    0.781361
 N -2.385244   -0.700140   -0.942145
 H -4.692950    0.186323   -0.320065
 H -4.218502    0.366393    1.381994
 H -3.989003    1.706611    0.268941
 H -1.447822   -1.024495   -1.154384
 H -3.163208   -0.991807   -1.502637 
 
 
 
 
 
 
 
 
  

 
 
     

    
    
 --
0 1
 C  2.418439   -0.451473    0.928358
 C  1.478966   -1.383446    0.178486
 H  1.824447    0.200807    1.577022
 H  3.027688   -1.074957    1.589656
 O  0.463155   -0.703839   -0.554650
 H  2.039984   -1.966588   -0.553944
 H  1.024060   -2.086038    0.885037
 H -0.058430   -0.166761    0.075859
 C  3.341166    0.390303    0.048529
 H  4.111035    0.833487    0.684640
 H  3.863865   -0.271746   -0.648117
 C  2.639644    1.502463   -0.725719
 H  2.092833    2.155605   -0.043577
 
H  3.364247    2.113241   -1.264847
 H  1.925236    1.097979   -1.438035
 
 







units angstrom

no_reorient
symmetry c1
}

set globals{
  basis jun-cc-pvtz
}

energy('sapt0')


--------------------------------------------------------------------------

  Memory set to  20.489 GiB by Python driver.

  //>>>>>>>>>>>>>>>>>>>>>>>>>>>>>>>>>>>//
  //              Dimer HF             //
  //<<<<<<<<<<<<<<<<<<<<<<<<<<<<<<<<<<<//


*** tstart() called on r282
*** at Fri Sep 10 11:15:47 2021

   => Loading Basis Set <=

    Name: JUN-CC-PVTZ
    Role: ORBITAL
    Keyword: BASIS
    atoms 1-2, 10-11, 18, 21              entry C          line   217 file /home/r08543048/miniconda3/share/psi4/basis/jun-cc-pvtz.gbs 
    atoms 3, 14                           entry O          line   305 file /home/r08543048/miniconda3/share/psi4/basis/jun-cc-pvtz.gbs 
    atoms 4                               entry N          line   261 file /home/r08543048/miniconda3/share/psi4/basis/jun-cc-pvtz.gbs 
    atoms 5-9, 12-13, 15-17, 19-20, 22-24 entry H          line    36 file /home/r08543048/miniconda3/share/psi4/basis/jun-cc-pvtz.gbs 


         ---------------------------------------------------------
                                   SCF
               by Justin Turney, Rob Parrish, Andy Simmonett
                          and Daniel G. A. Smith
                              RHF Reference
                        1 Threads,  20980 MiB Core
         ---------------------------------------------------------

  ==> Geometry <==

    Molecular point group: c1
    Full point group: C1

    Geometry (in Angstrom), charge = 0, multiplicity = 1:

       Center              X                  Y                   Z               Mass       
    ------------   -----------------  -----------------  -----------------  -----------------
         C           -3.919338343037     0.630583921183     0.352997365358    12.000000000000
         C           -2.510829343037     0.167124921183     0.084479365358    12.000000000000
         O           -1.568727343037     0.560152921183     0.777944365358    15.994914619570
         N           -2.342720343037    -0.692094078817    -0.945561634642    14.003074004430
         H           -4.650426343037     0.194368921183    -0.323481634642     1.007825032230
         H           -4.175978343037     0.374438921183     1.378577365358     1.007825032230
         H           -3.946479343037     1.714656921183     0.265524365358     1.007825032230
         H           -1.405298343037    -1.016449078817    -1.157800634642     1.007825032230
         H           -3.120684343037    -0.983761078817    -1.506053634642     1.007825032230
         C            2.460962656963    -0.443427078817     0.924941365358    12.000000000000
         C            1.521489656963    -1.375400078817     0.175069365358    12.000000000000
         H            1.866970656963     0.208852921183     1.573605365358     1.007825032230
         H            3.070211656963    -1.066911078817     1.586239365358     1.007825032230
         O            0.505678656963    -0.695793078817    -0.558066634642    15.994914619570
         H            2.082507656963    -1.958542078817    -0.557360634642     1.007825032230
         H            1.066583656963    -2.077992078817     0.881620365358     1.007825032230
         H           -0.015906343037    -0.158715078817     0.072442365358     1.007825032230
         C            3.383689656963     0.398348921183     0.045112365358    12.000000000000
         H            4.153558656963     0.841532921183     0.681223365358     1.007825032230
         H            3.906388656963    -0.263700078817    -0.651533634642     1.007825032230
         C            2.682167656963     1.510508921183    -0.729135634642    12.000000000000
         H            2.135356656963     2.163650921183    -0.046993634642     1.007825032230
         H            3.406770656963     2.121286921183    -1.268263634642     1.007825032230
         H            1.967759656963     1.106024921183    -1.441451634642     1.007825032230

  Running in c1 symmetry.

  Rotational constants: A =      0.10092  B =      0.01863  C =      0.01779 [cm^-1]
  Rotational constants: A =   3025.36810  B =    558.42652  C =    533.25325 [MHz]
  Nuclear repulsion =  468.378024954577597

  Charge       = 0
  Multiplicity = 1
  Electrons    = 74
  Nalpha       = 37
  Nbeta        = 37

  ==> Algorithm <==

  SCF Algorithm Type is DF.
  DIIS enabled.
  MOM disabled.
  Fractional occupation disabled.
  Guess Type is SAD.
  Energy threshold   = 1.00e-08
  Density threshold  = 1.00e-08
  Integral threshold = 0.00e+00

  ==> Primary Basis <==

  Basis Set: JUN-CC-PVTZ
    Blend: JUN-CC-PVTZ
    Number of shells: 207
    Number of basis function: 561
    Number of Cartesian functions: 630
    Spherical Harmonics?: true
    Max angular momentum: 3

   => Loading Basis Set <=

    Name: (JUN-CC-PVTZ AUX)
    Role: JKFIT
    Keyword: DF_BASIS_SCF
    atoms 1-2, 10-11, 18, 21              entry C          line   152 file /home/r08543048/miniconda3/share/psi4/basis/jun-cc-pvtz-jkfit.gbs 
    atoms 3, 14                           entry O          line   272 file /home/r08543048/miniconda3/share/psi4/basis/jun-cc-pvtz-jkfit.gbs 
    atoms 4                               entry N          line   212 file /home/r08543048/miniconda3/share/psi4/basis/jun-cc-pvtz-jkfit.gbs 
    atoms 5-9, 12-13, 15-17, 19-20, 22-24 entry H          line    70 file /home/r08543048/miniconda3/share/psi4/basis/jun-cc-pvtz-jkfit.gbs 

  ==> Pre-Iterations <==

   -------------------------------------------------------
    Irrep   Nso     Nmo     Nalpha   Nbeta   Ndocc  Nsocc
   -------------------------------------------------------
     A        561     561       0       0       0       0
   -------------------------------------------------------
    Total     561     561      37      37      37       0
   -------------------------------------------------------

  ==> Integral Setup <==

  ==> DiskDFJK: Density-Fitted J/K Matrices <==

    J tasked:                  Yes
    K tasked:                  Yes
    wK tasked:                  No
    OpenMP threads:              1
    Integrals threads:           1
    Memory [MiB]:            15735
    Algorithm:                Core
    Integral Cache:           SAVE
    Schwarz Cutoff:          1E-12
    Fitting Condition:       1E-10

   => Auxiliary Basis Set <=

  Basis Set: (JUN-CC-PVTZ AUX)
    Blend: JUN-CC-PVTZ-JKFIT
    Number of shells: 411
    Number of basis function: 1305
    Number of Cartesian functions: 1569
    Spherical Harmonics?: true
    Max angular momentum: 4

  Minimum eigenvalue in the overlap matrix is 4.1874286117E-05.
  Using Symmetric Orthogonalization.

  SCF Guess: Superposition of Atomic Densities via on-the-fly atomic UHF.

  ==> Iterations <==

                           Total Energy        Delta E     RMS |[F,P]|

   @DF-RHF iter SAD:  -439.01437545582513   -4.39014e+02   0.00000e+00 
   @DF-RHF iter   1:  -439.92961286355836   -9.15237e-01   1.51130e-03 DIIS
   @DF-RHF iter   2:  -440.22374332457792   -2.94130e-01   8.03020e-04 DIIS
   @DF-RHF iter   3:  -440.30222815337328   -7.84848e-02   1.51943e-04 DIIS
   @DF-RHF iter   4:  -440.30698011368031   -4.75196e-03   6.69227e-05 DIIS
   @DF-RHF iter   5:  -440.30774625335101   -7.66140e-04   1.41506e-05 DIIS
   @DF-RHF iter   6:  -440.30779799831618   -5.17450e-05   5.42997e-06 DIIS
   @DF-RHF iter   7:  -440.30780589982191   -7.90151e-06   1.85065e-06 DIIS
   @DF-RHF iter   8:  -440.30780725223781   -1.35242e-06   8.16321e-07 DIIS
   @DF-RHF iter   9:  -440.30780753320136   -2.80964e-07   2.76765e-07 DIIS
   @DF-RHF iter  10:  -440.30780757039241   -3.71911e-08   8.34416e-08 DIIS
   @DF-RHF iter  11:  -440.30780757337726   -2.98485e-09   2.43973e-08 DIIS
   @DF-RHF iter  12:  -440.30780757357269   -1.95428e-10   8.88470e-09 DIIS
  Energy and wave function converged.


  ==> Post-Iterations <==

    Orbital Energies [Eh]
    ---------------------

    Doubly Occupied:                                                      

       1A    -20.532030     2A    -20.524634     3A    -15.586132  
       4A    -11.362745     5A    -11.259075     6A    -11.242518  
       7A    -11.207067     8A    -11.205947     9A    -11.190652  
      10A     -1.384987    11A     -1.336341    12A     -1.217009  
      13A     -1.056123    14A     -1.012083    15A     -0.960434  
      16A     -0.854782    17A     -0.804217    18A     -0.778871  
      19A     -0.731932    20A     -0.686426    21A     -0.653160  
      22A     -0.626485    23A     -0.621206    24A     -0.614397  
      25A     -0.590931    26A     -0.569363    27A     -0.568044  
      28A     -0.547932    29A     -0.530310    30A     -0.521885  
      31A     -0.491117    32A     -0.484378    33A     -0.461106  
      34A     -0.449055    35A     -0.432466    36A     -0.419910  
      37A     -0.410371  

    Virtual:                                                              

      38A      0.039648    39A      0.056019    40A      0.061737  
      41A      0.062862    42A      0.070233    43A      0.073100  
      44A      0.076704    45A      0.089791    46A      0.097123  
      47A      0.099717    48A      0.107005    49A      0.107322  
      50A      0.120030    51A      0.130738    52A      0.133042  
      53A      0.137204    54A      0.142377    55A      0.143891  
      56A      0.153778    57A      0.162318    58A      0.165843  
      59A      0.169452    60A      0.182446    61A      0.188175  
      62A      0.193523    63A      0.203037    64A      0.213375  
      65A      0.215710    66A      0.233728    67A      0.243071  
      68A      0.246199    69A      0.256748    70A      0.267284  
      71A      0.272597    72A      0.280222    73A      0.283172  
      74A      0.288236    75A      0.290147    76A      0.296027  
      77A      0.298589    78A      0.305191    79A      0.315056  
      80A      0.319421    81A      0.321308    82A      0.326384  
      83A      0.333127    84A      0.335041    85A      0.340333  
      86A      0.344283    87A      0.353623    88A      0.360664  
      89A      0.361476    90A      0.370382    91A      0.374289  
      92A      0.385084    93A      0.395025    94A      0.397363  
      95A      0.402212    96A      0.408982    97A      0.413253  
      98A      0.419283    99A      0.429468   100A      0.432698  
     101A      0.442451   102A      0.451000   103A      0.461127  
     104A      0.466844   105A      0.475428   106A      0.481391  
     107A      0.488105   108A      0.496840   109A      0.506824  
     110A      0.511561   111A      0.524403   112A      0.532704  
     113A      0.540692   114A      0.544436   115A      0.549179  
     116A      0.554803   117A      0.562765   118A      0.568793  
     119A      0.578706   120A      0.592126   121A      0.595191  
     122A      0.597451   123A      0.600139   124A      0.610830  
     125A      0.614104   126A      0.622201   127A      0.631410  
     128A      0.639998   129A      0.650262   130A      0.661671  
     131A      0.671427   132A      0.672709   133A      0.689713  
     134A      0.699518   135A      0.701039   136A      0.706890  
     137A      0.712075   138A      0.721516   139A      0.725006  
     140A      0.740827   141A      0.748980   142A      0.760129  
     143A      0.764291   144A      0.772654   145A      0.781530  
     146A      0.790033   147A      0.805883   148A      0.811729  
     149A      0.816758   150A      0.827596   151A      0.829146  
     152A      0.835606   153A      0.850192   154A      0.854815  
     155A      0.859344   156A      0.869660   157A      0.874818  
     158A      0.878356   159A      0.887584   160A      0.895765  
     161A      0.910543   162A      0.917245   163A      0.920390  
     164A      0.928078   165A      0.934834   166A      0.949179  
     167A      0.962936   168A      0.978347   169A      0.983191  
     170A      0.994826   171A      0.997214   172A      1.014273  
     173A      1.034043   174A      1.045055   175A      1.048887  
     176A      1.057276   177A      1.077144   178A      1.088857  
     179A      1.101375   180A      1.120001   181A      1.124139  
     182A      1.133105   183A      1.138943   184A      1.163220  
     185A      1.173877   186A      1.182667   187A      1.194393  
     188A      1.199710   189A      1.217934   190A      1.221634  
     191A      1.242347   192A      1.249474   193A      1.267850  
     194A      1.291922   195A      1.299241   196A      1.312527  
     197A      1.319704   198A      1.326928   199A      1.334475  
     200A      1.347170   201A      1.354318   202A      1.360127  
     203A      1.369662   204A      1.378030   205A      1.388898  
     206A      1.395506   207A      1.403614   208A      1.408779  
     209A      1.420079   210A      1.422660   211A      1.429320  
     212A      1.441048   213A      1.446131   214A      1.455641  
     215A      1.468440   216A      1.484704   217A      1.495141  
     218A      1.502415   219A      1.508190   220A      1.520069  
     221A      1.529848   222A      1.536692   223A      1.544894  
     224A      1.558546   225A      1.563834   226A      1.569928  
     227A      1.577117   228A      1.595188   229A      1.600112  
     230A      1.606731   231A      1.616670   232A      1.620768  
     233A      1.632632   234A      1.652787   235A      1.656977  
     236A      1.666729   237A      1.675416   238A      1.693721  
     239A      1.700109   240A      1.704085   241A      1.712517  
     242A      1.739942   243A      1.741517   244A      1.764540  
     245A      1.781374   246A      1.790922   247A      1.799918  
     248A      1.833306   249A      1.835532   250A      1.847265  
     251A      1.856502   252A      1.867618   253A      1.885094  
     254A      1.890695   255A      1.896431   256A      1.920866  
     257A      1.928919   258A      1.936807   259A      1.965661  
     260A      1.974397   261A      1.999410   262A      2.020027  
     263A      2.024799   264A      2.083520   265A      2.114366  
     266A      2.118980   267A      2.144514   268A      2.230356  
     269A      2.276946   270A      2.306614   271A      2.330242  
     272A      2.372726   273A      2.385396   274A      2.435243  
     275A      2.467199   276A      2.494625   277A      2.539992  
     278A      2.578667   279A      2.619561   280A      2.651939  
     281A      2.702926   282A      2.738433   283A      2.777937  
     284A      2.796652   285A      2.815480   286A      2.819481  
     287A      2.830953   288A      2.836740   289A      2.866603  
     290A      2.904961   291A      2.905866   292A      2.915803  
     293A      2.935453   294A      2.954127   295A      2.971686  
     296A      2.983862   297A      3.002853   298A      3.013108  
     299A      3.029516   300A      3.041048   301A      3.071865  
     302A      3.079201   303A      3.086094   304A      3.090204  
     305A      3.113289   306A      3.128531   307A      3.135466  
     308A      3.145026   309A      3.176857   310A      3.187540  
     311A      3.196653   312A      3.205954   313A      3.214650  
     314A      3.224110   315A      3.248909   316A      3.259305  
     317A      3.272520   318A      3.288968   319A      3.300752  
     320A      3.305795   321A      3.331048   322A      3.344162  
     323A      3.352416   324A      3.379833   325A      3.396185  
     326A      3.409572   327A      3.417344   328A      3.425947  
     329A      3.428748   330A      3.438738   331A      3.443692  
     332A      3.456266   333A      3.466253   334A      3.469441  
     335A      3.478013   336A      3.486903   337A      3.497600  
     338A      3.515257   339A      3.519960   340A      3.521239  
     341A      3.529101   342A      3.534082   343A      3.538601  
     344A      3.547853   345A      3.555860   346A      3.562105  
     347A      3.575982   348A      3.581522   349A      3.597233  
     350A      3.605451   351A      3.612757   352A      3.620862  
     353A      3.629238   354A      3.645765   355A      3.648862  
     356A      3.649728   357A      3.663483   358A      3.692230  
     359A      3.705447   360A      3.707857   361A      3.732019  
     362A      3.760533   363A      3.770281   364A      3.775845  
     365A      3.788113   366A      3.793856   367A      3.800579  
     368A      3.804779   369A      3.814647   370A      3.840134  
     371A      3.855296   372A      3.869566   373A      3.872297  
     374A      3.893468   375A      3.896956   376A      3.921972  
     377A      3.946027   378A      3.956829   379A      3.968117  
     380A      3.980857   381A      3.985186   382A      3.988128  
     383A      3.993221   384A      4.010352   385A      4.022101  
     386A      4.044387   387A      4.047673   388A      4.075832  
     389A      4.098551   390A      4.120188   391A      4.127072  
     392A      4.143637   393A      4.156245   394A      4.166787  
     395A      4.184352   396A      4.199141   397A      4.214141  
     398A      4.224194   399A      4.242457   400A      4.257355  
     401A      4.263847   402A      4.277741   403A      4.289444  
     404A      4.295932   405A      4.299584   406A      4.304913  
     407A      4.316112   408A      4.337672   409A      4.361582  
     410A      4.362960   411A      4.378892   412A      4.386004  
     413A      4.394686   414A      4.402260   415A      4.412241  
     416A      4.418248   417A      4.429514   418A      4.437608  
     419A      4.452854   420A      4.458735   421A      4.477514  
     422A      4.486939   423A      4.489543   424A      4.510985  
     425A      4.518180   426A      4.524911   427A      4.529531  
     428A      4.549103   429A      4.553433   430A      4.567893  
     431A      4.570846   432A      4.592505   433A      4.600635  
     434A      4.620290   435A      4.622581   436A      4.629101  
     437A      4.648181   438A      4.652623   439A      4.664768  
     440A      4.673894   441A      4.695395   442A      4.734399  
     443A      4.740454   444A      4.754052   445A      4.770847  
     446A      4.779102   447A      4.791621   448A      4.813369  
     449A      4.820553   450A      4.827654   451A      4.859789  
     452A      4.861532   453A      4.884239   454A      4.917691  
     455A      4.927074   456A      4.936031   457A      4.941830  
     458A      4.987197   459A      5.054682   460A      5.078172  
     461A      5.086720   462A      5.125376   463A      5.129337  
     464A      5.132781   465A      5.161476   466A      5.173304  
     467A      5.196948   468A      5.214170   469A      5.214903  
     470A      5.234122   471A      5.239646   472A      5.255548  
     473A      5.294275   474A      5.308889   475A      5.318119  
     476A      5.327462   477A      5.345101   478A      5.359982  
     479A      5.380986   480A      5.412817   481A      5.415122  
     482A      5.440930   483A      5.444779   484A      5.449787  
     485A      5.487502   486A      5.503459   487A      5.514046  
     488A      5.540297   489A      5.567249   490A      5.583848  
     491A      5.599453   492A      5.619909   493A      5.648277  
     494A      5.662025   495A      5.666662   496A      5.678734  
     497A      5.687865   498A      5.731875   499A      5.770169  
     500A      5.779442   501A      5.787270   502A      5.802121  
     503A      5.814967   504A      5.825318   505A      5.859668  
     506A      5.868208   507A      5.884556   508A      5.903491  
     509A      5.921443   510A      5.947588   511A      5.973772  
     512A      5.983781   513A      5.991909   514A      6.019964  
     515A      6.070360   516A      6.077322   517A      6.085096  
     518A      6.140443   519A      6.195215   520A      6.218943  
     521A      6.227859   522A      6.295911   523A      6.343411  
     524A      6.425156   525A      6.439735   526A      6.470521  
     527A      6.527544   528A      6.558573   529A      6.576867  
     530A      6.596038   531A      6.609995   532A      6.652815  
     533A      6.699827   534A      6.766833   535A      6.802146  
     536A      7.011223   537A      7.038185   538A      7.187153  
     539A      7.209252   540A      7.269715   541A      7.373290  
     542A      7.394150   543A      7.444896   544A      7.464033  
     545A      7.474825   546A      7.538833   547A      7.655057  
     548A      7.720041   549A      7.791845   550A      7.813581  
     551A      7.978417   552A      8.245947   553A     12.205115  
     554A     13.664053   555A     13.837045   556A     13.869609  
     557A     14.017014   558A     14.187282   559A     14.686123  
     560A     14.824619   561A     15.772576  

    Final Occupation by Irrep:
              A 
    DOCC [    37 ]

  @DF-RHF Final Energy:  -440.30780757357269

   => Energetics <=

    Nuclear Repulsion Energy =            468.3780249545775973
    One-Electron Energy =               -1529.5194289786707031
    Two-Electron Energy =                 620.8335964505205311
    Total Energy =                       -440.3078075735726316

Computation Completed


Properties will be evaluated at   0.000000,   0.000000,   0.000000 [a0]

Properties computed using the SCF density matrix

  Nuclear Dipole Moment: [e a0]
     X:     5.9465      Y:     1.1251      Z:    -0.4778

  Electronic Dipole Moment: [e a0]
     X:    -7.1393      Y:    -1.6766      Z:     0.0997

  Dipole Moment: [e a0]
     X:    -1.1928      Y:    -0.5515      Z:    -0.3781     Total:     1.3674

  Dipole Moment: [D]
     X:    -3.0317      Y:    -1.4016      Z:    -0.9611     Total:     3.4756


*** tstop() called on r282 at Fri Sep 10 11:17:21 2021
Module time:
	user time   =      91.41 seconds =       1.52 minutes
	system time =       1.89 seconds =       0.03 minutes
	total time  =         94 seconds =       1.57 minutes
Total time:
	user time   =      91.41 seconds =       1.52 minutes
	system time =       1.89 seconds =       0.03 minutes
	total time  =         94 seconds =       1.57 minutes

  //>>>>>>>>>>>>>>>>>>>>>>>>>>>>>>>>>>>//
  //            Monomer A HF           //
  //<<<<<<<<<<<<<<<<<<<<<<<<<<<<<<<<<<<//


*** tstart() called on r282
*** at Fri Sep 10 11:17:21 2021

   => Loading Basis Set <=

    Name: JUN-CC-PVTZ
    Role: ORBITAL
    Keyword: BASIS
    atoms 1-2, 10-11, 18, 21              entry C          line   217 file /home/r08543048/miniconda3/share/psi4/basis/jun-cc-pvtz.gbs 
    atoms 3, 14                           entry O          line   305 file /home/r08543048/miniconda3/share/psi4/basis/jun-cc-pvtz.gbs 
    atoms 4                               entry N          line   261 file /home/r08543048/miniconda3/share/psi4/basis/jun-cc-pvtz.gbs 
    atoms 5-9, 12-13, 15-17, 19-20, 22-24 entry H          line    36 file /home/r08543048/miniconda3/share/psi4/basis/jun-cc-pvtz.gbs 


         ---------------------------------------------------------
                                   SCF
               by Justin Turney, Rob Parrish, Andy Simmonett
                          and Daniel G. A. Smith
                              RHF Reference
                        1 Threads,  20980 MiB Core
         ---------------------------------------------------------

  ==> Geometry <==

    Molecular point group: c1
    Full point group: C1

    Geometry (in Angstrom), charge = 0, multiplicity = 1:

       Center              X                  Y                   Z               Mass       
    ------------   -----------------  -----------------  -----------------  -----------------
         C           -3.919338343037     0.630583921183     0.352997365358    12.000000000000
         C           -2.510829343037     0.167124921183     0.084479365358    12.000000000000
         O           -1.568727343037     0.560152921183     0.777944365358    15.994914619570
         N           -2.342720343037    -0.692094078817    -0.945561634642    14.003074004430
         H           -4.650426343037     0.194368921183    -0.323481634642     1.007825032230
         H           -4.175978343037     0.374438921183     1.378577365358     1.007825032230
         H           -3.946479343037     1.714656921183     0.265524365358     1.007825032230
         H           -1.405298343037    -1.016449078817    -1.157800634642     1.007825032230
         H           -3.120684343037    -0.983761078817    -1.506053634642     1.007825032230
      Gh(C)           2.460962656963    -0.443427078817     0.924941365358    12.000000000000
      Gh(C)           1.521489656963    -1.375400078817     0.175069365358    12.000000000000
      Gh(H)           1.866970656963     0.208852921183     1.573605365358     1.007825032230
      Gh(H)           3.070211656963    -1.066911078817     1.586239365358     1.007825032230
      Gh(O)           0.505678656963    -0.695793078817    -0.558066634642    15.994914619570
      Gh(H)           2.082507656963    -1.958542078817    -0.557360634642     1.007825032230
      Gh(H)           1.066583656963    -2.077992078817     0.881620365358     1.007825032230
      Gh(H)          -0.015906343037    -0.158715078817     0.072442365358     1.007825032230
      Gh(C)           3.383689656963     0.398348921183     0.045112365358    12.000000000000
      Gh(H)           4.153558656963     0.841532921183     0.681223365358     1.007825032230
      Gh(H)           3.906388656963    -0.263700078817    -0.651533634642     1.007825032230
      Gh(C)           2.682167656963     1.510508921183    -0.729135634642    12.000000000000
      Gh(H)           2.135356656963     2.163650921183    -0.046993634642     1.007825032230
      Gh(H)           3.406770656963     2.121286921183    -1.268263634642     1.007825032230
      Gh(H)           1.967759656963     1.106024921183    -1.441451634642     1.007825032230

  Running in c1 symmetry.

  Rotational constants: A =      0.10092  B =      0.01863  C =      0.01779 [cm^-1]
  Rotational constants: A =   3025.36810  B =    558.42652  C =    533.25325 [MHz]
  Nuclear repulsion =  121.772704997557923

  Charge       = 0
  Multiplicity = 1
  Electrons    = 32
  Nalpha       = 16
  Nbeta        = 16

  ==> Algorithm <==

  SCF Algorithm Type is DF.
  DIIS enabled.
  MOM disabled.
  Fractional occupation disabled.
  Guess Type is SAD.
  Energy threshold   = 1.00e-08
  Density threshold  = 1.00e-08
  Integral threshold = 0.00e+00

  ==> Primary Basis <==

  Basis Set: JUN-CC-PVTZ
    Blend: JUN-CC-PVTZ
    Number of shells: 207
    Number of basis function: 561
    Number of Cartesian functions: 630
    Spherical Harmonics?: true
    Max angular momentum: 3

   => Loading Basis Set <=

    Name: (JUN-CC-PVTZ AUX)
    Role: JKFIT
    Keyword: DF_BASIS_SCF
    atoms 1-2, 10-11, 18, 21              entry C          line   152 file /home/r08543048/miniconda3/share/psi4/basis/jun-cc-pvtz-jkfit.gbs 
    atoms 3, 14                           entry O          line   272 file /home/r08543048/miniconda3/share/psi4/basis/jun-cc-pvtz-jkfit.gbs 
    atoms 4                               entry N          line   212 file /home/r08543048/miniconda3/share/psi4/basis/jun-cc-pvtz-jkfit.gbs 
    atoms 5-9, 12-13, 15-17, 19-20, 22-24 entry H          line    70 file /home/r08543048/miniconda3/share/psi4/basis/jun-cc-pvtz-jkfit.gbs 

  ==> Pre-Iterations <==

   -------------------------------------------------------
    Irrep   Nso     Nmo     Nalpha   Nbeta   Ndocc  Nsocc
   -------------------------------------------------------
     A        561     561       0       0       0       0
   -------------------------------------------------------
    Total     561     561      16      16      16       0
   -------------------------------------------------------

  ==> Integral Setup <==

  ==> DiskDFJK: Density-Fitted J/K Matrices <==

    J tasked:                  Yes
    K tasked:                  Yes
    wK tasked:                  No
    OpenMP threads:              1
    Integrals threads:           1
    Memory [MiB]:            15735
    Algorithm:                Core
    Integral Cache:           LOAD
    Schwarz Cutoff:          1E-12
    Fitting Condition:       1E-10

   => Auxiliary Basis Set <=

  Basis Set: (JUN-CC-PVTZ AUX)
    Blend: JUN-CC-PVTZ-JKFIT
    Number of shells: 411
    Number of basis function: 1305
    Number of Cartesian functions: 1569
    Spherical Harmonics?: true
    Max angular momentum: 4

  Minimum eigenvalue in the overlap matrix is 4.1874286117E-05.
  Using Symmetric Orthogonalization.

  SCF Guess: Superposition of Atomic Densities via on-the-fly atomic UHF.

  ==> Iterations <==

                           Total Energy        Delta E     RMS |[F,P]|

   @DF-RHF iter SAD:  -207.24293841120240   -2.07243e+02   0.00000e+00 
   @DF-RHF iter   1:  -207.88629104724626   -6.43353e-01   1.07972e-03 DIIS
   @DF-RHF iter   2:  -208.01409272376938   -1.27802e-01   6.51607e-04 DIIS
   @DF-RHF iter   3:  -208.05806403956632   -4.39713e-02   1.21030e-04 DIIS
   @DF-RHF iter   4:  -208.06056526363736   -2.50122e-03   4.85694e-05 DIIS
   @DF-RHF iter   5:  -208.06106850295794   -5.03239e-04   9.03476e-06 DIIS
   @DF-RHF iter   6:  -208.06109918439714   -3.06814e-05   4.25873e-06 DIIS
   @DF-RHF iter   7:  -208.06110475974660   -5.57535e-06   1.60872e-06 DIIS
   @DF-RHF iter   8:  -208.06110596825812   -1.20851e-06   5.34788e-07 DIIS
   @DF-RHF iter   9:  -208.06110612434674   -1.56089e-07   1.39796e-07 DIIS
   @DF-RHF iter  10:  -208.06110613250610   -8.15936e-09   4.59489e-08 DIIS
   @DF-RHF iter  11:  -208.06110613327388   -7.67784e-10   1.18374e-08 DIIS
   @DF-RHF iter  12:  -208.06110613332203   -4.81464e-11   2.43366e-09 DIIS
  Energy and wave function converged.


  ==> Post-Iterations <==

    Orbital Energies [Eh]
    ---------------------

    Doubly Occupied:                                                      

       1A    -20.512405     2A    -15.592096     3A    -11.353754  
       4A    -11.238387     5A     -1.369051     6A     -1.216810  
       7A     -1.007344     8A     -0.803046     9A     -0.731911  
      10A     -0.663246    11A     -0.615788    12A     -0.580321  
      13A     -0.564803    14A     -0.523997    15A     -0.422328  
      16A     -0.413811  

    Virtual:                                                              

      17A      0.033963    18A      0.040894    19A      0.049814  
      20A      0.055506    21A      0.067769    22A      0.069545  
      23A      0.075856    24A      0.087256    25A      0.088862  
      26A      0.096210    27A      0.103967    28A      0.105732  
      29A      0.111146    30A      0.120984    31A      0.130223  
      32A      0.132370    33A      0.136442    34A      0.142794  
      35A      0.144531    36A      0.149585    37A      0.156054  
      38A      0.164018    39A      0.167954    40A      0.171724  
      41A      0.178438    42A      0.183339    43A      0.190004  
      44A      0.194200    45A      0.214591    46A      0.218442  
      47A      0.226680    48A      0.241152    49A      0.251829  
      50A      0.261638    51A      0.269201    52A      0.273269  
      53A      0.282168    54A      0.284941    55A      0.287238  
      56A      0.290364    57A      0.301305    58A      0.304446  
      59A      0.310881    60A      0.318357    61A      0.322439  
      62A      0.324994    63A      0.329682    64A      0.344258  
      65A      0.347497    66A      0.353711    67A      0.358701  
      68A      0.364677    69A      0.368495    70A      0.378140  
      71A      0.386449    72A      0.393243    73A      0.402406  
      74A      0.405511    75A      0.411606    76A      0.420366  
      77A      0.423231    78A      0.434306    79A      0.435688  
      80A      0.449182    81A      0.457820    82A      0.465310  
      83A      0.478630    84A      0.481546    85A      0.488607  
      86A      0.499208    87A      0.502405    88A      0.510329  
      89A      0.511278    90A      0.517171    91A      0.530667  
      92A      0.534797    93A      0.545219    94A      0.554866  
      95A      0.560887    96A      0.570975    97A      0.574511  
      98A      0.585363    99A      0.597261   100A      0.598815  
     101A      0.602733   102A      0.613259   103A      0.615624  
     104A      0.619478   105A      0.627700   106A      0.633693  
     107A      0.636059   108A      0.638972   109A      0.646037  
     110A      0.661121   111A      0.668352   112A      0.670715  
     113A      0.675756   114A      0.683138   115A      0.689097  
     116A      0.711285   117A      0.713077   118A      0.717424  
     119A      0.727236   120A      0.732825   121A      0.744849  
     122A      0.762384   123A      0.772802   124A      0.776917  
     125A      0.795845   126A      0.804034   127A      0.814389  
     128A      0.823055   129A      0.836349   130A      0.853798  
     131A      0.858849   132A      0.870981   133A      0.879223  
     134A      0.890141   135A      0.903566   136A      0.918940  
     137A      0.935726   138A      0.946711   139A      0.958372  
     140A      0.980706   141A      0.987175   142A      1.004840  
     143A      1.023502   144A      1.043098   145A      1.047957  
     146A      1.061817   147A      1.078451   148A      1.080734  
     149A      1.096422   150A      1.100352   151A      1.104021  
     152A      1.123303   153A      1.126085   154A      1.139570  
     155A      1.153674   156A      1.159946   157A      1.169319  
     158A      1.178287   159A      1.182761   160A      1.197901  
     161A      1.211349   162A      1.225013   163A      1.229787  
     164A      1.240767   165A      1.243301   166A      1.256579  
     167A      1.259195   168A      1.265761   169A      1.272427  
     170A      1.287975   171A      1.299876   172A      1.303439  
     173A      1.319448   174A      1.323331   175A      1.333372  
     176A      1.343735   177A      1.351722   178A      1.358205  
     179A      1.362307   180A      1.365096   181A      1.369533  
     182A      1.376121   183A      1.388336   184A      1.393604  
     185A      1.402893   186A      1.414210   187A      1.428860  
     188A      1.431552   189A      1.437256   190A      1.459880  
     191A      1.466678   192A      1.481648   193A      1.482962  
     194A      1.490073   195A      1.493415   196A      1.495906  
     197A      1.513994   198A      1.526476   199A      1.542997  
     200A      1.545572   201A      1.565518   202A      1.570592  
     203A      1.574409   204A      1.589538   205A      1.597201  
     206A      1.601294   207A      1.611200   208A      1.620779  
     209A      1.633536   210A      1.654497   211A      1.661008  
     212A      1.666597   213A      1.677287   214A      1.689798  
     215A      1.704863   216A      1.722752   217A      1.734273  
     218A      1.751420   219A      1.758215   220A      1.772967  
     221A      1.796114   222A      1.814032   223A      1.817890  
     224A      1.836520   225A      1.852011   226A      1.870238  
     227A      1.880757   228A      1.888942   229A      1.896322  
     230A      1.906993   231A      1.909010   232A      1.924403  
     233A      1.939948   234A      1.960571   235A      1.979180  
     236A      1.995954   237A      2.029566   238A      2.058583  
     239A      2.071660   240A      2.103079   241A      2.124175  
     242A      2.139531   243A      2.160101   244A      2.168400  
     245A      2.205479   246A      2.212525   247A      2.258179  
     248A      2.282639   249A      2.288170   250A      2.301230  
     251A      2.324453   252A      2.371510   253A      2.391096  
     254A      2.400773   255A      2.427518   256A      2.433023  
     257A      2.456021   258A      2.478367   259A      2.511436  
     260A      2.530404   261A      2.555182   262A      2.578202  
     263A      2.597155   264A      2.613837   265A      2.625123  
     266A      2.641498   267A      2.670322   268A      2.738495  
     269A      2.740954   270A      2.760584   271A      2.829713  
     272A      2.832973   273A      2.907247   274A      2.926029  
     275A      2.948214   276A      2.971715   277A      2.987716  
     278A      3.021094   279A      3.052360   280A      3.089357  
     281A      3.104820   282A      3.132140   283A      3.147384  
     284A      3.175265   285A      3.205779   286A      3.221043  
     287A      3.255810   288A      3.267123   289A      3.308082  
     290A      3.357011   291A      3.398234   292A      3.412169  
     293A      3.427578   294A      3.434350   295A      3.457282  
     296A      3.493000   297A      3.510758   298A      3.513936  
     299A      3.524190   300A      3.533188   301A      3.535595  
     302A      3.549332   303A      3.558708   304A      3.576629  
     305A      3.587661   306A      3.607286   307A      3.615334  
     308A      3.626617   309A      3.627577   310A      3.641766  
     311A      3.650495   312A      3.658466   313A      3.673765  
     314A      3.676754   315A      3.702856   316A      3.708417  
     317A      3.731658   318A      3.737591   319A      3.762651  
     320A      3.770606   321A      3.777891   322A      3.798860  
     323A      3.801472   324A      3.812012   325A      3.840453  
     326A      3.845500   327A      3.866476   328A      3.869770  
     329A      3.878618   330A      3.887344   331A      3.891482  
     332A      3.912945   333A      3.936679   334A      3.946521  
     335A      3.960010   336A      3.976881   337A      3.978529  
     338A      3.981333   339A      4.003042   340A      4.015786  
     341A      4.038690   342A      4.055324   343A      4.071709  
     344A      4.093233   345A      4.110097   346A      4.125623  
     347A      4.133632   348A      4.150525   349A      4.165035  
     350A      4.168195   351A      4.177915   352A      4.194872  
     353A      4.211540   354A      4.230970   355A      4.256674  
     356A      4.267174   357A      4.277412   358A      4.296916  
     359A      4.304678   360A      4.307346   361A      4.339679  
     362A      4.344661   363A      4.368673   364A      4.381278  
     365A      4.388723   366A      4.397069   367A      4.408964  
     368A      4.417187   369A      4.432350   370A      4.438681  
     371A      4.444338   372A      4.457279   373A      4.475592  
     374A      4.496890   375A      4.503754   376A      4.505331  
     377A      4.515991   378A      4.522002   379A      4.539165  
     380A      4.548152   381A      4.559890   382A      4.573648  
     383A      4.578154   384A      4.595547   385A      4.608648  
     386A      4.623722   387A      4.632571   388A      4.646210  
     389A      4.654586   390A      4.675997   391A      4.686965  
     392A      4.687980   393A      4.713766   394A      4.721785  
     395A      4.739859   396A      4.755213   397A      4.759110  
     398A      4.761736   399A      4.769572   400A      4.773321  
     401A      4.786108   402A      4.797523   403A      4.798541  
     404A      4.820824   405A      4.828822   406A      4.841025  
     407A      4.859175   408A      4.864161   409A      4.869047  
     410A      4.876530   411A      4.894859   412A      4.908269  
     413A      4.918411   414A      4.928479   415A      4.933802  
     416A      4.940597   417A      4.947411   418A      4.954758  
     419A      4.971033   420A      4.989981   421A      5.011991  
     422A      5.016287   423A      5.020758   424A      5.041168  
     425A      5.050711   426A      5.083674   427A      5.093321  
     428A      5.107838   429A      5.116478   430A      5.125070  
     431A      5.131584   432A      5.138260   433A      5.143833  
     434A      5.160771   435A      5.174766   436A      5.190455  
     437A      5.203919   438A      5.207156   439A      5.217755  
     440A      5.231504   441A      5.248585   442A      5.274489  
     443A      5.299033   444A      5.334873   445A      5.348899  
     446A      5.370531   447A      5.387765   448A      5.417838  
     449A      5.439769   450A      5.441367   451A      5.458551  
     452A      5.467053   453A      5.491275   454A      5.543453  
     455A      5.553316   456A      5.580389   457A      5.597268  
     458A      5.601344   459A      5.646594   460A      5.656374  
     461A      5.676072   462A      5.680795   463A      5.689354  
     464A      5.708923   465A      5.734998   466A      5.744623  
     467A      5.782889   468A      5.790021   469A      5.826292  
     470A      5.858434   471A      5.877859   472A      5.905070  
     473A      5.932404   474A      5.962017   475A      5.977465  
     476A      5.990083   477A      6.004950   478A      6.047335  
     479A      6.076680   480A      6.082292   481A      6.100058  
     482A      6.148216   483A      6.184303   484A      6.189641  
     485A      6.237033   486A      6.242422   487A      6.248497  
     488A      6.271384   489A      6.325357   490A      6.354831  
     491A      6.392551   492A      6.394676   493A      6.429580  
     494A      6.445854   495A      6.449955   496A      6.477786  
     497A      6.492228   498A      6.556429   499A      6.615168  
     500A      6.671323   501A      6.698266   502A      6.769279  
     503A      6.781017   504A      6.811465   505A      6.819126  
     506A      6.940814   507A      6.959228   508A      7.010094  
     509A      7.154821   510A      7.222654   511A      7.274062  
     512A      7.315204   513A      7.360307   514A      7.399533  
     515A      7.449171   516A      7.476731   517A      7.486643  
     518A      7.519319   519A      7.524654   520A      7.563804  
     521A      7.611056   522A      7.686837   523A      7.703618  
     524A      7.711197   525A      7.758837   526A      7.774273  
     527A      7.827365   528A      7.830698   529A      7.848001  
     530A      7.859526   531A      7.914893   532A      7.969318  
     533A      8.023855   534A      8.122271   535A      8.250950  
     536A      8.340757   537A      8.381598   538A      8.554820  
     539A      8.745297   540A      9.551062   541A      9.600990  
     542A      9.655483   543A      9.850619   544A      9.909616  
     545A      9.974767   546A     10.118704   547A     10.197386  
     548A     10.442732   549A     11.223792   550A     11.796504  
     551A     12.221459   552A     12.825294   553A     13.665020  
     554A     13.931712   555A     14.824323   556A     15.770501  
     557A     43.779486   558A     44.348847   559A     45.248668  
     560A     45.777426   561A     61.692435  

    Final Occupation by Irrep:
              A 
    DOCC [    16 ]

  @DF-RHF Final Energy:  -208.06110613332203

   => Energetics <=

    Nuclear Repulsion Energy =            121.7727049975579234
    One-Electron Energy =                -524.4494264421697380
    Two-Electron Energy =                 194.6156153112897869
    Total Energy =                       -208.0611061333220277

Computation Completed


Properties will be evaluated at   0.000000,   0.000000,   0.000000 [a0]

Properties computed using the SCF density matrix

  Nuclear Dipole Moment: [e a0]
     X:  -160.3031      Y:     8.8932      Z:     1.6748

  Electronic Dipole Moment: [e a0]
     X:   159.1614      Y:    -9.5624      Z:    -2.7819

  Dipole Moment: [e a0]
     X:    -1.1416      Y:    -0.6692      Z:    -1.1072     Total:     1.7254

  Dipole Moment: [D]
     X:    -2.9017      Y:    -1.7009      Z:    -2.8141     Total:     4.3855


*** tstop() called on r282 at Fri Sep 10 11:18:23 2021
Module time:
	user time   =      61.80 seconds =       1.03 minutes
	system time =       0.89 seconds =       0.01 minutes
	total time  =         62 seconds =       1.03 minutes
Total time:
	user time   =     153.22 seconds =       2.55 minutes
	system time =       2.78 seconds =       0.05 minutes
	total time  =        156 seconds =       2.60 minutes

  //>>>>>>>>>>>>>>>>>>>>>>>>>>>>>>>>>>>//
  //            Monomer B HF           //
  //<<<<<<<<<<<<<<<<<<<<<<<<<<<<<<<<<<<//


*** tstart() called on r282
*** at Fri Sep 10 11:18:23 2021

   => Loading Basis Set <=

    Name: JUN-CC-PVTZ
    Role: ORBITAL
    Keyword: BASIS
    atoms 1-2, 10-11, 18, 21              entry C          line   217 file /home/r08543048/miniconda3/share/psi4/basis/jun-cc-pvtz.gbs 
    atoms 3, 14                           entry O          line   305 file /home/r08543048/miniconda3/share/psi4/basis/jun-cc-pvtz.gbs 
    atoms 4                               entry N          line   261 file /home/r08543048/miniconda3/share/psi4/basis/jun-cc-pvtz.gbs 
    atoms 5-9, 12-13, 15-17, 19-20, 22-24 entry H          line    36 file /home/r08543048/miniconda3/share/psi4/basis/jun-cc-pvtz.gbs 


         ---------------------------------------------------------
                                   SCF
               by Justin Turney, Rob Parrish, Andy Simmonett
                          and Daniel G. A. Smith
                              RHF Reference
                        1 Threads,  20980 MiB Core
         ---------------------------------------------------------

  ==> Geometry <==

    Molecular point group: c1
    Full point group: C1

    Geometry (in Angstrom), charge = 0, multiplicity = 1:

       Center              X                  Y                   Z               Mass       
    ------------   -----------------  -----------------  -----------------  -----------------
      Gh(C)          -3.919338343037     0.630583921183     0.352997365358    12.000000000000
      Gh(C)          -2.510829343037     0.167124921183     0.084479365358    12.000000000000
      Gh(O)          -1.568727343037     0.560152921183     0.777944365358    15.994914619570
      Gh(N)          -2.342720343037    -0.692094078817    -0.945561634642    14.003074004430
      Gh(H)          -4.650426343037     0.194368921183    -0.323481634642     1.007825032230
      Gh(H)          -4.175978343037     0.374438921183     1.378577365358     1.007825032230
      Gh(H)          -3.946479343037     1.714656921183     0.265524365358     1.007825032230
      Gh(H)          -1.405298343037    -1.016449078817    -1.157800634642     1.007825032230
      Gh(H)          -3.120684343037    -0.983761078817    -1.506053634642     1.007825032230
         C            2.460962656963    -0.443427078817     0.924941365358    12.000000000000
         C            1.521489656963    -1.375400078817     0.175069365358    12.000000000000
         H            1.866970656963     0.208852921183     1.573605365358     1.007825032230
         H            3.070211656963    -1.066911078817     1.586239365358     1.007825032230
         O            0.505678656963    -0.695793078817    -0.558066634642    15.994914619570
         H            2.082507656963    -1.958542078817    -0.557360634642     1.007825032230
         H            1.066583656963    -2.077992078817     0.881620365358     1.007825032230
         H           -0.015906343037    -0.158715078817     0.072442365358     1.007825032230
         C            3.383689656963     0.398348921183     0.045112365358    12.000000000000
         H            4.153558656963     0.841532921183     0.681223365358     1.007825032230
         H            3.906388656963    -0.263700078817    -0.651533634642     1.007825032230
         C            2.682167656963     1.510508921183    -0.729135634642    12.000000000000
         H            2.135356656963     2.163650921183    -0.046993634642     1.007825032230
         H            3.406770656963     2.121286921183    -1.268263634642     1.007825032230
         H            1.967759656963     1.106024921183    -1.441451634642     1.007825032230

  Running in c1 symmetry.

  Rotational constants: A =      0.10092  B =      0.01863  C =      0.01779 [cm^-1]
  Rotational constants: A =   3025.36810  B =    558.42652  C =    533.25325 [MHz]
  Nuclear repulsion =  192.308784891690436

  Charge       = 0
  Multiplicity = 1
  Electrons    = 42
  Nalpha       = 21
  Nbeta        = 21

  ==> Algorithm <==

  SCF Algorithm Type is DF.
  DIIS enabled.
  MOM disabled.
  Fractional occupation disabled.
  Guess Type is SAD.
  Energy threshold   = 1.00e-08
  Density threshold  = 1.00e-08
  Integral threshold = 0.00e+00

  ==> Primary Basis <==

  Basis Set: JUN-CC-PVTZ
    Blend: JUN-CC-PVTZ
    Number of shells: 207
    Number of basis function: 561
    Number of Cartesian functions: 630
    Spherical Harmonics?: true
    Max angular momentum: 3

   => Loading Basis Set <=

    Name: (JUN-CC-PVTZ AUX)
    Role: JKFIT
    Keyword: DF_BASIS_SCF
    atoms 1-2, 10-11, 18, 21              entry C          line   152 file /home/r08543048/miniconda3/share/psi4/basis/jun-cc-pvtz-jkfit.gbs 
    atoms 3, 14                           entry O          line   272 file /home/r08543048/miniconda3/share/psi4/basis/jun-cc-pvtz-jkfit.gbs 
    atoms 4                               entry N          line   212 file /home/r08543048/miniconda3/share/psi4/basis/jun-cc-pvtz-jkfit.gbs 
    atoms 5-9, 12-13, 15-17, 19-20, 22-24 entry H          line    70 file /home/r08543048/miniconda3/share/psi4/basis/jun-cc-pvtz-jkfit.gbs 

  ==> Pre-Iterations <==

   -------------------------------------------------------
    Irrep   Nso     Nmo     Nalpha   Nbeta   Ndocc  Nsocc
   -------------------------------------------------------
     A        561     561       0       0       0       0
   -------------------------------------------------------
    Total     561     561      21      21      21       0
   -------------------------------------------------------

  ==> Integral Setup <==

  ==> DiskDFJK: Density-Fitted J/K Matrices <==

    J tasked:                  Yes
    K tasked:                  Yes
    wK tasked:                  No
    OpenMP threads:              1
    Integrals threads:           1
    Memory [MiB]:            15735
    Algorithm:                Core
    Integral Cache:           LOAD
    Schwarz Cutoff:          1E-12
    Fitting Condition:       1E-10

   => Auxiliary Basis Set <=

  Basis Set: (JUN-CC-PVTZ AUX)
    Blend: JUN-CC-PVTZ-JKFIT
    Number of shells: 411
    Number of basis function: 1305
    Number of Cartesian functions: 1569
    Spherical Harmonics?: true
    Max angular momentum: 4

  Minimum eigenvalue in the overlap matrix is 4.1874286117E-05.
  Using Symmetric Orthogonalization.

  SCF Guess: Superposition of Atomic Densities via on-the-fly atomic UHF.

  ==> Iterations <==

                           Total Energy        Delta E     RMS |[F,P]|

   @DF-RHF iter SAD:  -231.56022445351701   -2.31560e+02   0.00000e+00 
   @DF-RHF iter   1:  -232.00671770641392   -4.46493e-01   1.12827e-03 DIIS
   @DF-RHF iter   2:  -232.18401720715161   -1.77300e-01   5.99878e-04 DIIS
   @DF-RHF iter   3:  -232.23242889053262   -4.84117e-02   1.03018e-04 DIIS
   @DF-RHF iter   4:  -232.23518469074196   -2.75580e-03   3.51946e-05 DIIS
   @DF-RHF iter   5:  -232.23540804768805   -2.23357e-04   8.90339e-06 DIIS
   @DF-RHF iter   6:  -232.23542596501883   -1.79173e-05   2.04115e-06 DIIS
   @DF-RHF iter   7:  -232.23542732583437   -1.36082e-06   5.05296e-07 DIIS
   @DF-RHF iter   8:  -232.23542741431464   -8.84803e-08   1.62492e-07 DIIS
   @DF-RHF iter   9:  -232.23542742388523   -9.57058e-09   4.52561e-08 DIIS
   @DF-RHF iter  10:  -232.23542742474169   -8.56460e-10   1.04271e-08 DIIS
   @DF-RHF iter  11:  -232.23542742478514   -4.34568e-11   2.65390e-09 DIIS
  Energy and wave function converged.


  ==> Post-Iterations <==

    Orbital Energies [Eh]
    ---------------------

    Doubly Occupied:                                                      

       1A    -20.555337     2A    -11.271727     3A    -11.220909  
       4A    -11.217000     5A    -11.202071     6A     -1.352514  
       7A     -1.068400     8A     -0.972565     9A     -0.866083  
      10A     -0.790906    11A     -0.674231    12A     -0.639515  
      13A     -0.627563    14A     -0.581409    15A     -0.560810  
      16A     -0.535666    17A     -0.503184    18A     -0.495654  
      19A     -0.473559    20A     -0.459782    21A     -0.424676  

    Virtual:                                                              

      22A      0.031170    23A      0.049042    24A      0.053724  
      25A      0.058121    26A      0.060507    27A      0.071140  
      28A      0.072080    29A      0.078554    30A      0.092838  
      31A      0.095828    32A      0.098899    33A      0.100713  
      34A      0.118676    35A      0.121698    36A      0.127554  
      37A      0.127746    38A      0.135785    39A      0.139132  
      40A      0.142813    41A      0.149347    42A      0.162231  
      43A      0.165261    44A      0.176949    45A      0.182073  
      46A      0.192093    47A      0.196154    48A      0.198760  
      49A      0.210508    50A      0.211410    51A      0.215135  
      52A      0.221098    53A      0.226675    54A      0.253115  
      55A      0.261124    56A      0.267083    57A      0.274711  
      58A      0.285339    59A      0.288357    60A      0.292552  
      61A      0.306182    62A      0.308023    63A      0.314096  
      64A      0.319846    65A      0.326882    66A      0.334595  
      67A      0.336231    68A      0.345296    69A      0.348168  
      70A      0.352650    71A      0.355155    72A      0.360281  
      73A      0.369078    74A      0.376072    75A      0.378671  
      76A      0.381841    77A      0.387779    78A      0.391447  
      79A      0.392770    80A      0.408452    81A      0.409283  
      82A      0.414040    83A      0.423533    84A      0.434527  
      85A      0.440889    86A      0.441831    87A      0.448861  
      88A      0.455174    89A      0.464288    90A      0.467913  
      91A      0.473702    92A      0.481691    93A      0.489947  
      94A      0.505348    95A      0.512483    96A      0.517681  
      97A      0.526254    98A      0.535110    99A      0.537045  
     100A      0.543501   101A      0.554084   102A      0.557743  
     103A      0.564791   104A      0.574585   105A      0.590855  
     106A      0.592708   107A      0.594659   108A      0.597703  
     109A      0.611992   110A      0.621606   111A      0.638883  
     112A      0.647818   113A      0.662703   114A      0.670652  
     115A      0.676490   116A      0.689618   117A      0.694170  
     118A      0.703686   119A      0.710455   120A      0.724286  
     121A      0.732177   122A      0.736047   123A      0.743067  
     124A      0.750502   125A      0.762162   126A      0.764370  
     127A      0.772883   128A      0.791079   129A      0.792217  
     130A      0.807934   131A      0.813374   132A      0.824130  
     133A      0.834161   134A      0.836089   135A      0.843178  
     136A      0.849945   137A      0.854504   138A      0.864460  
     139A      0.871152   140A      0.875898   141A      0.890125  
     142A      0.893814   143A      0.902469   144A      0.905486  
     145A      0.916809   146A      0.921551   147A      0.933057  
     148A      0.950070   149A      0.973594   150A      0.979000  
     151A      0.982089   152A      1.004010   153A      1.017567  
     154A      1.024057   155A      1.025087   156A      1.037128  
     157A      1.047558   158A      1.059505   159A      1.078458  
     160A      1.080752   161A      1.105873   162A      1.109632  
     163A      1.123584   164A      1.139676   165A      1.150186  
     166A      1.164596   167A      1.174553   168A      1.194109  
     169A      1.198093   170A      1.207992   171A      1.212411  
     172A      1.226108   173A      1.237204   174A      1.245169  
     175A      1.261538   176A      1.269687   177A      1.283635  
     178A      1.302835   179A      1.311923   180A      1.325280  
     181A      1.334355   182A      1.343632   183A      1.360893  
     184A      1.365680   185A      1.373211   186A      1.389349  
     187A      1.397889   188A      1.408931   189A      1.413295  
     190A      1.428367   191A      1.438210   192A      1.442217  
     193A      1.448022   194A      1.470030   195A      1.473882  
     196A      1.484443   197A      1.494261   198A      1.495565  
     199A      1.507287   200A      1.517566   201A      1.531596  
     202A      1.537044   203A      1.541162   204A      1.546873  
     205A      1.555950   206A      1.562571   207A      1.567607  
     208A      1.586405   209A      1.589978   210A      1.590643  
     211A      1.609543   212A      1.618072   213A      1.640658  
     214A      1.645353   215A      1.648423   216A      1.662681  
     217A      1.672992   218A      1.686198   219A      1.686419  
     220A      1.708216   221A      1.712108   222A      1.724647  
     223A      1.742461   224A      1.749948   225A      1.754956  
     226A      1.785452   227A      1.790962   228A      1.803170  
     229A      1.815722   230A      1.819835   231A      1.831585  
     232A      1.836043   233A      1.856617   234A      1.873944  
     235A      1.878784   236A      1.897315   237A      1.908747  
     238A      1.918910   239A      1.928930   240A      1.958902  
     241A      1.976250   242A      1.980325   243A      1.992389  
     244A      1.999580   245A      2.014280   246A      2.064860  
     247A      2.076439   248A      2.103998   249A      2.110983  
     250A      2.133732   251A      2.180986   252A      2.227786  
     253A      2.296213   254A      2.339943   255A      2.353506  
     256A      2.371616   257A      2.392858   258A      2.405391  
     259A      2.446901   260A      2.522227   261A      2.547964  
     262A      2.570951   263A      2.581463   264A      2.615064  
     265A      2.660847   266A      2.673298   267A      2.703377  
     268A      2.753441   269A      2.793050   270A      2.806151  
     271A      2.813350   272A      2.823870   273A      2.832822  
     274A      2.857367   275A      2.870009   276A      2.889993  
     277A      2.905020   278A      2.909382   279A      2.925986  
     280A      2.936686   281A      2.970600   282A      2.996691  
     283A      3.013134   284A      3.024643   285A      3.039831  
     286A      3.044831   287A      3.072860   288A      3.086881  
     289A      3.102580   290A      3.121958   291A      3.133171  
     292A      3.164738   293A      3.183545   294A      3.187073  
     295A      3.207184   296A      3.224572   297A      3.253920  
     298A      3.280795   299A      3.287547   300A      3.319675  
     301A      3.332511   302A      3.349983   303A      3.370240  
     304A      3.402660   305A      3.420086   306A      3.429174  
     307A      3.443034   308A      3.446408   309A      3.451387  
     310A      3.467378   311A      3.481986   312A      3.486449  
     313A      3.493749   314A      3.512667   315A      3.513056  
     316A      3.528826   317A      3.538956   318A      3.561368  
     319A      3.566870   320A      3.572636   321A      3.581802  
     322A      3.585220   323A      3.595793   324A      3.609370  
     325A      3.614007   326A      3.619496   327A      3.642998  
     328A      3.670563   329A      3.675959   330A      3.683806  
     331A      3.696263   332A      3.715220   333A      3.745432  
     334A      3.763045   335A      3.773623   336A      3.782178  
     337A      3.795949   338A      3.819005   339A      3.828578  
     340A      3.841995   341A      3.847255   342A      3.855628  
     343A      3.875692   344A      3.882027   345A      3.899945  
     346A      3.906443   347A      3.918976   348A      3.936664  
     349A      3.956168   350A      3.959880   351A      3.968554  
     352A      3.979500   353A      3.990692   354A      4.005168  
     355A      4.007899   356A      4.023703   357A      4.062921  
     358A      4.076794   359A      4.098627   360A      4.108281  
     361A      4.127752   362A      4.144858   363A      4.152111  
     364A      4.184521   365A      4.203580   366A      4.221969  
     367A      4.235069   368A      4.244475   369A      4.259547  
     370A      4.266591   371A      4.272113   372A      4.276900  
     373A      4.281873   374A      4.296403   375A      4.301882  
     376A      4.311640   377A      4.325069   378A      4.331778  
     379A      4.350945   380A      4.369006   381A      4.386255  
     382A      4.396037   383A      4.408906   384A      4.417101  
     385A      4.432508   386A      4.441833   387A      4.468929  
     388A      4.479373   389A      4.494988   390A      4.500798  
     391A      4.506771   392A      4.517004   393A      4.518534  
     394A      4.527683   395A      4.554896   396A      4.556980  
     397A      4.563721   398A      4.585311   399A      4.590495  
     400A      4.610421   401A      4.618601   402A      4.622727  
     403A      4.632869   404A      4.641147   405A      4.652655  
     406A      4.678377   407A      4.689669   408A      4.708159  
     409A      4.712897   410A      4.719141   411A      4.733482  
     412A      4.736245   413A      4.745393   414A      4.765846  
     415A      4.768144   416A      4.779256   417A      4.786529  
     418A      4.801233   419A      4.823616   420A      4.826013  
     421A      4.842217   422A      4.850582   423A      4.853160  
     424A      4.859275   425A      4.882677   426A      4.887545  
     427A      4.889480   428A      4.914623   429A      4.921136  
     430A      4.924318   431A      4.937538   432A      4.973338  
     433A      4.987542   434A      4.996713   435A      5.042860  
     436A      5.044776   437A      5.055844   438A      5.069144  
     439A      5.071314   440A      5.116643   441A      5.121347  
     442A      5.131637   443A      5.137302   444A      5.142812  
     445A      5.170835   446A      5.181429   447A      5.197339  
     448A      5.201675   449A      5.231904   450A      5.252096  
     451A      5.286049   452A      5.295828   453A      5.306700  
     454A      5.319764   455A      5.344422   456A      5.370006  
     457A      5.398570   458A      5.419752   459A      5.430419  
     460A      5.437554   461A      5.496287   462A      5.497533  
     463A      5.553593   464A      5.586456   465A      5.607379  
     466A      5.648412   467A      5.651824   468A      5.657599  
     469A      5.679383   470A      5.706369   471A      5.768325  
     472A      5.774871   473A      5.792347   474A      5.815384  
     475A      5.846796   476A      5.854906   477A      5.861509  
     478A      5.876116   479A      5.927496   480A      5.934151  
     481A      5.949739   482A      5.962180   483A      5.975973  
     484A      6.007865   485A      6.025209   486A      6.056754  
     487A      6.072379   488A      6.121978   489A      6.152240  
     490A      6.204069   491A      6.208249   492A      6.267749  
     493A      6.294345   494A      6.320709   495A      6.348817  
     496A      6.431923   497A      6.445920   498A      6.459176  
     499A      6.508108   500A      6.514356   501A      6.539900  
     502A      6.563641   503A      6.565865   504A      6.579577  
     505A      6.589548   506A      6.630100   507A      6.676399  
     508A      6.722544   509A      6.743833   510A      6.860065  
     511A      6.929284   512A      7.001692   513A      7.039414  
     514A      7.087008   515A      7.222655   516A      7.323578  
     517A      7.343657   518A      7.353690   519A      7.425490  
     520A      7.447814   521A      7.456191   522A      7.531675  
     523A      7.539857   524A      7.593968   525A      7.719201  
     526A      7.741491   527A      7.801871   528A      7.848288  
     529A      7.851107   530A      7.881451   531A      7.932628  
     532A      8.059853   533A      8.183935   534A      8.263718  
     535A      8.492491   536A      8.816826   537A      9.078867  
     538A      9.100960   539A      9.125949   540A      9.436914  
     541A      9.796579   542A      9.853544   543A      9.881673  
     544A      9.996935   545A     10.199328   546A     10.552898  
     547A     10.902166   548A     11.434453   549A     11.568412  
     550A     11.654226   551A     11.966935   552A     13.658820  
     553A     13.794416   554A     13.837220   555A     14.000196  
     556A     14.164178   557A     14.678834   558A     42.782780  
     559A     46.249029   560A     55.435187   561A     60.674041  

    Final Occupation by Irrep:
              A 
    DOCC [    21 ]

  @DF-RHF Final Energy:  -232.23542742478514

   => Energetics <=

    Nuclear Repulsion Energy =            192.3087848916904363
    One-Electron Energy =                -696.1012987797452070
    Two-Electron Energy =                 271.5570864632696271
    Total Energy =                       -232.2354274247851436

Computation Completed


Properties will be evaluated at   0.000000,   0.000000,   0.000000 [a0]

Properties computed using the SCF density matrix

  Nuclear Dipole Moment: [e a0]
     X:   166.2496      Y:    -7.7680      Z:    -2.1526

  Electronic Dipole Moment: [e a0]
     X:  -166.0906      Y:     7.8024      Z:     2.8213

  Dipole Moment: [e a0]
     X:     0.1590      Y:     0.0344      Z:     0.6687     Total:     0.6882

  Dipole Moment: [D]
     X:     0.4042      Y:     0.0874      Z:     1.6997     Total:     1.7493


*** tstop() called on r282 at Fri Sep 10 11:19:24 2021
Module time:
	user time   =      59.69 seconds =       0.99 minutes
	system time =       0.89 seconds =       0.01 minutes
	total time  =         61 seconds =       1.02 minutes
Total time:
	user time   =     212.91 seconds =       3.55 minutes
	system time =       3.67 seconds =       0.06 minutes
	total time  =        217 seconds =       3.62 minutes
  Constructing Basis Sets for SAPT...

   => Loading Basis Set <=

    Name: (JUN-CC-PVTZ AUX)
    Role: RIFIT
    Keyword: DF_BASIS_SAPT
    atoms 1-2, 10-11, 18, 21              entry C          line   132 file /home/r08543048/miniconda3/share/psi4/basis/jun-cc-pvtz-ri.gbs 
    atoms 3, 14                           entry O          line   244 file /home/r08543048/miniconda3/share/psi4/basis/jun-cc-pvtz-ri.gbs 
    atoms 4                               entry N          line   188 file /home/r08543048/miniconda3/share/psi4/basis/jun-cc-pvtz-ri.gbs 
    atoms 5-9, 12-13, 15-17, 19-20, 22-24 entry H          line    30 file /home/r08543048/miniconda3/share/psi4/basis/jun-cc-pvtz-ri.gbs 


  //>>>>>>>>>>>>>>>>>>>>>>>>>>>>>>>>>>>//
  //               SAPT0               //
  //<<<<<<<<<<<<<<<<<<<<<<<<<<<<<<<<<<<//


*** tstart() called on r282
*** at Fri Sep 10 11:19:24 2021

        SAPT0  
    Ed Hohenstein
     6 June 2009

      Orbital Information
  --------------------------
    NSO        =       561
    NMO        =       561
    NRI        =      1323
    NOCC A     =        16
    NOCC B     =        21
    FOCC A     =         0
    FOCC B     =         0
    NVIR A     =       545
    NVIR B     =       540

    Elst10,r            =    -0.030990092376 [Eh]
    Exch10              =     0.030103402219 [Eh]
    Exch10 (S^2)        =     0.029797028955 [Eh]

    Iter     Energy [mEh]          dE [mEh]         Residual      Time [s]
       1      -6.51578027       6.515780273      15.986225129             1
       2      -8.17321963       1.657439356       8.709685195             2
       3      -8.49941170       0.326192075       2.534176175             4
       4      -8.42643604      -0.072975664       0.938949801             5
       5      -8.41958807      -0.006847969       0.294242135             6
       6      -8.42717572       0.007587646       0.092842957             8
       7      -8.42739908       0.000223359       0.024928083             9
       8      -8.42689541      -0.000503668       0.007283291            10
       9      -8.42687931      -0.000016095       0.002160302            12
      10      -8.42691291       0.000033597       0.000485215            13
      11      -8.42691279      -0.000000119       0.000144867            14
      12      -8.42691114      -0.000001650       0.000066577            16
      13      -8.42691131       0.000000168       0.000025877            17
      14      -8.42691161       0.000000303       0.000006330            18
      15      -8.42691155      -0.000000061       0.000001588            20
      16      -8.42691154      -0.000000006       0.000000398            21

    CHF Iterations converged


    Iter     Energy [mEh]          dE [mEh]         Residual      Time [s]
       1      -5.81483829       5.814838285      14.051114503             2
       2      -6.72416811       0.909329828       6.383968369             3
       3      -7.01172031       0.287552199       1.808420859             5
       4      -7.00393249      -0.007787826       0.621575224             6
       5      -6.98104595      -0.022886541       0.151243510             8
       6      -6.98183032       0.000784377       0.055626770            10
       7      -6.98328943       0.001459104       0.014945129            12
       8      -6.98308782      -0.000201606       0.004471268            13
       9      -6.98303206      -0.000055756       0.001295085            15
      10      -6.98304453       0.000012463       0.000432871            16
      11      -6.98304919       0.000004658       0.000098892            18
      12      -6.98304789      -0.000001301       0.000026389            19
      13      -6.98304775      -0.000000134       0.000008103            21
      14      -6.98304783       0.000000077       0.000001953            22
      15      -6.98304784       0.000000009       0.000000421            24

    CHF Iterations converged

    Ind20,r (A<-B)      =    -0.008426911545 [Eh]
    Ind20,r (B<-A)      =    -0.006983047838 [Eh]
    Ind20,r             =    -0.015409959382 [Eh]
    Exch-Ind20,r (A<-B) =     0.005127982565 [Eh]
    Exch-Ind20,r (B<-A) =     0.004074215594 [Eh]
    Exch-Ind20,r        =     0.009202198159 [Eh]
    Disp20              =    -0.012042398693 [Eh]
    Disp20 (SS)         =    -0.006021199346 [Eh]
    Disp20 (OS)         =    -0.006021199346 [Eh]
    Exch-Disp20         =     0.002292065454 [Eh]
    Exch-Disp20 (SS)    =     0.001430452120 [Eh]
    Exch-Disp20 (OS)    =     0.000861613334 [Eh]

    SAPT Results 
  --------------------------------------------------------------------------------------------------------
    Electrostatics                -30.99009238 [mEh]     -19.44657656 [kcal/mol]     -81.36447632 [kJ/mol]
      Elst10,r                    -30.99009238 [mEh]     -19.44657656 [kcal/mol]     -81.36447632 [kJ/mol]

    Exchange                       30.10340222 [mEh]      18.89017009 [kcal/mol]      79.03647164 [kJ/mol]
      Exch10                       30.10340222 [mEh]      18.89017009 [kcal/mol]      79.03647164 [kJ/mol]
      Exch10(S^2)                  29.79702895 [mEh]      18.69791796 [kcal/mol]      78.23208874 [kJ/mol]

    Induction                     -10.38732531 [mEh]      -6.51814504 [kcal/mol]     -27.27191884 [kJ/mol]
      Ind20,r                     -15.40995938 [mEh]      -9.66989550 [kcal/mol]     -40.45884278 [kJ/mol]
      Exch-Ind20,r                  9.20219816 [mEh]       5.77446652 [kcal/mol]      24.16036794 [kJ/mol]
      delta HF,r (2)               -4.17956409 [mEh]      -2.62271606 [kcal/mol]     -10.97344399 [kJ/mol]

    Dispersion                     -9.75033324 [mEh]      -6.11842648 [kcal/mol]     -25.59949639 [kJ/mol]
      Disp20                      -12.04239869 [mEh]      -7.55671927 [kcal/mol]     -31.61731341 [kJ/mol]
      Exch-Disp20                   2.29206545 [mEh]       1.43829279 [kcal/mol]       6.01781702 [kJ/mol]
      Disp20 (SS)                  -6.02119935 [mEh]      -3.77835963 [kcal/mol]     -15.80865671 [kJ/mol]
      Disp20 (OS)                  -6.02119935 [mEh]      -3.77835963 [kcal/mol]     -15.80865671 [kJ/mol]
      Exch-Disp20 (SS)              1.43045212 [mEh]       0.89762226 [kcal/mol]       3.75565152 [kJ/mol]
      Exch-Disp20 (OS)              0.86161333 [mEh]       0.54067053 [kcal/mol]       2.26216550 [kJ/mol]

  Total HF                        -11.27401547 [mEh]      -7.07455151 [kcal/mol]     -29.59992353 [kJ/mol]
  Total SAPT0                     -21.02434870 [mEh]     -13.19297799 [kcal/mol]     -55.19941992 [kJ/mol]

  Special recipe for scaled SAPT0 (see Manual):
    Electrostatics sSAPT0         -30.99009238 [mEh]     -19.44657656 [kcal/mol]     -81.36447632 [kJ/mol]
    Exchange sSAPT0                30.10340222 [mEh]      18.89017009 [kcal/mol]      79.03647164 [kJ/mol]
    Induction sSAPT0              -10.10054554 [mEh]      -6.33818802 [kcal/mol]     -26.51897867 [kJ/mol]
    Dispersion sSAPT0              -9.67890270 [mEh]      -6.07360314 [kcal/mol]     -25.41195553 [kJ/mol]
  Total sSAPT0                    -20.66613840 [mEh]     -12.96819763 [kcal/mol]     -54.25893889 [kJ/mol]
  --------------------------------------------------------------------------------------------------------

*** tstop() called on r282 at Fri Sep 10 11:22:36 2021
Module time:
	user time   =     164.53 seconds =       2.74 minutes
	system time =      26.05 seconds =       0.43 minutes
	total time  =        192 seconds =       3.20 minutes
Total time:
	user time   =     377.60 seconds =       6.29 minutes
	system time =      29.72 seconds =       0.50 minutes
	total time  =        409 seconds =       6.82 minutes

    Psi4 stopped on: Friday, 10 September 2021 11:22AM
    Psi4 wall time for execution: 0:06:49.06

*** Psi4 exiting successfully. Buy a developer a beer!
