
    -----------------------------------------------------------------------
          Psi4: An Open-Source Ab Initio Electronic Structure Package
                               Psi4 1.3.2 release

                         Git: Rev {HEAD} ecbda83 


    R. M. Parrish, L. A. Burns, D. G. A. Smith, A. C. Simmonett,
    A. E. DePrince III, E. G. Hohenstein, U. Bozkaya, A. Yu. Sokolov,
    R. Di Remigio, R. M. Richard, J. F. Gonthier, A. M. James,
    H. R. McAlexander, A. Kumar, M. Saitow, X. Wang, B. P. Pritchard,
    P. Verma, H. F. Schaefer III, K. Patkowski, R. A. King, E. F. Valeev,
    F. A. Evangelista, J. M. Turney, T. D. Crawford, and C. D. Sherrill,
    J. Chem. Theory Comput. 13(7) pp 3185--3197 (2017).
    (doi: 10.1021/acs.jctc.7b00174)


                         Additional Contributions by
    P. Kraus, H. Kruse, M. H. Lechner, M. C. Schieber, R. A. Shaw,
    A. Alenaizan, R. Galvelis, Z. L. Glick, S. Lehtola, and J. P. Misiewicz

    -----------------------------------------------------------------------


    Psi4 started on: Friday, 10 September 2021 11:39AM

    Process ID: 56566
    Host:       r282
    PSIDATADIR: /home/r08543048/miniconda3/share/psi4
    Memory:     500.0 MiB
    Threads:    1
    
  ==> Input File <==

--------------------------------------------------------------------------
# Any line starting with the # character is a comment line
#! Sample  computation

memory 22 gb

molecule Dimer {
0 1
 C 3.103552    0.557627    0.182949
 C 1.760161   -0.132491    0.276757
 O 1.109612   -0.421154   -0.731549
 N 1.312581   -0.392062    1.526141
 H 0.377871   -0.764384    1.644407
 H 1.849989   -0.120265    2.327959
 C 3.875454    0.129295   -1.056465
 H 3.278217    0.303203   -1.947956
 H 4.805940    0.688081   -1.139632 
 H 4.114044   -0.932425   -1.015206
 H 2.899842    1.630854    0.146509
 H 3.680708    0.374077    1.090466
 
 
 
 
 
  

 
 
     

    
    
 --
0 1
 C -2.733648   -0.106966   -0.969415
 C -2.477788   -1.332614   -0.104365
 H -1.908326   -0.003192   -1.681728
 H -3.630666   -0.310058   -1.561701
 O -1.188349   -1.348275    0.500860
 H -3.199402   -1.372638    0.713836
 H -2.611670   -2.236202   -0.707640
 H -0.522118   -1.129476   -0.180456
 C -2.931048    1.204631   -0.212004
 H -3.258385    1.964251   -0.925834
 H -3.751475    1.080924    0.500880
 C -1.690631    1.713462    0.516788
 H -0.841725    1.773822   -0.166593
 
H -1.866705    2.707267    0.929584
 H -1.410613    1.048366    1.330150
 
 







units angstrom

no_reorient
symmetry c1
}

set globals{
  basis jun-cc-pvtz
}

energy('sapt0')


--------------------------------------------------------------------------

  Memory set to  20.489 GiB by Python driver.

  //>>>>>>>>>>>>>>>>>>>>>>>>>>>>>>>>>>>//
  //              Dimer HF             //
  //<<<<<<<<<<<<<<<<<<<<<<<<<<<<<<<<<<<//


*** tstart() called on r282
*** at Fri Sep 10 11:39:24 2021

   => Loading Basis Set <=

    Name: JUN-CC-PVTZ
    Role: ORBITAL
    Keyword: BASIS
    atoms 1-2, 7, 13-14, 21, 24                 entry C          line   217 file /home/r08543048/miniconda3/share/psi4/basis/jun-cc-pvtz.gbs 
    atoms 3, 17                                 entry O          line   305 file /home/r08543048/miniconda3/share/psi4/basis/jun-cc-pvtz.gbs 
    atoms 4                                     entry N          line   261 file /home/r08543048/miniconda3/share/psi4/basis/jun-cc-pvtz.gbs 
    atoms 5-6, 8-12, 15-16, 18-20, 22-23, 25-27 entry H          line    36 file /home/r08543048/miniconda3/share/psi4/basis/jun-cc-pvtz.gbs 


         ---------------------------------------------------------
                                   SCF
               by Justin Turney, Rob Parrish, Andy Simmonett
                          and Daniel G. A. Smith
                              RHF Reference
                        1 Threads,  20980 MiB Core
         ---------------------------------------------------------

  ==> Geometry <==

    Molecular point group: c1
    Full point group: C1

    Geometry (in Angstrom), charge = 0, multiplicity = 1:

       Center              X                  Y                   Z               Mass       
    ------------   -----------------  -----------------  -----------------  -----------------
         C            3.090071572176     0.589284309580     0.178573371807    12.000000000000
         C            1.746680572176    -0.100833690420     0.272381371807    12.000000000000
         O            1.096131572176    -0.389496690420    -0.735924628193    15.994914619570
         N            1.299100572176    -0.360404690420     1.521765371807    14.003074004430
         H            0.364390572176    -0.732726690420     1.640031371807     1.007825032230
         H            1.836508572176    -0.088607690420     2.323583371807     1.007825032230
         C            3.861973572176     0.160952309580    -1.060840628193    12.000000000000
         H            3.264736572176     0.334860309580    -1.952331628193     1.007825032230
         H            4.792459572176     0.719738309580    -1.144007628193     1.007825032230
         H            4.100563572176    -0.900767690420    -1.019581628193     1.007825032230
         H            2.886361572176     1.662511309580     0.142133371807     1.007825032230
         H            3.667227572176     0.405734309580     1.086090371807     1.007825032230
         C           -2.747128427824    -0.075308690420    -0.973790628193    12.000000000000
         C           -2.491268427824    -1.300956690420    -0.108740628193    12.000000000000
         H           -1.921806427824     0.028465309580    -1.686103628193     1.007825032230
         H           -3.644146427824    -0.278400690420    -1.566076628193     1.007825032230
         O           -1.201829427824    -1.316617690420     0.496484371807    15.994914619570
         H           -3.212882427824    -1.340980690420     0.709460371807     1.007825032230
         H           -2.625150427824    -2.204544690420    -0.712015628193     1.007825032230
         H           -0.535598427824    -1.097818690420    -0.184831628193     1.007825032230
         C           -2.944528427824     1.236288309580    -0.216379628193    12.000000000000
         H           -3.271865427824     1.995908309580    -0.930209628193     1.007825032230
         H           -3.764955427824     1.112581309580     0.496504371807     1.007825032230
         C           -1.704111427824     1.745119309580     0.512412371807    12.000000000000
         H           -0.855205427824     1.805479309580    -0.170968628193     1.007825032230
         H           -1.880185427824     2.738924309580     0.925208371807     1.007825032230
         H           -1.424093427824     1.080023309580     1.325774371807     1.007825032230

  Running in c1 symmetry.

  Rotational constants: A =      0.06941  B =      0.01787  C =      0.01712 [cm^-1]
  Rotational constants: A =   2080.91303  B =    535.81512  C =    513.21228 [MHz]
  Nuclear repulsion =  568.945552264756770

  Charge       = 0
  Multiplicity = 1
  Electrons    = 82
  Nalpha       = 41
  Nbeta        = 41

  ==> Algorithm <==

  SCF Algorithm Type is DF.
  DIIS enabled.
  MOM disabled.
  Fractional occupation disabled.
  Guess Type is SAD.
  Energy threshold   = 1.00e-08
  Density threshold  = 1.00e-08
  Integral threshold = 0.00e+00

  ==> Primary Basis <==

  Basis Set: JUN-CC-PVTZ
    Blend: JUN-CC-PVTZ
    Number of shells: 232
    Number of basis function: 628
    Number of Cartesian functions: 705
    Spherical Harmonics?: true
    Max angular momentum: 3

   => Loading Basis Set <=

    Name: (JUN-CC-PVTZ AUX)
    Role: JKFIT
    Keyword: DF_BASIS_SCF
    atoms 1-2, 7, 13-14, 21, 24                 entry C          line   152 file /home/r08543048/miniconda3/share/psi4/basis/jun-cc-pvtz-jkfit.gbs 
    atoms 3, 17                                 entry O          line   272 file /home/r08543048/miniconda3/share/psi4/basis/jun-cc-pvtz-jkfit.gbs 
    atoms 4                                     entry N          line   212 file /home/r08543048/miniconda3/share/psi4/basis/jun-cc-pvtz-jkfit.gbs 
    atoms 5-6, 8-12, 15-16, 18-20, 22-23, 25-27 entry H          line    70 file /home/r08543048/miniconda3/share/psi4/basis/jun-cc-pvtz-jkfit.gbs 

  ==> Pre-Iterations <==

   -------------------------------------------------------
    Irrep   Nso     Nmo     Nalpha   Nbeta   Ndocc  Nsocc
   -------------------------------------------------------
     A        628     628       0       0       0       0
   -------------------------------------------------------
    Total     628     628      41      41      41       0
   -------------------------------------------------------

  ==> Integral Setup <==

  ==> DiskDFJK: Density-Fitted J/K Matrices <==

    J tasked:                  Yes
    K tasked:                  Yes
    wK tasked:                  No
    OpenMP threads:              1
    Integrals threads:           1
    Memory [MiB]:            15735
    Algorithm:                Core
    Integral Cache:           SAVE
    Schwarz Cutoff:          1E-12
    Fitting Condition:       1E-10

   => Auxiliary Basis Set <=

  Basis Set: (JUN-CC-PVTZ AUX)
    Blend: JUN-CC-PVTZ-JKFIT
    Number of shells: 460
    Number of basis function: 1460
    Number of Cartesian functions: 1755
    Spherical Harmonics?: true
    Max angular momentum: 4

  Minimum eigenvalue in the overlap matrix is 2.5811083052E-05.
  Using Symmetric Orthogonalization.

  SCF Guess: Superposition of Atomic Densities via on-the-fly atomic UHF.

  ==> Iterations <==

                           Total Energy        Delta E     RMS |[F,P]|

   @DF-RHF iter SAD:  -478.11144825891893   -4.78111e+02   0.00000e+00 
   @DF-RHF iter   1:  -478.93580401911117   -8.24356e-01   1.40409e-03 DIIS
   @DF-RHF iter   2:  -479.26290351296836   -3.27099e-01   7.34028e-04 DIIS
   @DF-RHF iter   3:  -479.34790818980821   -8.50047e-02   1.41668e-04 DIIS
   @DF-RHF iter   4:  -479.35315573207129   -5.24754e-03   6.41873e-05 DIIS
   @DF-RHF iter   5:  -479.35400019064559   -8.44459e-04   1.26029e-05 DIIS
   @DF-RHF iter   6:  -479.35405577178420   -5.55811e-05   4.85248e-06 DIIS
   @DF-RHF iter   7:  -479.35406351900599   -7.74722e-06   1.75195e-06 DIIS
   @DF-RHF iter   8:  -479.35406499054477   -1.47154e-06   7.37287e-07 DIIS
   @DF-RHF iter   9:  -479.35406529966696   -3.09122e-07   2.44915e-07 DIIS
   @DF-RHF iter  10:  -479.35406533515606   -3.54891e-08   7.86739e-08 DIIS
   @DF-RHF iter  11:  -479.35406533836931   -3.21324e-09   2.09272e-08 DIIS
   @DF-RHF iter  12:  -479.35406533855883   -1.89516e-10   6.70830e-09 DIIS
  Energy and wave function converged.


  ==> Post-Iterations <==

    Orbital Energies [Eh]
    ---------------------

    Doubly Occupied:                                                      

       1A    -20.530964     2A    -20.524021     3A    -15.582866  
       4A    -11.357587     5A    -11.258732     6A    -11.244936  
       7A    -11.219954     8A    -11.209526     9A    -11.208287  
      10A    -11.196970    11A     -1.383893    12A     -1.335505  
      13A     -1.214740    14A     -1.058968    15A     -1.056346  
      16A     -0.963112    17A     -0.897374    18A     -0.858220  
      19A     -0.788566    20A     -0.781684    21A     -0.723629  
      22A     -0.689526    23A     -0.650982    24A     -0.636493  
      25A     -0.631802    26A     -0.614530    27A     -0.605058  
      28A     -0.574783    29A     -0.565166    30A     -0.553368  
      31A     -0.531296    32A     -0.522630    33A     -0.517823  
      34A     -0.500111    35A     -0.493098    36A     -0.484323  
      37A     -0.463288    38A     -0.450274    39A     -0.429153  
      40A     -0.418064    41A     -0.411895  

    Virtual:                                                              

      42A      0.041815    43A      0.054218    44A      0.058770  
      45A      0.060243    46A      0.068169    47A      0.070189  
      48A      0.074230    49A      0.087238    50A      0.090448  
      51A      0.098681    52A      0.102079    53A      0.105285  
      54A      0.106704    55A      0.111336    56A      0.128319  
      57A      0.131699    58A      0.133819    59A      0.139659  
      60A      0.143244    61A      0.148682    62A      0.152246  
      63A      0.167150    64A      0.171024    65A      0.175767  
      66A      0.182224    67A      0.193268    68A      0.202762  
      69A      0.210014    70A      0.212061    71A      0.213560  
      72A      0.217893    73A      0.222508    74A      0.236975  
      75A      0.251659    76A      0.254791    77A      0.263973  
      78A      0.264788    79A      0.274273    80A      0.280484  
      81A      0.283398    82A      0.291908    83A      0.301875  
      84A      0.304088    85A      0.305082    86A      0.309968  
      87A      0.313149    88A      0.316790    89A      0.325088  
      90A      0.325673    91A      0.331679    92A      0.333506  
      93A      0.336675    94A      0.342115    95A      0.349682  
      96A      0.351351    97A      0.360228    98A      0.361783  
      99A      0.370362   100A      0.373852   101A      0.377216  
     102A      0.379658   103A      0.386034   104A      0.395030  
     105A      0.402036   106A      0.403865   107A      0.410081  
     108A      0.415962   109A      0.431320   110A      0.432070  
     111A      0.439580   112A      0.445157   113A      0.449720  
     114A      0.462926   115A      0.470819   116A      0.473386  
     117A      0.484507   118A      0.486939   119A      0.497266  
     120A      0.502994   121A      0.506598   122A      0.510701  
     123A      0.516033   124A      0.527700   125A      0.531415  
     126A      0.534227   127A      0.544815   128A      0.551250  
     129A      0.553585   130A      0.561527   131A      0.569546  
     132A      0.571693   133A      0.576907   134A      0.582268  
     135A      0.585570   136A      0.598915   137A      0.604682  
     138A      0.608727   139A      0.620515   140A      0.629316  
     141A      0.634210   142A      0.640605   143A      0.652883  
     144A      0.655216   145A      0.664177   146A      0.674837  
     147A      0.689021   148A      0.692229   149A      0.699437  
     150A      0.708680   151A      0.716110   152A      0.725346  
     153A      0.727283   154A      0.728142   155A      0.746097  
     156A      0.751372   157A      0.756300   158A      0.769146  
     159A      0.778005   160A      0.781418   161A      0.789750  
     162A      0.792932   163A      0.794537   164A      0.802058  
     165A      0.809997   166A      0.818910   167A      0.820529  
     168A      0.825193   169A      0.834922   170A      0.845032  
     171A      0.849394   172A      0.851523   173A      0.860766  
     174A      0.876837   175A      0.882641   176A      0.886480  
     177A      0.890176   178A      0.903748   179A      0.909644  
     180A      0.914234   181A      0.924433   182A      0.932194  
     183A      0.941551   184A      0.951005   185A      0.957189  
     186A      0.969590   187A      0.976123   188A      0.987209  
     189A      0.994273   190A      0.998926   191A      1.005306  
     192A      1.016643   193A      1.032025   194A      1.046757  
     195A      1.047799   196A      1.064010   197A      1.074515  
     198A      1.094872   199A      1.102543   200A      1.112557  
     201A      1.124229   202A      1.128745   203A      1.139022  
     204A      1.151345   205A      1.173956   206A      1.181235  
     207A      1.185484   208A      1.195353   209A      1.213803  
     210A      1.225955   211A      1.238698   212A      1.244159  
     213A      1.251808   214A      1.260060   215A      1.275957  
     216A      1.297654   217A      1.310639   218A      1.313763  
     219A      1.321079   220A      1.332899   221A      1.338007  
     222A      1.349544   223A      1.353434   224A      1.360173  
     225A      1.370576   226A      1.377092   227A      1.383418  
     228A      1.386826   229A      1.394208   230A      1.407161  
     231A      1.414921   232A      1.426652   233A      1.431191  
     234A      1.439349   235A      1.448620   236A      1.454454  
     237A      1.462073   238A      1.464084   239A      1.475586  
     240A      1.480883   241A      1.490533   242A      1.498412  
     243A      1.510148   244A      1.525810   245A      1.532255  
     246A      1.544884   247A      1.545332   248A      1.550830  
     249A      1.562968   250A      1.570853   251A      1.582091  
     252A      1.591879   253A      1.596970   254A      1.600989  
     255A      1.610850   256A      1.617498   257A      1.626558  
     258A      1.630402   259A      1.634547   260A      1.648986  
     261A      1.659883   262A      1.669595   263A      1.678015  
     264A      1.682208   265A      1.685784   266A      1.698094  
     267A      1.705102   268A      1.715577   269A      1.721953  
     270A      1.738711   271A      1.745827   272A      1.757023  
     273A      1.771003   274A      1.787843   275A      1.800685  
     276A      1.805476   277A      1.814728   278A      1.825270  
     279A      1.842913   280A      1.852443   281A      1.865962  
     282A      1.875938   283A      1.887192   284A      1.892847  
     285A      1.901655   286A      1.913026   287A      1.927501  
     288A      1.942941   289A      1.960467   290A      1.971109  
     291A      1.991316   292A      1.996873   293A      2.004535  
     294A      2.016439   295A      2.043973   296A      2.086894  
     297A      2.090118   298A      2.115916   299A      2.132440  
     300A      2.203516   301A      2.272467   302A      2.303321  
     303A      2.316134   304A      2.358303   305A      2.409730  
     306A      2.429557   307A      2.466328   308A      2.505177  
     309A      2.521722   310A      2.543642   311A      2.555692  
     312A      2.651011   313A      2.676126   314A      2.732739  
     315A      2.769930   316A      2.791165   317A      2.816278  
     318A      2.820928   319A      2.829410   320A      2.841848  
     321A      2.854248   322A      2.880503   323A      2.888391  
     324A      2.897822   325A      2.910083   326A      2.917658  
     327A      2.921401   328A      2.946707   329A      2.947631  
     330A      2.960684   331A      2.988473   332A      3.001253  
     333A      3.004004   334A      3.024974   335A      3.037599  
     336A      3.060763   337A      3.071207   338A      3.082601  
     339A      3.092084   340A      3.106399   341A      3.120718  
     342A      3.131564   343A      3.134164   344A      3.152459  
     345A      3.169353   346A      3.178205   347A      3.183560  
     348A      3.194965   349A      3.202835   350A      3.208869  
     351A      3.231636   352A      3.251762   353A      3.254332  
     354A      3.262636   355A      3.276141   356A      3.294905  
     357A      3.301742   358A      3.323784   359A      3.334688  
     360A      3.350707   361A      3.368359   362A      3.379657  
     363A      3.393162   364A      3.402041   365A      3.410787  
     366A      3.419216   367A      3.425298   368A      3.439092  
     369A      3.441158   370A      3.443408   371A      3.452597  
     372A      3.459362   373A      3.460257   374A      3.475227  
     375A      3.479920   376A      3.491990   377A      3.493819  
     378A      3.503446   379A      3.506474   380A      3.515542  
     381A      3.522795   382A      3.529102   383A      3.539709  
     384A      3.542411   385A      3.548067   386A      3.549739  
     387A      3.560966   388A      3.567697   389A      3.572422  
     390A      3.581092   391A      3.590709   392A      3.595895  
     393A      3.607488   394A      3.616032   395A      3.620228  
     396A      3.637128   397A      3.642276   398A      3.664953  
     399A      3.666066   400A      3.682930   401A      3.709907  
     402A      3.724064   403A      3.729126   404A      3.747891  
     405A      3.754990   406A      3.761498   407A      3.771957  
     408A      3.785074   409A      3.789454   410A      3.804849  
     411A      3.816721   412A      3.824663   413A      3.837783  
     414A      3.839449   415A      3.840926   416A      3.852247  
     417A      3.862372   418A      3.875158   419A      3.904431  
     420A      3.906115   421A      3.928880   422A      3.936499  
     423A      3.946752   424A      3.948761   425A      3.968597  
     426A      3.976120   427A      3.984191   428A      3.993240  
     429A      4.000107   430A      4.008266   431A      4.020932  
     432A      4.034227   433A      4.050540   434A      4.066486  
     435A      4.072960   436A      4.104125   437A      4.121295  
     438A      4.127463   439A      4.139736   440A      4.161945  
     441A      4.184036   442A      4.193901   443A      4.200292  
     444A      4.206246   445A      4.229959   446A      4.238677  
     447A      4.253298   448A      4.260631   449A      4.266787  
     450A      4.273180   451A      4.282726   452A      4.288315  
     453A      4.293558   454A      4.303720   455A      4.307958  
     456A      4.329903   457A      4.341659   458A      4.343261  
     459A      4.362154   460A      4.378575   461A      4.386366  
     462A      4.396547   463A      4.401726   464A      4.409295  
     465A      4.412724   466A      4.422406   467A      4.437806  
     468A      4.441369   469A      4.455041   470A      4.456787  
     471A      4.463163   472A      4.469592   473A      4.479966  
     474A      4.482598   475A      4.483529   476A      4.498002  
     477A      4.506720   478A      4.529477   479A      4.530371  
     480A      4.541068   481A      4.558719   482A      4.575574  
     483A      4.580786   484A      4.596275   485A      4.599073  
     486A      4.609420   487A      4.625074   488A      4.637416  
     489A      4.639706   490A      4.645714   491A      4.658593  
     492A      4.681561   493A      4.689230   494A      4.698690  
     495A      4.699754   496A      4.712846   497A      4.730975  
     498A      4.743542   499A      4.748170   500A      4.759278  
     501A      4.777092   502A      4.806866   503A      4.818805  
     504A      4.842097   505A      4.854596   506A      4.862598  
     507A      4.868834   508A      4.893338   509A      4.924061  
     510A      4.933543   511A      4.934994   512A      4.939929  
     513A      4.983686   514A      4.990868   515A      5.004122  
     516A      5.015161   517A      5.035822   518A      5.071875  
     519A      5.096290   520A      5.118202   521A      5.133096  
     522A      5.165239   523A      5.172536   524A      5.178347  
     525A      5.211683   526A      5.223246   527A      5.236509  
     528A      5.238545   529A      5.263858   530A      5.271250  
     531A      5.284188   532A      5.296949   533A      5.306375  
     534A      5.320665   535A      5.323667   536A      5.330471  
     537A      5.355694   538A      5.359447   539A      5.376945  
     540A      5.390933   541A      5.394307   542A      5.423329  
     543A      5.433094   544A      5.444591   545A      5.469074  
     546A      5.476147   547A      5.489308   548A      5.502642  
     549A      5.526840   550A      5.582028   551A      5.588135  
     552A      5.593910   553A      5.625738   554A      5.657234  
     555A      5.668418   556A      5.676741   557A      5.710823  
     558A      5.736901   559A      5.749105   560A      5.772178  
     561A      5.777020   562A      5.783440   563A      5.786738  
     564A      5.812104   565A      5.818098   566A      5.838302  
     567A      5.861455   568A      5.865755   569A      5.869249  
     570A      5.886244   571A      5.892105   572A      5.923351  
     573A      5.945466   574A      5.958520   575A      5.982996  
     576A      5.996262   577A      6.009818   578A      6.028348  
     579A      6.032688   580A      6.060880   581A      6.098759  
     582A      6.105539   583A      6.125160   584A      6.213498  
     585A      6.221432   586A      6.233420   587A      6.330305  
     588A      6.335326   589A      6.455580   590A      6.487389  
     591A      6.504807   592A      6.522630   593A      6.540645  
     594A      6.568586   595A      6.588819   596A      6.595681  
     597A      6.628130   598A      6.651651   599A      6.716684  
     600A      6.778388   601A      6.841544   602A      6.998761  
     603A      7.064311   604A      7.202497   605A      7.243802  
     606A      7.312892   607A      7.375875   608A      7.430619  
     609A      7.447488   610A      7.478841   611A      7.507773  
     612A      7.590226   613A      7.609126   614A      7.753140  
     615A      7.789460   616A      7.842113   617A      8.013863  
     618A      8.234735   619A     12.452982   620A     13.654666  
     621A     13.858917   622A     14.007738   623A     14.044735  
     624A     14.137783   625A     14.201491   626A     14.578826  
     627A     14.770621   628A     15.856472  

    Final Occupation by Irrep:
              A 
    DOCC [    41 ]

  @DF-RHF Final Energy:  -479.35406533855883

   => Energetics <=

    Nuclear Repulsion Energy =            568.9455522647567705
    One-Electron Energy =               -1782.3201508493557412
    Two-Electron Energy =                 734.0205332460401451
    Total Energy =                       -479.3540653385588257

Computation Completed


Properties will be evaluated at   0.000000,   0.000000,   0.000000 [a0]

Properties computed using the SCF density matrix

  Nuclear Dipole Moment: [e a0]
     X:    -2.0889      Y:     4.9055      Z:    -0.6781

  Electronic Dipole Moment: [e a0]
     X:     2.7793      Y:    -4.3528      Z:     1.4044

  Dipole Moment: [e a0]
     X:     0.6904      Y:     0.5528      Z:     0.7263     Total:     1.1445

  Dipole Moment: [D]
     X:     1.7549      Y:     1.4050      Z:     1.8462     Total:     2.9090


*** tstop() called on r282 at Fri Sep 10 11:41:40 2021
Module time:
	user time   =     133.51 seconds =       2.23 minutes
	system time =       2.61 seconds =       0.04 minutes
	total time  =        136 seconds =       2.27 minutes
Total time:
	user time   =     133.51 seconds =       2.23 minutes
	system time =       2.61 seconds =       0.04 minutes
	total time  =        136 seconds =       2.27 minutes

  //>>>>>>>>>>>>>>>>>>>>>>>>>>>>>>>>>>>//
  //            Monomer A HF           //
  //<<<<<<<<<<<<<<<<<<<<<<<<<<<<<<<<<<<//


*** tstart() called on r282
*** at Fri Sep 10 11:41:40 2021

   => Loading Basis Set <=

    Name: JUN-CC-PVTZ
    Role: ORBITAL
    Keyword: BASIS
    atoms 1-2, 7, 13-14, 21, 24                 entry C          line   217 file /home/r08543048/miniconda3/share/psi4/basis/jun-cc-pvtz.gbs 
    atoms 3, 17                                 entry O          line   305 file /home/r08543048/miniconda3/share/psi4/basis/jun-cc-pvtz.gbs 
    atoms 4                                     entry N          line   261 file /home/r08543048/miniconda3/share/psi4/basis/jun-cc-pvtz.gbs 
    atoms 5-6, 8-12, 15-16, 18-20, 22-23, 25-27 entry H          line    36 file /home/r08543048/miniconda3/share/psi4/basis/jun-cc-pvtz.gbs 


         ---------------------------------------------------------
                                   SCF
               by Justin Turney, Rob Parrish, Andy Simmonett
                          and Daniel G. A. Smith
                              RHF Reference
                        1 Threads,  20980 MiB Core
         ---------------------------------------------------------

  ==> Geometry <==

    Molecular point group: c1
    Full point group: C1

    Geometry (in Angstrom), charge = 0, multiplicity = 1:

       Center              X                  Y                   Z               Mass       
    ------------   -----------------  -----------------  -----------------  -----------------
         C            3.090071572176     0.589284309580     0.178573371807    12.000000000000
         C            1.746680572176    -0.100833690420     0.272381371807    12.000000000000
         O            1.096131572176    -0.389496690420    -0.735924628193    15.994914619570
         N            1.299100572176    -0.360404690420     1.521765371807    14.003074004430
         H            0.364390572176    -0.732726690420     1.640031371807     1.007825032230
         H            1.836508572176    -0.088607690420     2.323583371807     1.007825032230
         C            3.861973572176     0.160952309580    -1.060840628193    12.000000000000
         H            3.264736572176     0.334860309580    -1.952331628193     1.007825032230
         H            4.792459572176     0.719738309580    -1.144007628193     1.007825032230
         H            4.100563572176    -0.900767690420    -1.019581628193     1.007825032230
         H            2.886361572176     1.662511309580     0.142133371807     1.007825032230
         H            3.667227572176     0.405734309580     1.086090371807     1.007825032230
      Gh(C)          -2.747128427824    -0.075308690420    -0.973790628193    12.000000000000
      Gh(C)          -2.491268427824    -1.300956690420    -0.108740628193    12.000000000000
      Gh(H)          -1.921806427824     0.028465309580    -1.686103628193     1.007825032230
      Gh(H)          -3.644146427824    -0.278400690420    -1.566076628193     1.007825032230
      Gh(O)          -1.201829427824    -1.316617690420     0.496484371807    15.994914619570
      Gh(H)          -3.212882427824    -1.340980690420     0.709460371807     1.007825032230
      Gh(H)          -2.625150427824    -2.204544690420    -0.712015628193     1.007825032230
      Gh(H)          -0.535598427824    -1.097818690420    -0.184831628193     1.007825032230
      Gh(C)          -2.944528427824     1.236288309580    -0.216379628193    12.000000000000
      Gh(H)          -3.271865427824     1.995908309580    -0.930209628193     1.007825032230
      Gh(H)          -3.764955427824     1.112581309580     0.496504371807     1.007825032230
      Gh(C)          -1.704111427824     1.745119309580     0.512412371807    12.000000000000
      Gh(H)          -0.855205427824     1.805479309580    -0.170968628193     1.007825032230
      Gh(H)          -1.880185427824     2.738924309580     0.925208371807     1.007825032230
      Gh(H)          -1.424093427824     1.080023309580     1.325774371807     1.007825032230

  Running in c1 symmetry.

  Rotational constants: A =      0.06941  B =      0.01787  C =      0.01712 [cm^-1]
  Rotational constants: A =   2080.91303  B =    535.81512  C =    513.21228 [MHz]
  Nuclear repulsion =  179.169315425013821

  Charge       = 0
  Multiplicity = 1
  Electrons    = 40
  Nalpha       = 20
  Nbeta        = 20

  ==> Algorithm <==

  SCF Algorithm Type is DF.
  DIIS enabled.
  MOM disabled.
  Fractional occupation disabled.
  Guess Type is SAD.
  Energy threshold   = 1.00e-08
  Density threshold  = 1.00e-08
  Integral threshold = 0.00e+00

  ==> Primary Basis <==

  Basis Set: JUN-CC-PVTZ
    Blend: JUN-CC-PVTZ
    Number of shells: 232
    Number of basis function: 628
    Number of Cartesian functions: 705
    Spherical Harmonics?: true
    Max angular momentum: 3

   => Loading Basis Set <=

    Name: (JUN-CC-PVTZ AUX)
    Role: JKFIT
    Keyword: DF_BASIS_SCF
    atoms 1-2, 7, 13-14, 21, 24                 entry C          line   152 file /home/r08543048/miniconda3/share/psi4/basis/jun-cc-pvtz-jkfit.gbs 
    atoms 3, 17                                 entry O          line   272 file /home/r08543048/miniconda3/share/psi4/basis/jun-cc-pvtz-jkfit.gbs 
    atoms 4                                     entry N          line   212 file /home/r08543048/miniconda3/share/psi4/basis/jun-cc-pvtz-jkfit.gbs 
    atoms 5-6, 8-12, 15-16, 18-20, 22-23, 25-27 entry H          line    70 file /home/r08543048/miniconda3/share/psi4/basis/jun-cc-pvtz-jkfit.gbs 

  ==> Pre-Iterations <==

   -------------------------------------------------------
    Irrep   Nso     Nmo     Nalpha   Nbeta   Ndocc  Nsocc
   -------------------------------------------------------
     A        628     628       0       0       0       0
   -------------------------------------------------------
    Total     628     628      20      20      20       0
   -------------------------------------------------------

  ==> Integral Setup <==

  ==> DiskDFJK: Density-Fitted J/K Matrices <==

    J tasked:                  Yes
    K tasked:                  Yes
    wK tasked:                  No
    OpenMP threads:              1
    Integrals threads:           1
    Memory [MiB]:            15735
    Algorithm:                Core
    Integral Cache:           LOAD
    Schwarz Cutoff:          1E-12
    Fitting Condition:       1E-10

   => Auxiliary Basis Set <=

  Basis Set: (JUN-CC-PVTZ AUX)
    Blend: JUN-CC-PVTZ-JKFIT
    Number of shells: 460
    Number of basis function: 1460
    Number of Cartesian functions: 1755
    Spherical Harmonics?: true
    Max angular momentum: 4

  Minimum eigenvalue in the overlap matrix is 2.5811083052E-05.
  Using Symmetric Orthogonalization.

  SCF Guess: Superposition of Atomic Densities via on-the-fly atomic UHF.

  ==> Iterations <==

                           Total Energy        Delta E     RMS |[F,P]|

   @DF-RHF iter SAD:  -246.30131916959175   -2.46301e+02   0.00000e+00 
   @DF-RHF iter   1:  -246.89290712897156   -5.91588e-01   1.04308e-03 DIIS
   @DF-RHF iter   2:  -247.05403334335750   -1.61126e-01   6.05517e-04 DIIS
   @DF-RHF iter   3:  -247.10528128183040   -5.12479e-02   1.18704e-04 DIIS
   @DF-RHF iter   4:  -247.10833077371433   -3.04949e-03   5.12726e-05 DIIS
   @DF-RHF iter   5:  -247.10897387158593   -6.43098e-04   8.11827e-06 DIIS
   @DF-RHF iter   6:  -247.10901043608010   -3.65645e-05   3.22595e-06 DIIS
   @DF-RHF iter   7:  -247.10901512677185   -4.69069e-06   1.40267e-06 DIIS
   @DF-RHF iter   8:  -247.10901616177102   -1.03500e-06   5.60939e-07 DIIS
   @DF-RHF iter   9:  -247.10901635453018   -1.92759e-07   1.29456e-07 DIIS
   @DF-RHF iter  10:  -247.10901636549977   -1.09696e-08   3.17631e-08 DIIS
   @DF-RHF iter  11:  -247.10901636597001   -4.70237e-10   9.15941e-09 DIIS
  Energy and wave function converged.


  ==> Post-Iterations <==

    Orbital Energies [Eh]
    ---------------------

    Doubly Occupied:                                                      

       1A    -20.512903     2A    -15.589337     3A    -11.349502  
       4A    -11.241487     5A    -11.216260     6A     -1.368908  
       7A     -1.215261     8A     -1.052574     9A     -0.894053  
      10A     -0.786635    11A     -0.724775    12A     -0.672399  
      13A     -0.631651    14A     -0.595209    15A     -0.560237  
      16A     -0.523697    17A     -0.514460    18A     -0.494697  
      19A     -0.419905    20A     -0.413449  

    Virtual:                                                              

      21A      0.032694    22A      0.043034    23A      0.049195  
      24A      0.053605    25A      0.063319    26A      0.067659  
      27A      0.072011    28A      0.083914    29A      0.084985  
      30A      0.095761    31A      0.099839    32A      0.101730  
      33A      0.104890    34A      0.109703    35A      0.116212  
      36A      0.127336    37A      0.131284    38A      0.133221  
      39A      0.139691    40A      0.144904    41A      0.146695  
      42A      0.152574    43A      0.158261    44A      0.164726  
      45A      0.171622    46A      0.177794    47A      0.180894  
      48A      0.186994    49A      0.197600    50A      0.202405  
      51A      0.205673    52A      0.216146    53A      0.222650  
      54A      0.229784    55A      0.235557    56A      0.246942  
      57A      0.252195    58A      0.256322    59A      0.263470  
      60A      0.272532    61A      0.281517    62A      0.292888  
      63A      0.298847    64A      0.299450    65A      0.303408  
      66A      0.311131    67A      0.313935    68A      0.317668  
      69A      0.319407    70A      0.324774    71A      0.328721  
      72A      0.331869    73A      0.346523    74A      0.349380  
      75A      0.354205    76A      0.354806    77A      0.366327  
      78A      0.368643    79A      0.373152    80A      0.380726  
      81A      0.388212    82A      0.394866    83A      0.402160  
      84A      0.408227    85A      0.413604    86A      0.421875  
      87A      0.424518    88A      0.428685    89A      0.436786  
      90A      0.448879    91A      0.453273    92A      0.457921  
      93A      0.467014    94A      0.473234    95A      0.480515  
      96A      0.492399    97A      0.497132    98A      0.500711  
      99A      0.504230   100A      0.510953   101A      0.514587  
     102A      0.523980   103A      0.529964   104A      0.532187  
     105A      0.544015   106A      0.548300   107A      0.553684  
     108A      0.565228   109A      0.567557   110A      0.570836  
     111A      0.582161   112A      0.584777   113A      0.589380  
     114A      0.592368   115A      0.603142   116A      0.610959  
     117A      0.616148   118A      0.623765   119A      0.632367  
     120A      0.637003   121A      0.646315   122A      0.652767  
     123A      0.655452   124A      0.660879   125A      0.665069  
     126A      0.670374   127A      0.676784   128A      0.680650  
     129A      0.687296   130A      0.696143   131A      0.711500  
     132A      0.715990   133A      0.728842   134A      0.736328  
     135A      0.738340   136A      0.746238   137A      0.760775  
     138A      0.770386   139A      0.776246   140A      0.784280  
     141A      0.792664   142A      0.806366   143A      0.813351  
     144A      0.816823   145A      0.818979   146A      0.823443  
     147A      0.844241   148A      0.848498   149A      0.864956  
     150A      0.878207   151A      0.886995   152A      0.892397  
     153A      0.905014   154A      0.915224   155A      0.934945  
     156A      0.937369   157A      0.944778   158A      0.955387  
     159A      0.978940   160A      0.981547   161A      0.998304  
     162A      1.004067   163A      1.028490   164A      1.047339  
     165A      1.051543   166A      1.053359   167A      1.069742  
     168A      1.078133   169A      1.087320   170A      1.100105  
     171A      1.108460   172A      1.114909   173A      1.129420  
     174A      1.139446   175A      1.145761   176A      1.157923  
     177A      1.163489   178A      1.172908   179A      1.180697  
     180A      1.196535   181A      1.214070   182A      1.216537  
     183A      1.229221   184A      1.231821   185A      1.244432  
     186A      1.249350   187A      1.260492   188A      1.273016  
     189A      1.276371   190A      1.283212   191A      1.294619  
     192A      1.302325   193A      1.311542   194A      1.313264  
     195A      1.316364   196A      1.330171   197A      1.341442  
     198A      1.344559   199A      1.355219   200A      1.360596  
     201A      1.368927   202A      1.371018   203A      1.378750  
     204A      1.389300   205A      1.391628   206A      1.403562  
     207A      1.408294   208A      1.413621   209A      1.418123  
     210A      1.430987   211A      1.438287   212A      1.446036  
     213A      1.450877   214A      1.464583   215A      1.469416  
     216A      1.484641   217A      1.485931   218A      1.493849  
     219A      1.507189   220A      1.511464   221A      1.515583  
     222A      1.520425   223A      1.533045   224A      1.547376  
     225A      1.551916   226A      1.564067   227A      1.570245  
     228A      1.577838   229A      1.581076   230A      1.602450  
     231A      1.607368   232A      1.616171   233A      1.622984  
     234A      1.630472   235A      1.639948   236A      1.647080  
     237A      1.661373   238A      1.675349   239A      1.682303  
     240A      1.683666   241A      1.698592   242A      1.709792  
     243A      1.725266   244A      1.732336   245A      1.733003  
     246A      1.747360   247A      1.763803   248A      1.778005  
     249A      1.790575   250A      1.793578   251A      1.819912  
     252A      1.828401   253A      1.835453   254A      1.848081  
     255A      1.854270   256A      1.866838   257A      1.875909  
     258A      1.885127   259A      1.901428   260A      1.915526  
     261A      1.923942   262A      1.934512   263A      1.947672  
     264A      1.959248   265A      1.973672   266A      1.985075  
     267A      2.001355   268A      2.016679   269A      2.042308  
     270A      2.052155   271A      2.068330   272A      2.091241  
     273A      2.123704   274A      2.148597   275A      2.152830  
     276A      2.183197   277A      2.194587   278A      2.213175  
     279A      2.239173   280A      2.278121   281A      2.284067  
     282A      2.300217   283A      2.329968   284A      2.349694  
     285A      2.390829   286A      2.393301   287A      2.428601  
     288A      2.452668   289A      2.471827   290A      2.487118  
     291A      2.503999   292A      2.524316   293A      2.534263  
     294A      2.568045   295A      2.592662   296A      2.599805  
     297A      2.614960   298A      2.652709   299A      2.672038  
     300A      2.702341   301A      2.749648   302A      2.766724  
     303A      2.811907   304A      2.840454   305A      2.867472  
     306A      2.870187   307A      2.900014   308A      2.910700  
     309A      2.930219   310A      2.946842   311A      2.964648  
     312A      2.986999   313A      3.001253   314A      3.025686  
     315A      3.055928   316A      3.079666   317A      3.112456  
     318A      3.115869   319A      3.138345   320A      3.145727  
     321A      3.164460   322A      3.201741   323A      3.210640  
     324A      3.248257   325A      3.257668   326A      3.290944  
     327A      3.346674   328A      3.365922   329A      3.368117  
     330A      3.391129   331A      3.407203   332A      3.422999  
     333A      3.446682   334A      3.452337   335A      3.473112  
     336A      3.481406   337A      3.492527   338A      3.504393  
     339A      3.509687   340A      3.512653   341A      3.530357  
     342A      3.540331   343A      3.546147   344A      3.558186  
     345A      3.566787   346A      3.575452   347A      3.579727  
     348A      3.602077   349A      3.607715   350A      3.613989  
     351A      3.624598   352A      3.643062   353A      3.661639  
     354A      3.670252   355A      3.683626   356A      3.693324  
     357A      3.711937   358A      3.720756   359A      3.724531  
     360A      3.732951   361A      3.750864   362A      3.766504  
     363A      3.770785   364A      3.785916   365A      3.795311  
     366A      3.802435   367A      3.813598   368A      3.819148  
     369A      3.843502   370A      3.847165   371A      3.848822  
     372A      3.857667   373A      3.865512   374A      3.875649  
     375A      3.887882   376A      3.913380   377A      3.914226  
     378A      3.923863   379A      3.938900   380A      3.947507  
     381A      3.958489   382A      3.967126   383A      3.976145  
     384A      3.998656   385A      4.008984   386A      4.012364  
     387A      4.019828   388A      4.040051   389A      4.061743  
     390A      4.080376   391A      4.096088   392A      4.099161  
     393A      4.120685   394A      4.131150   395A      4.138981  
     396A      4.162981   397A      4.175318   398A      4.195848  
     399A      4.203699   400A      4.217502   401A      4.227820  
     402A      4.238920   403A      4.242122   404A      4.266239  
     405A      4.274790   406A      4.282299   407A      4.291598  
     408A      4.310957   409A      4.321346   410A      4.327348  
     411A      4.333772   412A      4.360581   413A      4.386617  
     414A      4.389716   415A      4.394354   416A      4.401242  
     417A      4.412190   418A      4.419613   419A      4.431870  
     420A      4.444724   421A      4.448243   422A      4.456153  
     423A      4.458783   424A      4.473014   425A      4.481547  
     426A      4.489655   427A      4.498797   428A      4.513805  
     429A      4.523536   430A      4.534196   431A      4.546788  
     432A      4.552356   433A      4.561228   434A      4.579964  
     435A      4.594000   436A      4.606337   437A      4.614196  
     438A      4.623911   439A      4.627503   440A      4.644480  
     441A      4.647703   442A      4.662359   443A      4.668371  
     444A      4.679352   445A      4.686943   446A      4.697114  
     447A      4.713598   448A      4.718116   449A      4.725436  
     450A      4.740141   451A      4.748689   452A      4.754749  
     453A      4.771651   454A      4.787173   455A      4.792215  
     456A      4.796669   457A      4.802607   458A      4.820115  
     459A      4.837414   460A      4.840795   461A      4.855072  
     462A      4.863263   463A      4.872016   464A      4.882611  
     465A      4.891457   466A      4.897094   467A      4.911897  
     468A      4.917064   469A      4.925226   470A      4.938677  
     471A      4.952691   472A      4.956846   473A      4.981590  
     474A      4.985465   475A      4.987920   476A      5.003548  
     477A      5.014586   478A      5.015114   479A      5.023799  
     480A      5.037883   481A      5.043599   482A      5.055916  
     483A      5.069788   484A      5.087864   485A      5.102811  
     486A      5.109067   487A      5.116050   488A      5.131089  
     489A      5.150368   490A      5.164866   491A      5.180669  
     492A      5.185216   493A      5.192441   494A      5.217038  
     495A      5.229210   496A      5.233878   497A      5.244037  
     498A      5.262481   499A      5.279153   500A      5.283742  
     501A      5.292453   502A      5.307288   503A      5.310166  
     504A      5.339419   505A      5.344168   506A      5.365735  
     507A      5.374236   508A      5.379266   509A      5.415840  
     510A      5.436273   511A      5.461017   512A      5.466067  
     513A      5.482508   514A      5.490213   515A      5.535198  
     516A      5.547626   517A      5.584188   518A      5.604572  
     519A      5.615377   520A      5.643672   521A      5.659735  
     522A      5.673958   523A      5.683989   524A      5.738290  
     525A      5.741259   526A      5.750084   527A      5.755285  
     528A      5.768356   529A      5.785051   530A      5.797207  
     531A      5.827115   532A      5.861339   533A      5.870453  
     534A      5.873518   535A      5.902259   536A      5.918881  
     537A      5.943812   538A      5.963012   539A      5.998447  
     540A      6.004362   541A      6.010848   542A      6.033490  
     543A      6.059666   544A      6.075718   545A      6.100995  
     546A      6.106278   547A      6.146049   548A      6.171364  
     549A      6.213894   550A      6.225417   551A      6.237825  
     552A      6.247556   553A      6.308065   554A      6.354764  
     555A      6.357252   556A      6.402604   557A      6.415374  
     558A      6.459892   559A      6.473108   560A      6.491198  
     561A      6.492785   562A      6.509525   563A      6.528453  
     564A      6.566687   565A      6.621941   566A      6.672477  
     567A      6.711867   568A      6.745565   569A      6.792274  
     570A      6.814681   571A      6.844853   572A      6.939978  
     573A      6.956950   574A      7.003547   575A      7.154730  
     576A      7.248277   577A      7.320111   578A      7.330766  
     579A      7.377131   580A      7.413680   581A      7.447403  
     582A      7.483838   583A      7.513941   584A      7.539442  
     585A      7.556984   586A      7.569540   587A      7.633048  
     588A      7.697736   589A      7.707954   590A      7.719355  
     591A      7.762728   592A      7.778890   593A      7.803452  
     594A      7.829664   595A      7.852034   596A      7.873838  
     597A      7.919538   598A      7.968330   599A      8.014099  
     600A      8.126281   601A      8.263038   602A      8.375559  
     603A      8.406890   604A      8.576578   605A      8.771143  
     606A      9.562743   607A      9.588296   608A      9.660985  
     609A      9.840629   610A      9.912015   611A      9.986971  
     612A     10.088815   613A     10.198111   614A     10.474337  
     615A     11.251916   616A     11.749491   617A     12.485690  
     618A     12.847483   619A     13.684047   620A     14.011765  
     621A     14.175747   622A     14.582636   623A     15.842121  
     624A     43.807009   625A     44.367240   626A     45.296633  
     627A     45.901323   628A     61.711067  

    Final Occupation by Irrep:
              A 
    DOCC [    20 ]

  @DF-RHF Final Energy:  -247.10901636597001

   => Energetics <=

    Nuclear Repulsion Energy =            179.1693154250138207
    One-Electron Energy =                -691.0018606875494243
    Two-Electron Energy =                 264.7235288965656537
    Total Energy =                       -247.1090163659699783

Computation Completed


Properties will be evaluated at   0.000000,   0.000000,   0.000000 [a0]

Properties computed using the SCF density matrix

  Nuclear Dipole Moment: [e a0]
     X:   171.9034      Y:    -0.6456      Z:     4.1226

  Electronic Dipole Moment: [e a0]
     X:  -171.2398      Y:     1.0100      Z:    -2.6614

  Dipole Moment: [e a0]
     X:     0.6636      Y:     0.3644      Z:     1.4611     Total:     1.6456

  Dipole Moment: [D]
     X:     1.6866      Y:     0.9262      Z:     3.7139     Total:     4.1827


*** tstop() called on r282 at Fri Sep 10 11:43:13 2021
Module time:
	user time   =      91.32 seconds =       1.52 minutes
	system time =       1.20 seconds =       0.02 minutes
	total time  =         93 seconds =       1.55 minutes
Total time:
	user time   =     224.84 seconds =       3.75 minutes
	system time =       3.81 seconds =       0.06 minutes
	total time  =        229 seconds =       3.82 minutes

  //>>>>>>>>>>>>>>>>>>>>>>>>>>>>>>>>>>>//
  //            Monomer B HF           //
  //<<<<<<<<<<<<<<<<<<<<<<<<<<<<<<<<<<<//


*** tstart() called on r282
*** at Fri Sep 10 11:43:13 2021

   => Loading Basis Set <=

    Name: JUN-CC-PVTZ
    Role: ORBITAL
    Keyword: BASIS
    atoms 1-2, 7, 13-14, 21, 24                 entry C          line   217 file /home/r08543048/miniconda3/share/psi4/basis/jun-cc-pvtz.gbs 
    atoms 3, 17                                 entry O          line   305 file /home/r08543048/miniconda3/share/psi4/basis/jun-cc-pvtz.gbs 
    atoms 4                                     entry N          line   261 file /home/r08543048/miniconda3/share/psi4/basis/jun-cc-pvtz.gbs 
    atoms 5-6, 8-12, 15-16, 18-20, 22-23, 25-27 entry H          line    36 file /home/r08543048/miniconda3/share/psi4/basis/jun-cc-pvtz.gbs 


         ---------------------------------------------------------
                                   SCF
               by Justin Turney, Rob Parrish, Andy Simmonett
                          and Daniel G. A. Smith
                              RHF Reference
                        1 Threads,  20980 MiB Core
         ---------------------------------------------------------

  ==> Geometry <==

    Molecular point group: c1
    Full point group: C1

    Geometry (in Angstrom), charge = 0, multiplicity = 1:

       Center              X                  Y                   Z               Mass       
    ------------   -----------------  -----------------  -----------------  -----------------
      Gh(C)           3.090071572176     0.589284309580     0.178573371807    12.000000000000
      Gh(C)           1.746680572176    -0.100833690420     0.272381371807    12.000000000000
      Gh(O)           1.096131572176    -0.389496690420    -0.735924628193    15.994914619570
      Gh(N)           1.299100572176    -0.360404690420     1.521765371807    14.003074004430
      Gh(H)           0.364390572176    -0.732726690420     1.640031371807     1.007825032230
      Gh(H)           1.836508572176    -0.088607690420     2.323583371807     1.007825032230
      Gh(C)           3.861973572176     0.160952309580    -1.060840628193    12.000000000000
      Gh(H)           3.264736572176     0.334860309580    -1.952331628193     1.007825032230
      Gh(H)           4.792459572176     0.719738309580    -1.144007628193     1.007825032230
      Gh(H)           4.100563572176    -0.900767690420    -1.019581628193     1.007825032230
      Gh(H)           2.886361572176     1.662511309580     0.142133371807     1.007825032230
      Gh(H)           3.667227572176     0.405734309580     1.086090371807     1.007825032230
         C           -2.747128427824    -0.075308690420    -0.973790628193    12.000000000000
         C           -2.491268427824    -1.300956690420    -0.108740628193    12.000000000000
         H           -1.921806427824     0.028465309580    -1.686103628193     1.007825032230
         H           -3.644146427824    -0.278400690420    -1.566076628193     1.007825032230
         O           -1.201829427824    -1.316617690420     0.496484371807    15.994914619570
         H           -3.212882427824    -1.340980690420     0.709460371807     1.007825032230
         H           -2.625150427824    -2.204544690420    -0.712015628193     1.007825032230
         H           -0.535598427824    -1.097818690420    -0.184831628193     1.007825032230
         C           -2.944528427824     1.236288309580    -0.216379628193    12.000000000000
         H           -3.271865427824     1.995908309580    -0.930209628193     1.007825032230
         H           -3.764955427824     1.112581309580     0.496504371807     1.007825032230
         C           -1.704111427824     1.745119309580     0.512412371807    12.000000000000
         H           -0.855205427824     1.805479309580    -0.170968628193     1.007825032230
         H           -1.880185427824     2.738924309580     0.925208371807     1.007825032230
         H           -1.424093427824     1.080023309580     1.325774371807     1.007825032230

  Running in c1 symmetry.

  Rotational constants: A =      0.06941  B =      0.01787  C =      0.01712 [cm^-1]
  Rotational constants: A =   2080.91303  B =    535.81512  C =    513.21228 [MHz]
  Nuclear repulsion =  192.399856146932990

  Charge       = 0
  Multiplicity = 1
  Electrons    = 42
  Nalpha       = 21
  Nbeta        = 21

  ==> Algorithm <==

  SCF Algorithm Type is DF.
  DIIS enabled.
  MOM disabled.
  Fractional occupation disabled.
  Guess Type is SAD.
  Energy threshold   = 1.00e-08
  Density threshold  = 1.00e-08
  Integral threshold = 0.00e+00

  ==> Primary Basis <==

  Basis Set: JUN-CC-PVTZ
    Blend: JUN-CC-PVTZ
    Number of shells: 232
    Number of basis function: 628
    Number of Cartesian functions: 705
    Spherical Harmonics?: true
    Max angular momentum: 3

   => Loading Basis Set <=

    Name: (JUN-CC-PVTZ AUX)
    Role: JKFIT
    Keyword: DF_BASIS_SCF
    atoms 1-2, 7, 13-14, 21, 24                 entry C          line   152 file /home/r08543048/miniconda3/share/psi4/basis/jun-cc-pvtz-jkfit.gbs 
    atoms 3, 17                                 entry O          line   272 file /home/r08543048/miniconda3/share/psi4/basis/jun-cc-pvtz-jkfit.gbs 
    atoms 4                                     entry N          line   212 file /home/r08543048/miniconda3/share/psi4/basis/jun-cc-pvtz-jkfit.gbs 
    atoms 5-6, 8-12, 15-16, 18-20, 22-23, 25-27 entry H          line    70 file /home/r08543048/miniconda3/share/psi4/basis/jun-cc-pvtz-jkfit.gbs 

  ==> Pre-Iterations <==

   -------------------------------------------------------
    Irrep   Nso     Nmo     Nalpha   Nbeta   Ndocc  Nsocc
   -------------------------------------------------------
     A        628     628       0       0       0       0
   -------------------------------------------------------
    Total     628     628      21      21      21       0
   -------------------------------------------------------

  ==> Integral Setup <==

  ==> DiskDFJK: Density-Fitted J/K Matrices <==

    J tasked:                  Yes
    K tasked:                  Yes
    wK tasked:                  No
    OpenMP threads:              1
    Integrals threads:           1
    Memory [MiB]:            15735
    Algorithm:                Core
    Integral Cache:           LOAD
    Schwarz Cutoff:          1E-12
    Fitting Condition:       1E-10

   => Auxiliary Basis Set <=

  Basis Set: (JUN-CC-PVTZ AUX)
    Blend: JUN-CC-PVTZ-JKFIT
    Number of shells: 460
    Number of basis function: 1460
    Number of Cartesian functions: 1755
    Spherical Harmonics?: true
    Max angular momentum: 4

  Minimum eigenvalue in the overlap matrix is 2.5811083052E-05.
  Using Symmetric Orthogonalization.

  SCF Guess: Superposition of Atomic Densities via on-the-fly atomic UHF.

  ==> Iterations <==

                           Total Energy        Delta E     RMS |[F,P]|

   @DF-RHF iter SAD:  -231.56596573399423   -2.31566e+02   0.00000e+00 
   @DF-RHF iter   1:  -232.00764778505948   -4.41682e-01   1.00483e-03 DIIS
   @DF-RHF iter   2:  -232.18480423160935   -1.77156e-01   5.31376e-04 DIIS
   @DF-RHF iter   3:  -232.23226331249083   -4.74591e-02   9.15885e-05 DIIS
   @DF-RHF iter   4:  -232.23500659871209   -2.74329e-03   3.09413e-05 DIIS
   @DF-RHF iter   5:  -232.23522421899196   -2.17620e-04   7.95167e-06 DIIS
   @DF-RHF iter   6:  -232.23524181790651   -1.75989e-05   1.81401e-06 DIIS
   @DF-RHF iter   7:  -232.23524316397746   -1.34607e-06   4.44359e-07 DIIS
   @DF-RHF iter   8:  -232.23524325187876   -8.79013e-08   1.43881e-07 DIIS
   @DF-RHF iter   9:  -232.23524326133398   -9.45522e-09   4.06425e-08 DIIS
   @DF-RHF iter  10:  -232.23524326218438   -8.50406e-10   9.20059e-09 DIIS
  Energy and wave function converged.


  ==> Post-Iterations <==

    Orbital Energies [Eh]
    ---------------------

    Doubly Occupied:                                                      

       1A    -20.554122     2A    -11.271421     3A    -11.222757  
       4A    -11.218650     5A    -11.204632     6A     -1.351895  
       7A     -1.069822     8A     -0.973327     9A     -0.868423  
      10A     -0.792642    11A     -0.667843    12A     -0.643521  
      13A     -0.628609    14A     -0.585308    15A     -0.563486  
      16A     -0.535615    17A     -0.502771    18A     -0.496647  
      19A     -0.474451    20A     -0.460463    21A     -0.425455  

    Virtual:                                                              

      22A      0.029261    23A      0.048283    24A      0.053305  
      25A      0.055232    26A      0.060168    27A      0.065337  
      28A      0.069538    29A      0.081507    30A      0.086471  
      31A      0.091904    32A      0.096315    33A      0.099620  
      34A      0.105000    35A      0.107472    36A      0.119084  
      37A      0.124376    38A      0.126867    39A      0.133781  
      40A      0.136558    41A      0.142949    42A      0.145927  
      43A      0.154520    44A      0.157452    45A      0.164757  
      46A      0.173281    47A      0.178100    48A      0.182398  
      49A      0.200550    50A      0.202781    51A      0.208775  
      52A      0.211628    53A      0.218374    54A      0.223457  
      55A      0.228314    56A      0.233548    57A      0.237081  
      58A      0.249009    59A      0.267439    60A      0.272366  
      61A      0.276101    62A      0.279597    63A      0.290770  
      64A      0.298001    65A      0.305562    66A      0.307482  
      67A      0.314491    68A      0.318996    69A      0.324946  
      70A      0.326067    71A      0.335351    72A      0.337652  
      73A      0.342064    74A      0.346033    75A      0.350040  
      76A      0.355212    77A      0.359643    78A      0.364742  
      79A      0.372694    80A      0.377772    81A      0.380671  
      82A      0.388268    83A      0.392802    84A      0.395840  
      85A      0.403223    86A      0.406198    87A      0.409856  
      88A      0.414034    89A      0.423349    90A      0.430394  
      91A      0.433188    92A      0.444943    93A      0.450009  
      94A      0.459079    95A      0.466731    96A      0.471884  
      97A      0.472638    98A      0.477810    99A      0.490325  
     100A      0.495735   101A      0.499854   102A      0.505128  
     103A      0.515711   104A      0.526301   105A      0.528313  
     106A      0.532232   107A      0.539179   108A      0.542092  
     109A      0.549216   110A      0.559872   111A      0.562158  
     112A      0.571417   113A      0.573631   114A      0.578023  
     115A      0.581503   116A      0.588628   117A      0.608190  
     118A      0.610245   119A      0.621259   120A      0.629337  
     121A      0.635304   122A      0.640789   123A      0.654468  
     124A      0.659925   125A      0.672123   126A      0.677373  
     127A      0.681672   128A      0.688698   129A      0.699443  
     130A      0.707381   131A      0.710749   132A      0.715635  
     133A      0.726905   134A      0.736871   135A      0.745519  
     136A      0.757241   137A      0.762104   138A      0.764454  
     139A      0.781104   140A      0.785776   141A      0.789337  
     142A      0.807199   143A      0.811795   144A      0.815359  
     145A      0.819149   146A      0.827230   147A      0.834040  
     148A      0.847150   149A      0.851365   150A      0.862284  
     151A      0.874755   152A      0.878851   153A      0.888251  
     154A      0.894931   155A      0.901719   156A      0.908451  
     157A      0.923332   158A      0.930351   159A      0.954625  
     160A      0.960040   161A      0.963925   162A      0.971031  
     163A      0.984573   164A      0.994690   165A      0.997424  
     166A      0.999551   167A      1.017795   168A      1.030645  
     169A      1.042812   170A      1.045818   171A      1.060418  
     172A      1.070212   173A      1.074181   174A      1.081846  
     175A      1.098693   176A      1.117264   177A      1.128171  
     178A      1.147119   179A      1.156414   180A      1.164579  
     181A      1.170958   182A      1.174518   183A      1.186606  
     184A      1.196632   185A      1.198835   186A      1.215874  
     187A      1.228993   188A      1.243451   189A      1.250324  
     190A      1.253640   191A      1.255310   192A      1.272375  
     193A      1.290213   194A      1.296946   195A      1.299468  
     196A      1.305033   197A      1.309105   198A      1.325714  
     199A      1.340869   200A      1.343344   201A      1.353315  
     202A      1.358881   203A      1.365581   204A      1.371282  
     205A      1.383862   206A      1.401643   207A      1.407969  
     208A      1.413737   209A      1.431871   210A      1.440649  
     211A      1.446993   212A      1.452950   213A      1.460296  
     214A      1.471895   215A      1.490226   216A      1.495377  
     217A      1.502175   218A      1.504630   219A      1.514038  
     220A      1.527224   221A      1.529364   222A      1.541199  
     223A      1.544886   224A      1.554180   225A      1.566386  
     226A      1.567533   227A      1.568615   228A      1.585404  
     229A      1.592924   230A      1.606162   231A      1.609801  
     232A      1.613280   233A      1.620652   234A      1.626195  
     235A      1.642760   236A      1.652458   237A      1.655051  
     238A      1.668746   239A      1.673704   240A      1.675238  
     241A      1.692112   242A      1.694938   243A      1.709348  
     244A      1.722743   245A      1.726338   246A      1.731591  
     247A      1.741379   248A      1.759218   249A      1.767948  
     250A      1.773621   251A      1.792468   252A      1.796891  
     253A      1.805002   254A      1.822717   255A      1.825566  
     256A      1.848108   257A      1.857634   258A      1.871624  
     259A      1.878821   260A      1.887715   261A      1.897258  
     262A      1.907914   263A      1.926049   264A      1.947061  
     265A      1.952194   266A      1.962418   267A      1.986717  
     268A      2.001846   269A      2.012834   270A      2.018061  
     271A      2.034488   272A      2.041087   273A      2.086662  
     274A      2.088429   275A      2.103356   276A      2.139549  
     277A      2.167129   278A      2.182939   279A      2.204412  
     280A      2.226260   281A      2.291950   282A      2.309296  
     283A      2.337239   284A      2.373810   285A      2.408691  
     286A      2.416047   287A      2.423487   288A      2.445965  
     289A      2.459331   290A      2.508913   291A      2.532318  
     292A      2.541582   293A      2.553229   294A      2.570314  
     295A      2.661569   296A      2.666098   297A      2.700961  
     298A      2.716773   299A      2.745135   300A      2.786913  
     301A      2.808898   302A      2.818388   303A      2.824900  
     304A      2.846600   305A      2.860930   306A      2.883128  
     307A      2.896257   308A      2.905214   309A      2.927767  
     310A      2.936924   311A      2.954189   312A      2.963046  
     313A      2.995826   314A      3.007834   315A      3.058503  
     316A      3.065478   317A      3.076167   318A      3.081165  
     319A      3.085690   320A      3.096198   321A      3.102429  
     322A      3.132249   323A      3.170364   324A      3.177937  
     325A      3.192959   326A      3.202580   327A      3.230475  
     328A      3.239967   329A      3.260623   330A      3.282432  
     331A      3.289250   332A      3.326603   333A      3.352167  
     334A      3.371705   335A      3.385496   336A      3.413679  
     337A      3.418802   338A      3.421956   339A      3.436587  
     340A      3.446879   341A      3.461735   342A      3.469737  
     343A      3.486130   344A      3.489730   345A      3.499218  
     346A      3.519980   347A      3.523395   348A      3.532691  
     349A      3.539412   350A      3.548293   351A      3.555094  
     352A      3.569378   353A      3.573859   354A      3.588083  
     355A      3.591919   356A      3.608356   357A      3.616651  
     358A      3.618006   359A      3.636171   360A      3.648710  
     361A      3.666060   362A      3.680742   363A      3.688386  
     364A      3.714639   365A      3.724951   366A      3.735617  
     367A      3.755820   368A      3.766438   369A      3.770058  
     370A      3.778105   371A      3.792260   372A      3.808109  
     373A      3.814449   374A      3.815480   375A      3.825388  
     376A      3.835945   377A      3.845056   378A      3.860673  
     379A      3.871068   380A      3.871718   381A      3.900418  
     382A      3.905803   383A      3.921349   384A      3.924724  
     385A      3.936312   386A      3.943255   387A      3.964047  
     388A      3.973033   389A      3.984277   390A      4.002737  
     391A      4.005571   392A      4.015709   393A      4.025295  
     394A      4.059467   395A      4.075010   396A      4.091324  
     397A      4.098810   398A      4.102754   399A      4.118530  
     400A      4.129013   401A      4.151174   402A      4.156440  
     403A      4.180844   404A      4.202585   405A      4.211870  
     406A      4.224481   407A      4.237899   408A      4.243493  
     409A      4.258559   410A      4.266435   411A      4.270148  
     412A      4.285228   413A      4.299979   414A      4.312269  
     415A      4.324204   416A      4.335861   417A      4.352059  
     418A      4.368205   419A      4.380590   420A      4.391250  
     421A      4.392944   422A      4.402852   423A      4.407571  
     424A      4.430492   425A      4.434724   426A      4.453843  
     427A      4.461531   428A      4.470707   429A      4.479839  
     430A      4.482029   431A      4.490041   432A      4.503984  
     433A      4.518299   434A      4.521641   435A      4.535629  
     436A      4.539844   437A      4.548292   438A      4.564794  
     439A      4.569751   440A      4.591958   441A      4.608943  
     442A      4.612643   443A      4.627217   444A      4.629256  
     445A      4.638180   446A      4.645920   447A      4.649800  
     448A      4.664262   449A      4.671387   450A      4.696045  
     451A      4.699318   452A      4.711865   453A      4.717545  
     454A      4.722860   455A      4.734346   456A      4.740790  
     457A      4.745994   458A      4.773464   459A      4.775391  
     460A      4.791631   461A      4.804304   462A      4.820042  
     463A      4.829800   464A      4.837416   465A      4.839886  
     466A      4.840975   467A      4.844171   468A      4.852724  
     469A      4.856897   470A      4.879333   471A      4.885004  
     472A      4.896506   473A      4.906247   474A      4.918650  
     475A      4.922206   476A      4.931861   477A      4.935207  
     478A      4.950179   479A      4.965721   480A      4.973685  
     481A      4.980336   482A      4.991673   483A      5.000430  
     484A      5.003522   485A      5.017179   486A      5.022611  
     487A      5.057464   488A      5.073292   489A      5.081188  
     490A      5.088888   491A      5.098499   492A      5.115209  
     493A      5.125398   494A      5.139045   495A      5.156202  
     496A      5.176564   497A      5.185878   498A      5.210451  
     499A      5.220376   500A      5.239294   501A      5.258557  
     502A      5.269664   503A      5.304792   504A      5.312804  
     505A      5.319121   506A      5.323455   507A      5.349321  
     508A      5.367279   509A      5.374068   510A      5.404279  
     511A      5.417258   512A      5.425193   513A      5.435352  
     514A      5.462581   515A      5.476236   516A      5.488584  
     517A      5.554285   518A      5.576177   519A      5.587204  
     520A      5.615001   521A      5.622348   522A      5.657303  
     523A      5.670619   524A      5.692528   525A      5.728517  
     526A      5.764360   527A      5.770965   528A      5.787760  
     529A      5.803158   530A      5.828888   531A      5.846939  
     532A      5.850275   533A      5.858979   534A      5.879073  
     535A      5.895749   536A      5.928516   537A      5.937222  
     538A      5.968659   539A      5.978646   540A      5.991121  
     541A      6.023459   542A      6.060500   543A      6.074313  
     544A      6.094171   545A      6.105968   546A      6.137877  
     547A      6.209727   548A      6.222620   549A      6.281881  
     550A      6.297615   551A      6.311154   552A      6.330214  
     553A      6.369319   554A      6.424958   555A      6.434933  
     556A      6.446536   557A      6.479854   558A      6.496308  
     559A      6.530177   560A      6.546639   561A      6.562911  
     562A      6.577320   563A      6.583583   564A      6.588308  
     565A      6.615562   566A      6.637729   567A      6.702913  
     568A      6.738157   569A      6.802746   570A      6.873993  
     571A      6.935774   572A      6.968970   573A      6.982384  
     574A      7.063122   575A      7.109227   576A      7.238472  
     577A      7.316651   578A      7.333777   579A      7.350765  
     580A      7.431363   581A      7.442447   582A      7.462253  
     583A      7.522127   584A      7.538419   585A      7.572501  
     586A      7.635643   587A      7.662036   588A      7.726100  
     589A      7.765749   590A      7.815980   591A      7.834845  
     592A      7.854919   593A      7.922128   594A      7.974867  
     595A      7.987010   596A      8.066203   597A      8.162076  
     598A      8.303991   599A      8.419960   600A      8.506421  
     601A      8.850093   602A      9.134381   603A      9.167088  
     604A      9.196936   605A      9.526006   606A      9.628929  
     607A      9.840877   608A      9.915987   609A      9.940542  
     610A     10.063692   611A     10.211405   612A     10.576241  
     613A     10.908037   614A     11.461818   615A     11.670607  
     616A     11.700795   617A     12.039431   618A     13.644418  
     619A     13.811535   620A     13.859227   621A     14.040138  
     622A     14.181653   623A     14.759084   624A     43.271674  
     625A     44.928186   626A     45.660651   627A     55.634360  
     628A     61.157850  

    Final Occupation by Irrep:
              A 
    DOCC [    21 ]

  @DF-RHF Final Energy:  -232.23524326218438

   => Energetics <=

    Nuclear Repulsion Energy =            192.3998561469329900
    One-Electron Energy =                -696.2464799499925903
    Two-Electron Energy =                 271.6113805408752455
    Total Energy =                       -232.2352432621843832

Computation Completed


Properties will be evaluated at   0.000000,   0.000000,   0.000000 [a0]

Properties computed using the SCF density matrix

  Nuclear Dipole Moment: [e a0]
     X:  -173.9923      Y:     5.5512      Z:    -4.8006

  Electronic Dipole Moment: [e a0]
     X:   173.7976      Y:    -5.3680      Z:     4.1508

  Dipole Moment: [e a0]
     X:    -0.1947      Y:     0.1832      Z:    -0.6498     Total:     0.7026

  Dipole Moment: [D]
     X:    -0.4949      Y:     0.4656      Z:    -1.6516     Total:     1.7859


*** tstop() called on r282 at Fri Sep 10 11:44:28 2021
Module time:
	user time   =      74.37 seconds =       1.24 minutes
	system time =       1.16 seconds =       0.02 minutes
	total time  =         75 seconds =       1.25 minutes
Total time:
	user time   =     299.21 seconds =       4.99 minutes
	system time =       4.97 seconds =       0.08 minutes
	total time  =        304 seconds =       5.07 minutes
  Constructing Basis Sets for SAPT...

   => Loading Basis Set <=

    Name: (JUN-CC-PVTZ AUX)
    Role: RIFIT
    Keyword: DF_BASIS_SAPT
    atoms 1-2, 7, 13-14, 21, 24                 entry C          line   132 file /home/r08543048/miniconda3/share/psi4/basis/jun-cc-pvtz-ri.gbs 
    atoms 3, 17                                 entry O          line   244 file /home/r08543048/miniconda3/share/psi4/basis/jun-cc-pvtz-ri.gbs 
    atoms 4                                     entry N          line   188 file /home/r08543048/miniconda3/share/psi4/basis/jun-cc-pvtz-ri.gbs 
    atoms 5-6, 8-12, 15-16, 18-20, 22-23, 25-27 entry H          line    30 file /home/r08543048/miniconda3/share/psi4/basis/jun-cc-pvtz-ri.gbs 


  //>>>>>>>>>>>>>>>>>>>>>>>>>>>>>>>>>>>//
  //               SAPT0               //
  //<<<<<<<<<<<<<<<<<<<<<<<<<<<<<<<<<<<//


*** tstart() called on r282
*** at Fri Sep 10 11:44:28 2021

        SAPT0  
    Ed Hohenstein
     6 June 2009

      Orbital Information
  --------------------------
    NSO        =       628
    NMO        =       628
    NRI        =      1480
    NOCC A     =        20
    NOCC B     =        21
    FOCC A     =         0
    FOCC B     =         0
    NVIR A     =       608
    NVIR B     =       607

    Elst10,r            =    -0.029766047718 [Eh]
    Exch10              =     0.029968528768 [Eh]
    Exch10 (S^2)        =     0.029691386166 [Eh]

    Iter     Energy [mEh]          dE [mEh]         Residual      Time [s]
       1      -6.42701535       6.427015350      15.722332601             2
       2      -8.02436130       1.597345946       8.627877310             4
       3      -8.35527921       0.330917912       2.479903452             6
       4      -8.28196230      -0.073316908       0.913585931             8
       5      -8.27615622      -0.005806081       0.303105946            10
       6      -8.28308511       0.006928889       0.105375955            12
       7      -8.28368535       0.000600245       0.025129781            14
       8      -8.28316970      -0.000515657       0.007264772            16
       9      -8.28314573      -0.000023969       0.002186828            18
      10      -8.28317805       0.000032318       0.000508644            20
      11      -8.28318001       0.000001961       0.000121581            22
      12      -8.28317787      -0.000002139       0.000045714            25
      13      -8.28317835       0.000000478       0.000018133            27
      14      -8.28317843       0.000000082       0.000006235            29
      15      -8.28317837      -0.000000056       0.000001626            31
      16      -8.28317837      -0.000000002       0.000000446            33

    CHF Iterations converged


    Iter     Energy [mEh]          dE [mEh]         Residual      Time [s]
       1      -5.47836663       5.478366631      13.728784564             2
       2      -6.13030694       0.651940314       5.978216786             4
       3      -6.41906194       0.288754990       1.682333797             6
       4      -6.42624221       0.007180277       0.491736522             8
       5      -6.40557669      -0.020665519       0.113815610            10
       6      -6.40620689       0.000630193       0.041959751            12
       7      -6.40721627       0.001009387       0.011424840            15
       8      -6.40708111      -0.000135161       0.003173250            17
       9      -6.40704216      -0.000038955       0.000939980            19
      10      -6.40705007       0.000007916       0.000342933            21
      11      -6.40705383       0.000003760       0.000078770            23
      12      -6.40705281      -0.000001023       0.000020663            25
      13      -6.40705273      -0.000000084       0.000006504            27
      14      -6.40705279       0.000000060       0.000001588            29
      15      -6.40705279       0.000000005       0.000000325            31

    CHF Iterations converged

    Ind20,r (A<-B)      =    -0.008283178368 [Eh]
    Ind20,r (B<-A)      =    -0.006407052792 [Eh]
    Ind20,r             =    -0.014690231160 [Eh]
    Exch-Ind20,r (A<-B) =     0.005165819066 [Eh]
    Exch-Ind20,r (B<-A) =     0.003487866644 [Eh]
    Exch-Ind20,r        =     0.008653685710 [Eh]
    Disp20              =    -0.014380472397 [Eh]
    Disp20 (SS)         =    -0.007190236198 [Eh]
    Disp20 (OS)         =    -0.007190236198 [Eh]
    Exch-Disp20         =     0.002395237585 [Eh]
    Exch-Disp20 (SS)    =     0.001499086506 [Eh]
    Exch-Disp20 (OS)    =     0.000896151079 [Eh]

    SAPT Results 
  --------------------------------------------------------------------------------------------------------
    Electrostatics                -29.76604772 [mEh]     -18.67847694 [kcal/mol]     -78.15074752 [kJ/mol]
      Elst10,r                    -29.76604772 [mEh]     -18.67847694 [kcal/mol]     -78.15074752 [kJ/mol]

    Exchange                       29.96852877 [mEh]      18.80553572 [kcal/mol]      78.68236144 [kJ/mol]
      Exch10                       29.96852877 [mEh]      18.80553572 [kcal/mol]      78.68236144 [kJ/mol]
      Exch10(S^2)                  29.69138617 [mEh]      18.63162611 [kcal/mol]      77.95472364 [kJ/mol]

    Induction                     -10.00819145 [mEh]      -6.28023495 [kcal/mol]     -26.27650304 [kJ/mol]
      Ind20,r                     -14.69023116 [mEh]      -9.21825922 [kcal/mol]     -38.56919660 [kJ/mol]
      Exch-Ind20,r                  8.65368571 [mEh]       5.43026977 [kcal/mol]      22.72024870 [kJ/mol]
      delta HF,r (2)               -3.97164600 [mEh]      -2.49224549 [kcal/mol]     -10.42755515 [kJ/mol]

    Dispersion                    -11.98523481 [mEh]      -7.52084839 [kcal/mol]     -31.46722966 [kJ/mol]
      Disp20                      -14.38047240 [mEh]      -9.02388267 [kcal/mol]     -37.75592508 [kJ/mol]
      Exch-Disp20                   2.39523758 [mEh]       1.50303428 [kcal/mol]       6.28869541 [kJ/mol]
      Disp20 (SS)                  -7.19023620 [mEh]      -4.51194133 [kcal/mol]     -18.87796254 [kJ/mol]
      Disp20 (OS)                  -7.19023620 [mEh]      -4.51194133 [kcal/mol]     -18.87796254 [kJ/mol]
      Exch-Disp20 (SS)              1.49908651 [mEh]       0.94069098 [kcal/mol]       3.93585108 [kJ/mol]
      Exch-Disp20 (OS)              0.89615108 [mEh]       0.56234329 [kcal/mol]       2.35284433 [kJ/mol]

  Total HF                         -9.80571040 [mEh]      -6.15317618 [kcal/mol]     -25.74488912 [kJ/mol]
  Total SAPT0                     -21.79094522 [mEh]     -13.67402457 [kcal/mol]     -57.21211878 [kJ/mol]

  Special recipe for scaled SAPT0 (see Manual):
    Electrostatics sSAPT0         -29.76604772 [mEh]     -18.67847694 [kcal/mol]     -78.15074752 [kJ/mol]
    Exchange sSAPT0                29.96852877 [mEh]      18.80553572 [kcal/mol]      78.68236144 [kJ/mol]
    Induction sSAPT0               -9.76359924 [mEh]      -6.12675102 [kcal/mol]     -25.63432627 [kJ/mol]
    Dispersion sSAPT0             -11.91753459 [mEh]      -7.47836586 [kcal/mol]     -31.28948275 [kJ/mol]
  Total sSAPT0                    -21.47865277 [mEh]     -13.47805810 [kcal/mol]     -56.39219509 [kJ/mol]
  --------------------------------------------------------------------------------------------------------

*** tstop() called on r282 at Fri Sep 10 11:49:18 2021
Module time:
	user time   =     253.37 seconds =       4.22 minutes
	system time =      36.16 seconds =       0.60 minutes
	total time  =        290 seconds =       4.83 minutes
Total time:
	user time   =     552.76 seconds =       9.21 minutes
	system time =      41.13 seconds =       0.69 minutes
	total time  =        594 seconds =       9.90 minutes

    Psi4 stopped on: Friday, 10 September 2021 11:49AM
    Psi4 wall time for execution: 0:09:54.66

*** Psi4 exiting successfully. Buy a developer a beer!
