
    -----------------------------------------------------------------------
          Psi4: An Open-Source Ab Initio Electronic Structure Package
                               Psi4 1.3.2 release

                         Git: Rev {HEAD} ecbda83 


    R. M. Parrish, L. A. Burns, D. G. A. Smith, A. C. Simmonett,
    A. E. DePrince III, E. G. Hohenstein, U. Bozkaya, A. Yu. Sokolov,
    R. Di Remigio, R. M. Richard, J. F. Gonthier, A. M. James,
    H. R. McAlexander, A. Kumar, M. Saitow, X. Wang, B. P. Pritchard,
    P. Verma, H. F. Schaefer III, K. Patkowski, R. A. King, E. F. Valeev,
    F. A. Evangelista, J. M. Turney, T. D. Crawford, and C. D. Sherrill,
    J. Chem. Theory Comput. 13(7) pp 3185--3197 (2017).
    (doi: 10.1021/acs.jctc.7b00174)


                         Additional Contributions by
    P. Kraus, H. Kruse, M. H. Lechner, M. C. Schieber, R. A. Shaw,
    A. Alenaizan, R. Galvelis, Z. L. Glick, S. Lehtola, and J. P. Misiewicz

    -----------------------------------------------------------------------


    Psi4 started on: Friday, 10 September 2021 11:09AM

    Process ID: 56527
    Host:       r282
    PSIDATADIR: /home/r08543048/miniconda3/share/psi4
    Memory:     500.0 MiB
    Threads:    1
    
  ==> Input File <==

--------------------------------------------------------------------------
# Any line starting with the # character is a comment line
#! Sample  computation

memory 22 gb

molecule Dimer {
0 1
 C -2.634101    0.254117    0.418464
 O -1.867176   -0.238491    1.241773
 N -2.452571    0.228958   -0.915713
 H -3.123806    0.661924   -1.522530
 H -1.618019   -0.203678   -1.295061
 H -3.555312    0.766110    0.725347
  
 
    
 
 
 
 
 
 
 
 
  

 
 
     

    
    
 --
0 1
 C  2.044786   -0.459268    0.616723 
 C  1.388812   -1.437069   -0.346751
 H  1.428724   -0.391148    1.519627
 H  2.997830   -0.898656    0.925208
 O  0.015725   -1.153275   -0.604123
 H  1.891200   -1.406228   -1.315211
 H  1.485885   -2.454462    0.044607
 H -0.437922   -1.005979    0.247349 
 C  2.304417    0.939277    0.060540 
 H  2.907535    1.487981    0.787647
 H  2.916990    0.852317   -0.841514 
 C  1.047292    1.747047   -0.248669 
 H  0.389095    1.782994    0.621051
 
H  1.304853    2.770703   -0.521716
 H  0.485315    1.304928   -1.067859 
 
 







units angstrom

no_reorient
symmetry c1
}

set globals{
  basis jun-cc-pvtz
}

energy('sapt0')


--------------------------------------------------------------------------

  Memory set to  20.489 GiB by Python driver.

  //>>>>>>>>>>>>>>>>>>>>>>>>>>>>>>>>>>>//
  //              Dimer HF             //
  //<<<<<<<<<<<<<<<<<<<<<<<<<<<<<<<<<<<//


*** tstart() called on r282
*** at Fri Sep 10 11:09:02 2021

   => Loading Basis Set <=

    Name: JUN-CC-PVTZ
    Role: ORBITAL
    Keyword: BASIS
    atoms 1, 7-8, 15, 18                 entry C          line   217 file /home/r08543048/miniconda3/share/psi4/basis/jun-cc-pvtz.gbs 
    atoms 2, 11                          entry O          line   305 file /home/r08543048/miniconda3/share/psi4/basis/jun-cc-pvtz.gbs 
    atoms 3                              entry N          line   261 file /home/r08543048/miniconda3/share/psi4/basis/jun-cc-pvtz.gbs 
    atoms 4-6, 9-10, 12-14, 16-17, 19-21 entry H          line    36 file /home/r08543048/miniconda3/share/psi4/basis/jun-cc-pvtz.gbs 


         ---------------------------------------------------------
                                   SCF
               by Justin Turney, Rob Parrish, Andy Simmonett
                          and Daniel G. A. Smith
                              RHF Reference
                        1 Threads,  20980 MiB Core
         ---------------------------------------------------------

  ==> Geometry <==

    Molecular point group: c1
    Full point group: C1

    Geometry (in Angstrom), charge = 0, multiplicity = 1:

       Center              X                  Y                   Z               Mass       
    ------------   -----------------  -----------------  -----------------  -----------------
         C           -2.575196980124     0.281267222446     0.404410123598    12.000000000000
         O           -1.808271980124    -0.211340777554     1.227719123598    15.994914619570
         N           -2.393666980124     0.256108222446    -0.929766876402    14.003074004430
         H           -3.064901980124     0.689074222446    -1.536583876402     1.007825032230
         H           -1.559114980124    -0.176527777554    -1.309114876402     1.007825032230
         H           -3.496407980124     0.793260222446     0.711293123598     1.007825032230
         C            2.103690019876    -0.432117777554     0.602669123598    12.000000000000
         C            1.447716019876    -1.409918777554    -0.360804876402    12.000000000000
         H            1.487628019876    -0.363997777554     1.505573123598     1.007825032230
         H            3.056734019876    -0.871505777554     0.911154123598     1.007825032230
         O            0.074629019876    -1.126124777554    -0.618176876402    15.994914619570
         H            1.950104019876    -1.379077777554    -1.329264876402     1.007825032230
         H            1.544789019876    -2.427311777554     0.030553123598     1.007825032230
         H           -0.379017980124    -0.978828777554     0.233295123598     1.007825032230
         C            2.363321019876     0.966427222446     0.046486123598    12.000000000000
         H            2.966439019876     1.515131222446     0.773593123598     1.007825032230
         H            2.975894019876     0.879467222446    -0.855567876402     1.007825032230
         C            1.106196019876     1.774197222446    -0.262722876402    12.000000000000
         H            0.447999019876     1.810144222446     0.606997123598     1.007825032230
         H            1.363757019876     2.797853222446    -0.535769876402     1.007825032230
         H            0.544219019876     1.332078222446    -1.081912876402     1.007825032230

  Running in c1 symmetry.

  Rotational constants: A =      0.08938  B =      0.03382  C =      0.03012 [cm^-1]
  Rotational constants: A =   2679.47108  B =   1014.01136  C =    903.11589 [MHz]
  Nuclear repulsion =  399.796607063408203

  Charge       = 0
  Multiplicity = 1
  Electrons    = 66
  Nalpha       = 33
  Nbeta        = 33

  ==> Algorithm <==

  SCF Algorithm Type is DF.
  DIIS enabled.
  MOM disabled.
  Fractional occupation disabled.
  Guess Type is SAD.
  Energy threshold   = 1.00e-08
  Density threshold  = 1.00e-08
  Integral threshold = 0.00e+00

  ==> Primary Basis <==

  Basis Set: JUN-CC-PVTZ
    Blend: JUN-CC-PVTZ
    Number of shells: 182
    Number of basis function: 494
    Number of Cartesian functions: 555
    Spherical Harmonics?: true
    Max angular momentum: 3

   => Loading Basis Set <=

    Name: (JUN-CC-PVTZ AUX)
    Role: JKFIT
    Keyword: DF_BASIS_SCF
    atoms 1, 7-8, 15, 18                 entry C          line   152 file /home/r08543048/miniconda3/share/psi4/basis/jun-cc-pvtz-jkfit.gbs 
    atoms 2, 11                          entry O          line   272 file /home/r08543048/miniconda3/share/psi4/basis/jun-cc-pvtz-jkfit.gbs 
    atoms 3                              entry N          line   212 file /home/r08543048/miniconda3/share/psi4/basis/jun-cc-pvtz-jkfit.gbs 
    atoms 4-6, 9-10, 12-14, 16-17, 19-21 entry H          line    70 file /home/r08543048/miniconda3/share/psi4/basis/jun-cc-pvtz-jkfit.gbs 

  ==> Pre-Iterations <==

   -------------------------------------------------------
    Irrep   Nso     Nmo     Nalpha   Nbeta   Ndocc  Nsocc
   -------------------------------------------------------
     A        494     494       0       0       0       0
   -------------------------------------------------------
    Total     494     494      33      33      33       0
   -------------------------------------------------------

  ==> Integral Setup <==

  ==> DiskDFJK: Density-Fitted J/K Matrices <==

    J tasked:                  Yes
    K tasked:                  Yes
    wK tasked:                  No
    OpenMP threads:              1
    Integrals threads:           1
    Memory [MiB]:            15735
    Algorithm:                Core
    Integral Cache:           SAVE
    Schwarz Cutoff:          1E-12
    Fitting Condition:       1E-10

   => Auxiliary Basis Set <=

  Basis Set: (JUN-CC-PVTZ AUX)
    Blend: JUN-CC-PVTZ-JKFIT
    Number of shells: 362
    Number of basis function: 1150
    Number of Cartesian functions: 1383
    Spherical Harmonics?: true
    Max angular momentum: 4

  Minimum eigenvalue in the overlap matrix is 4.4991278335E-05.
  Using Symmetric Orthogonalization.

  SCF Guess: Superposition of Atomic Densities via on-the-fly atomic UHF.

  ==> Iterations <==

                           Total Energy        Delta E     RMS |[F,P]|

   @DF-RHF iter SAD:  -400.00734828570228   -4.00007e+02   0.00000e+00 
   @DF-RHF iter   1:  -400.92089803056001   -9.13550e-01   1.61598e-03 DIIS
   @DF-RHF iter   2:  -401.16526236697007   -2.44364e-01   9.15879e-04 DIIS
   @DF-RHF iter   3:  -401.24339927303635   -7.81369e-02   1.65315e-04 DIIS
   @DF-RHF iter   4:  -401.24748595924365   -4.08669e-03   7.29403e-05 DIIS
   @DF-RHF iter   5:  -401.24816027764211   -6.74318e-04   1.51192e-05 DIIS
   @DF-RHF iter   6:  -401.24821085719725   -5.05796e-05   5.73783e-06 DIIS
   @DF-RHF iter   7:  -401.24821896671949   -8.10952e-06   2.26775e-06 DIIS
   @DF-RHF iter   8:  -401.24822056184348   -1.59512e-06   9.84887e-07 DIIS
   @DF-RHF iter   9:  -401.24822089816263   -3.36319e-07   3.05955e-07 DIIS
   @DF-RHF iter  10:  -401.24822093473392   -3.65713e-08   1.02169e-07 DIIS
   @DF-RHF iter  11:  -401.24822093762089   -2.88696e-09   3.28226e-08 DIIS
   @DF-RHF iter  12:  -401.24822093791806   -2.97177e-10   1.04489e-08 DIIS
   @DF-RHF iter  13:  -401.24822093794285   -2.47837e-11   2.73224e-09 DIIS
  Energy and wave function converged.


  ==> Post-Iterations <==

    Orbital Energies [Eh]
    ---------------------

    Doubly Occupied:                                                      

       1A    -20.537367     2A    -20.536096     3A    -15.593023  
       4A    -11.363554     5A    -11.262776     6A    -11.211811  
       7A    -11.211191     8A    -11.198690     9A     -1.389546  
      10A     -1.341507    11A     -1.222977    12A     -1.061444  
      13A     -0.966196    14A     -0.865154    15A     -0.852103  
      16A     -0.785026    17A     -0.754287    18A     -0.689885  
      19A     -0.656282    20A     -0.636338    21A     -0.619215  
      22A     -0.610572    23A     -0.578808    24A     -0.574941  
      25A     -0.556077    26A     -0.526872    27A     -0.496740  
      28A     -0.489344    29A     -0.466051    30A     -0.454562  
      31A     -0.442059    32A     -0.424207    33A     -0.416604  

    Virtual:                                                              

      34A      0.047590    35A      0.057794    36A      0.060525  
      37A      0.063543    38A      0.072025    39A      0.075793  
      40A      0.084289    41A      0.094475    42A      0.096115  
      43A      0.109086    44A      0.114563    45A      0.118881  
      46A      0.123251    47A      0.132924    48A      0.141505  
      49A      0.150787    50A      0.155159    51A      0.158444  
      52A      0.164025    53A      0.180850    54A      0.190488  
      55A      0.202381    56A      0.209126    57A      0.209556  
      58A      0.223589    59A      0.238914    60A      0.243922  
      61A      0.246206    62A      0.261476    63A      0.267082  
      64A      0.270762    65A      0.276513    66A      0.282288  
      67A      0.293670    68A      0.297910    69A      0.307219  
      70A      0.310481    71A      0.315458    72A      0.320822  
      73A      0.322355    74A      0.331799    75A      0.346477  
      76A      0.349832    77A      0.355933    78A      0.359279  
      79A      0.370616    80A      0.375737    81A      0.377980  
      82A      0.385879    83A      0.395088    84A      0.397394  
      85A      0.407313    86A      0.419024    87A      0.430883  
      88A      0.438720    89A      0.445041    90A      0.452567  
      91A      0.458973    92A      0.464531    93A      0.474899  
      94A      0.490819    95A      0.497232    96A      0.499654  
      97A      0.504355    98A      0.521983    99A      0.536418  
     100A      0.540888   101A      0.543401   102A      0.551084  
     103A      0.554543   104A      0.561428   105A      0.569497  
     106A      0.578656   107A      0.583333   108A      0.586647  
     109A      0.593634   110A      0.600093   111A      0.611071  
     112A      0.615567   113A      0.636859   114A      0.645853  
     115A      0.657588   116A      0.661826   117A      0.683751  
     118A      0.694455   119A      0.705518   120A      0.710012  
     121A      0.713939   122A      0.722524   123A      0.738103  
     124A      0.752037   125A      0.762616   126A      0.773022  
     127A      0.780460   128A      0.788247   129A      0.792444  
     130A      0.810565   131A      0.816007   132A      0.821198  
     133A      0.825189   134A      0.844043   135A      0.849843  
     136A      0.860324   137A      0.867055   138A      0.880648  
     139A      0.887141   140A      0.894438   141A      0.899821  
     142A      0.912400   143A      0.922903   144A      0.924950  
     145A      0.935590   146A      0.954600   147A      0.972564  
     148A      0.982240   149A      0.990577   150A      0.998329  
     151A      1.007052   152A      1.022729   153A      1.042437  
     154A      1.047579   155A      1.057986   156A      1.078027  
     157A      1.089380   158A      1.098051   159A      1.117543  
     160A      1.124559   161A      1.144265   162A      1.164596  
     163A      1.175658   164A      1.178650   165A      1.198360  
     166A      1.220777   167A      1.225050   168A      1.247636  
     169A      1.257353   170A      1.258374   171A      1.279045  
     172A      1.301176   173A      1.303221   174A      1.324641  
     175A      1.328641   176A      1.331533   177A      1.347104  
     178A      1.358047   179A      1.368689   180A      1.373370  
     181A      1.382621   182A      1.390764   183A      1.406401  
     184A      1.409943   185A      1.417903   186A      1.429351  
     187A      1.447051   188A      1.454268   189A      1.466170  
     190A      1.469421   191A      1.490295   192A      1.514887  
     193A      1.521478   194A      1.530994   195A      1.540079  
     196A      1.557945   197A      1.565131   198A      1.570818  
     199A      1.586443   200A      1.598831   201A      1.605020  
     202A      1.620267   203A      1.638172   204A      1.642367  
     205A      1.653463   206A      1.666816   207A      1.682106  
     208A      1.688078   209A      1.698731   210A      1.705837  
     211A      1.709913   212A      1.732487   213A      1.737068  
     214A      1.752075   215A      1.774196   216A      1.785411  
     217A      1.808356   218A      1.821060   219A      1.843555  
     220A      1.846118   221A      1.862418   222A      1.883943  
     223A      1.888969   224A      1.909365   225A      1.921549  
     226A      1.950765   227A      1.956603   228A      1.974326  
     229A      1.986883   230A      1.991962   231A      2.058690  
     232A      2.087572   233A      2.106966   234A      2.128608  
     235A      2.181854   236A      2.202970   237A      2.270207  
     238A      2.328445   239A      2.348704   240A      2.364052  
     241A      2.401165   242A      2.414570   243A      2.486655  
     244A      2.502159   245A      2.538214   246A      2.592553  
     247A      2.608696   248A      2.706583   249A      2.718761  
     250A      2.758242   251A      2.806910   252A      2.814112  
     253A      2.825773   254A      2.862271   255A      2.871214  
     256A      2.893110   257A      2.904378   258A      2.930427  
     259A      2.942023   260A      2.969333   261A      2.993413  
     262A      3.027097   263A      3.057244   264A      3.066892  
     265A      3.081831   266A      3.093461   267A      3.100356  
     268A      3.130816   269A      3.134556   270A      3.155744  
     271A      3.159790   272A      3.173261   273A      3.185447  
     274A      3.203005   275A      3.207418   276A      3.222835  
     277A      3.251205   278A      3.270466   279A      3.288223  
     280A      3.290976   281A      3.326688   282A      3.338100  
     283A      3.381436   284A      3.389461   285A      3.399151  
     286A      3.413195   287A      3.425698   288A      3.431879  
     289A      3.440638   290A      3.444790   291A      3.453772  
     292A      3.462778   293A      3.467278   294A      3.478163  
     295A      3.498834   296A      3.501615   297A      3.512650  
     298A      3.517730   299A      3.524400   300A      3.528807  
     301A      3.536454   302A      3.545218   303A      3.551276  
     304A      3.563520   305A      3.572771   306A      3.584660  
     307A      3.594130   308A      3.597897   309A      3.608815  
     310A      3.633526   311A      3.639609   312A      3.664218  
     313A      3.675350   314A      3.711743   315A      3.719465  
     316A      3.736983   317A      3.751013   318A      3.771123  
     319A      3.784934   320A      3.791114   321A      3.808377  
     322A      3.824063   323A      3.827823   324A      3.835127  
     325A      3.850430   326A      3.860641   327A      3.883894  
     328A      3.890604   329A      3.907941   330A      3.934696  
     331A      3.944555   332A      3.959515   333A      3.968479  
     334A      3.970236   335A      3.985698   336A      4.006092  
     337A      4.006936   338A      4.015963   339A      4.047091  
     340A      4.072010   341A      4.109253   342A      4.129405  
     343A      4.147750   344A      4.159480   345A      4.167119  
     346A      4.187257   347A      4.196843   348A      4.237964  
     349A      4.239610   350A      4.251803   351A      4.261730  
     352A      4.270701   353A      4.273671   354A      4.280439  
     355A      4.296300   356A      4.321041   357A      4.328403  
     358A      4.358298   359A      4.365726   360A      4.373489  
     361A      4.398484   362A      4.400207   363A      4.406123  
     364A      4.413977   365A      4.433070   366A      4.450347  
     367A      4.452890   368A      4.461935   369A      4.482030  
     370A      4.485058   371A      4.504131   372A      4.523256  
     373A      4.542562   374A      4.549401   375A      4.561652  
     376A      4.573309   377A      4.583547   378A      4.588482  
     379A      4.602804   380A      4.614854   381A      4.634547  
     382A      4.644417   383A      4.665463   384A      4.667694  
     385A      4.674597   386A      4.695726   387A      4.709454  
     388A      4.724444   389A      4.743120   390A      4.776700  
     391A      4.787514   392A      4.795210   393A      4.825371  
     394A      4.850891   395A      4.852251   396A      4.871975  
     397A      4.895082   398A      4.926446   399A      4.938830  
     400A      4.977162   401A      5.004374   402A      5.016390  
     403A      5.045037   404A      5.060403   405A      5.091367  
     406A      5.110220   407A      5.125770   408A      5.157072  
     409A      5.198994   410A      5.210225   411A      5.213668  
     412A      5.228453   413A      5.234909   414A      5.263287  
     415A      5.281823   416A      5.305918   417A      5.315513  
     418A      5.318457   419A      5.327608   420A      5.372349  
     421A      5.384071   422A      5.410516   423A      5.430049  
     424A      5.441288   425A      5.470376   426A      5.488448  
     427A      5.502023   428A      5.522449   429A      5.565602  
     430A      5.579265   431A      5.592873   432A      5.618704  
     433A      5.663379   434A      5.669056   435A      5.727316  
     436A      5.771384   437A      5.779602   438A      5.808808  
     439A      5.822532   440A      5.832413   441A      5.860234  
     442A      5.861769   443A      5.884252   444A      5.912638  
     445A      5.940412   446A      5.966149   447A      5.976723  
     448A      5.989601   449A      5.995854   450A      6.023395  
     451A      6.041412   452A      6.063131   453A      6.085669  
     454A      6.110534   455A      6.158335   456A      6.215205  
     457A      6.246420   458A      6.319070   459A      6.381448  
     460A      6.451766   461A      6.529102   462A      6.548527  
     463A      6.580089   464A      6.581431   465A      6.599047  
     466A      6.643704   467A      6.676240   468A      6.765023  
     469A      6.961416   470A      6.987023   471A      7.053802  
     472A      7.165964   473A      7.202106   474A      7.248047  
     475A      7.341071   476A      7.363419   477A      7.430164  
     478A      7.447377   479A      7.502853   480A      7.564759  
     481A      7.611681   482A      7.729742   483A      7.776960  
     484A      7.820270   485A      7.967907   486A      8.229617  
     487A     12.776232   488A     13.645977   489A     13.822528  
     490A     14.009644   491A     14.128920   492A     14.201434  
     493A     14.715027   494A     15.813649  

    Final Occupation by Irrep:
              A 
    DOCC [    33 ]

  @DF-RHF Final Energy:  -401.24822093794285

   => Energetics <=

    Nuclear Repulsion Energy =            399.7966070634082030
    One-Electron Energy =               -1340.5070407322129995
    Two-Electron Energy =                 539.4622127308620065
    Total Energy =                       -401.2482209379428468

Computation Completed


Properties will be evaluated at   0.000000,   0.000000,   0.000000 [a0]

Properties computed using the SCF density matrix

  Nuclear Dipole Moment: [e a0]
     X:     7.3466      Y:     3.3862      Z:    -1.7528

  Electronic Dipole Moment: [e a0]
     X:    -7.8768      Y:    -2.8194      Z:     1.0194

  Dipole Moment: [e a0]
     X:    -0.5302      Y:     0.5668      Z:    -0.7335     Total:     1.0679

  Dipole Moment: [D]
     X:    -1.3476      Y:     1.4407      Z:    -1.8643     Total:     2.7142


*** tstop() called on r282 at Fri Sep 10 11:10:09 2021
Module time:
	user time   =      65.13 seconds =       1.09 minutes
	system time =       1.40 seconds =       0.02 minutes
	total time  =         67 seconds =       1.12 minutes
Total time:
	user time   =      65.13 seconds =       1.09 minutes
	system time =       1.40 seconds =       0.02 minutes
	total time  =         67 seconds =       1.12 minutes

  //>>>>>>>>>>>>>>>>>>>>>>>>>>>>>>>>>>>//
  //            Monomer A HF           //
  //<<<<<<<<<<<<<<<<<<<<<<<<<<<<<<<<<<<//


*** tstart() called on r282
*** at Fri Sep 10 11:10:09 2021

   => Loading Basis Set <=

    Name: JUN-CC-PVTZ
    Role: ORBITAL
    Keyword: BASIS
    atoms 1, 7-8, 15, 18                 entry C          line   217 file /home/r08543048/miniconda3/share/psi4/basis/jun-cc-pvtz.gbs 
    atoms 2, 11                          entry O          line   305 file /home/r08543048/miniconda3/share/psi4/basis/jun-cc-pvtz.gbs 
    atoms 3                              entry N          line   261 file /home/r08543048/miniconda3/share/psi4/basis/jun-cc-pvtz.gbs 
    atoms 4-6, 9-10, 12-14, 16-17, 19-21 entry H          line    36 file /home/r08543048/miniconda3/share/psi4/basis/jun-cc-pvtz.gbs 


         ---------------------------------------------------------
                                   SCF
               by Justin Turney, Rob Parrish, Andy Simmonett
                          and Daniel G. A. Smith
                              RHF Reference
                        1 Threads,  20980 MiB Core
         ---------------------------------------------------------

  ==> Geometry <==

    Molecular point group: c1
    Full point group: C1

    Geometry (in Angstrom), charge = 0, multiplicity = 1:

       Center              X                  Y                   Z               Mass       
    ------------   -----------------  -----------------  -----------------  -----------------
         C           -2.575196980124     0.281267222446     0.404410123598    12.000000000000
         O           -1.808271980124    -0.211340777554     1.227719123598    15.994914619570
         N           -2.393666980124     0.256108222446    -0.929766876402    14.003074004430
         H           -3.064901980124     0.689074222446    -1.536583876402     1.007825032230
         H           -1.559114980124    -0.176527777554    -1.309114876402     1.007825032230
         H           -3.496407980124     0.793260222446     0.711293123598     1.007825032230
      Gh(C)           2.103690019876    -0.432117777554     0.602669123598    12.000000000000
      Gh(C)           1.447716019876    -1.409918777554    -0.360804876402    12.000000000000
      Gh(H)           1.487628019876    -0.363997777554     1.505573123598     1.007825032230
      Gh(H)           3.056734019876    -0.871505777554     0.911154123598     1.007825032230
      Gh(O)           0.074629019876    -1.126124777554    -0.618176876402    15.994914619570
      Gh(H)           1.950104019876    -1.379077777554    -1.329264876402     1.007825032230
      Gh(H)           1.544789019876    -2.427311777554     0.030553123598     1.007825032230
      Gh(H)          -0.379017980124    -0.978828777554     0.233295123598     1.007825032230
      Gh(C)           2.363321019876     0.966427222446     0.046486123598    12.000000000000
      Gh(H)           2.966439019876     1.515131222446     0.773593123598     1.007825032230
      Gh(H)           2.975894019876     0.879467222446    -0.855567876402     1.007825032230
      Gh(C)           1.106196019876     1.774197222446    -0.262722876402    12.000000000000
      Gh(H)           0.447999019876     1.810144222446     0.606997123598     1.007825032230
      Gh(H)           1.363757019876     2.797853222446    -0.535769876402     1.007825032230
      Gh(H)           0.544219019876     1.332078222446    -1.081912876402     1.007825032230

  Running in c1 symmetry.

  Rotational constants: A =      0.08938  B =      0.03382  C =      0.03012 [cm^-1]
  Rotational constants: A =   2679.47108  B =   1014.01136  C =    903.11589 [MHz]
  Nuclear repulsion =   71.106824732874827

  Charge       = 0
  Multiplicity = 1
  Electrons    = 24
  Nalpha       = 12
  Nbeta        = 12

  ==> Algorithm <==

  SCF Algorithm Type is DF.
  DIIS enabled.
  MOM disabled.
  Fractional occupation disabled.
  Guess Type is SAD.
  Energy threshold   = 1.00e-08
  Density threshold  = 1.00e-08
  Integral threshold = 0.00e+00

  ==> Primary Basis <==

  Basis Set: JUN-CC-PVTZ
    Blend: JUN-CC-PVTZ
    Number of shells: 182
    Number of basis function: 494
    Number of Cartesian functions: 555
    Spherical Harmonics?: true
    Max angular momentum: 3

   => Loading Basis Set <=

    Name: (JUN-CC-PVTZ AUX)
    Role: JKFIT
    Keyword: DF_BASIS_SCF
    atoms 1, 7-8, 15, 18                 entry C          line   152 file /home/r08543048/miniconda3/share/psi4/basis/jun-cc-pvtz-jkfit.gbs 
    atoms 2, 11                          entry O          line   272 file /home/r08543048/miniconda3/share/psi4/basis/jun-cc-pvtz-jkfit.gbs 
    atoms 3                              entry N          line   212 file /home/r08543048/miniconda3/share/psi4/basis/jun-cc-pvtz-jkfit.gbs 
    atoms 4-6, 9-10, 12-14, 16-17, 19-21 entry H          line    70 file /home/r08543048/miniconda3/share/psi4/basis/jun-cc-pvtz-jkfit.gbs 

  ==> Pre-Iterations <==

   -------------------------------------------------------
    Irrep   Nso     Nmo     Nalpha   Nbeta   Ndocc  Nsocc
   -------------------------------------------------------
     A        494     494       0       0       0       0
   -------------------------------------------------------
    Total     494     494      12      12      12       0
   -------------------------------------------------------

  ==> Integral Setup <==

  ==> DiskDFJK: Density-Fitted J/K Matrices <==

    J tasked:                  Yes
    K tasked:                  Yes
    wK tasked:                  No
    OpenMP threads:              1
    Integrals threads:           1
    Memory [MiB]:            15735
    Algorithm:                Core
    Integral Cache:           LOAD
    Schwarz Cutoff:          1E-12
    Fitting Condition:       1E-10

   => Auxiliary Basis Set <=

  Basis Set: (JUN-CC-PVTZ AUX)
    Blend: JUN-CC-PVTZ-JKFIT
    Number of shells: 362
    Number of basis function: 1150
    Number of Cartesian functions: 1383
    Spherical Harmonics?: true
    Max angular momentum: 4

  Minimum eigenvalue in the overlap matrix is 4.4991278335E-05.
  Using Symmetric Orthogonalization.

  SCF Guess: Superposition of Atomic Densities via on-the-fly atomic UHF.

  ==> Iterations <==

                           Total Energy        Delta E     RMS |[F,P]|

   @DF-RHF iter SAD:  -168.21446283610197   -1.68214e+02   0.00000e+00 
   @DF-RHF iter   1:  -168.87960220681282   -6.65139e-01   1.08329e-03 DIIS
   @DF-RHF iter   2:  -168.95566564572269   -7.60634e-02   7.54423e-04 DIIS
   @DF-RHF iter   3:  -169.00114479318864   -4.54791e-02   1.06039e-04 DIIS
   @DF-RHF iter   4:  -169.00259689648180   -1.45210e-03   4.53030e-05 DIIS
   @DF-RHF iter   5:  -169.00289680514877   -2.99909e-04   9.30895e-06 DIIS
   @DF-RHF iter   6:  -169.00292794275083   -3.11376e-05   4.46155e-06 DIIS
   @DF-RHF iter   7:  -169.00293452434622   -6.58160e-06   1.80424e-06 DIIS
   @DF-RHF iter   8:  -169.00293567012127   -1.14578e-06   5.39019e-07 DIIS
   @DF-RHF iter   9:  -169.00293577557190   -1.05451e-07   1.47703e-07 DIIS
   @DF-RHF iter  10:  -169.00293578374237   -8.17047e-09   3.61120e-08 DIIS
   @DF-RHF iter  11:  -169.00293578413914   -3.96767e-10   6.33753e-09 DIIS
  Energy and wave function converged.


  ==> Post-Iterations <==

    Orbital Energies [Eh]
    ---------------------

    Doubly Occupied:                                                      

       1A    -20.528022     2A    -15.601097     3A    -11.357519  
       4A     -1.377073     5A     -1.225915     6A     -0.855039  
       7A     -0.756543     8A     -0.677009     9A     -0.604415  
      10A     -0.571079    11A     -0.436049    12A     -0.421975  

    Virtual:                                                              

      13A      0.032055    14A      0.045802    15A      0.048370  
      16A      0.059299    17A      0.068683    18A      0.073488  
      19A      0.081972    20A      0.087777    21A      0.090144  
      22A      0.108283    23A      0.109935    24A      0.113576  
      25A      0.117571    26A      0.121882    27A      0.131434  
      28A      0.140805    29A      0.149332    30A      0.153687  
      31A      0.156365    32A      0.159861    33A      0.167423  
      34A      0.176454    35A      0.185429    36A      0.192267  
      37A      0.199857    38A      0.215701    39A      0.223240  
      40A      0.233920    41A      0.241653    42A      0.249691  
      43A      0.260254    44A      0.266702    45A      0.269807  
      46A      0.282237    47A      0.283728    48A      0.292510  
      49A      0.301349    50A      0.304655    51A      0.308828  
      52A      0.311941    53A      0.325853    54A      0.341831  
      55A      0.347097    56A      0.360408    57A      0.367326  
      58A      0.372254    59A      0.378951    60A      0.388914  
      61A      0.397208    62A      0.404031    63A      0.413069  
      64A      0.419304    65A      0.421706    66A      0.440193  
      67A      0.443379    68A      0.452553    69A      0.453962  
      70A      0.471055    71A      0.473762    72A      0.485806  
      73A      0.493827    74A      0.498689    75A      0.506292  
      76A      0.518557    77A      0.523038    78A      0.531956  
      79A      0.540141    80A      0.551808    81A      0.559713  
      82A      0.562232    83A      0.567964    84A      0.575213  
      85A      0.580545    86A      0.588352    87A      0.592104  
      88A      0.604254    89A      0.611816    90A      0.618820  
      91A      0.625624    92A      0.631963    93A      0.636948  
      94A      0.648292    95A      0.650447    96A      0.660050  
      97A      0.663627    98A      0.670519    99A      0.679208  
     100A      0.687710   101A      0.708591   102A      0.722157  
     103A      0.738821   104A      0.744086   105A      0.761197  
     106A      0.770769   107A      0.793390   108A      0.804661  
     109A      0.818942   110A      0.839229   111A      0.850685  
     112A      0.854343   113A      0.866623   114A      0.885189  
     115A      0.889984   116A      0.914502   117A      0.926073  
     118A      0.958403   119A      0.965163   120A      0.972967  
     121A      1.005327   122A      1.007628   123A      1.037912  
     124A      1.051101   125A      1.056120   126A      1.070217  
     127A      1.076710   128A      1.091908   129A      1.099497  
     130A      1.104700   131A      1.122482   132A      1.136147  
     133A      1.145953   134A      1.164958   135A      1.169311  
     136A      1.177946   137A      1.202791   138A      1.211285  
     139A      1.217394   140A      1.221475   141A      1.235379  
     142A      1.243554   143A      1.258924   144A      1.261860  
     145A      1.271528   146A      1.283904   147A      1.284920  
     148A      1.291930   149A      1.305779   150A      1.316188  
     151A      1.325394   152A      1.327306   153A      1.339984  
     154A      1.347510   155A      1.356824   156A      1.364918  
     157A      1.376361   158A      1.384216   159A      1.394111  
     160A      1.397198   161A      1.417190   162A      1.424434  
     163A      1.439221   164A      1.450549   165A      1.455912  
     166A      1.464044   167A      1.475869   168A      1.483269  
     169A      1.493349   170A      1.498424   171A      1.526914  
     172A      1.536135   173A      1.556632   174A      1.568248  
     175A      1.582420   176A      1.586016   177A      1.606455  
     178A      1.615444   179A      1.629878   180A      1.636360  
     181A      1.654320   182A      1.670967   183A      1.676910  
     184A      1.689462   185A      1.707452   186A      1.729668  
     187A      1.742420   188A      1.748960   189A      1.768066  
     190A      1.783992   191A      1.786532   192A      1.803458  
     193A      1.813238   194A      1.843994   195A      1.852494  
     196A      1.869640   197A      1.881019   198A      1.893879  
     199A      1.913086   200A      1.915796   201A      1.938546  
     202A      1.953956   203A      1.995286   204A      2.005114  
     205A      2.034460   206A      2.053197   207A      2.074966  
     208A      2.112675   209A      2.120382   210A      2.153546  
     211A      2.162811   212A      2.193930   213A      2.206029  
     214A      2.217612   215A      2.245164   216A      2.279088  
     217A      2.286680   218A      2.302447   219A      2.349867  
     220A      2.376635   221A      2.396132   222A      2.400305  
     223A      2.421281   224A      2.441679   225A      2.470633  
     226A      2.499838   227A      2.520783   228A      2.534559  
     229A      2.549768   230A      2.562145   231A      2.592746  
     232A      2.609758   233A      2.639437   234A      2.674655  
     235A      2.726178   236A      2.732036   237A      2.757755  
     238A      2.843460   239A      2.880269   240A      2.921478  
     241A      2.945014   242A      3.038924   243A      3.076945  
     244A      3.096693   245A      3.143932   246A      3.170805  
     247A      3.180321   248A      3.224561   249A      3.289342  
     250A      3.364234   251A      3.411040   252A      3.424188  
     253A      3.450499   254A      3.462140   255A      3.489833  
     256A      3.493292   257A      3.504428   258A      3.510295  
     259A      3.530386   260A      3.555454   261A      3.579352  
     262A      3.580996   263A      3.588277   264A      3.612080  
     265A      3.615575   266A      3.637214   267A      3.651176  
     268A      3.670577   269A      3.688900   270A      3.700966  
     271A      3.705796   272A      3.719519   273A      3.744796  
     274A      3.765484   275A      3.782261   276A      3.797986  
     277A      3.808730   278A      3.825632   279A      3.838329  
     280A      3.843749   281A      3.850300   282A      3.873151  
     283A      3.880111   284A      3.885419   285A      3.904098  
     286A      3.916949   287A      3.938806   288A      3.941789  
     289A      3.962698   290A      3.966067   291A      3.980574  
     292A      3.987456   293A      4.003160   294A      4.033756  
     295A      4.069387   296A      4.093054   297A      4.115521  
     298A      4.119432   299A      4.137040   300A      4.155127  
     301A      4.168789   302A      4.188296   303A      4.204160  
     304A      4.219954   305A      4.247017   306A      4.254469  
     307A      4.267189   308A      4.288286   309A      4.302121  
     310A      4.313144   311A      4.342976   312A      4.371991  
     313A      4.384641   314A      4.388130   315A      4.412695  
     316A      4.416022   317A      4.425585   318A      4.443282  
     319A      4.452999   320A      4.476327   321A      4.494431  
     322A      4.500678   323A      4.518990   324A      4.531635  
     325A      4.545590   326A      4.550231   327A      4.563622  
     328A      4.577245   329A      4.588044   330A      4.603365  
     331A      4.627363   332A      4.632194   333A      4.642947  
     334A      4.644563   335A      4.663774   336A      4.676173  
     337A      4.696646   338A      4.702777   339A      4.716495  
     340A      4.724359   341A      4.740895   342A      4.749337  
     343A      4.761660   344A      4.780609   345A      4.783318  
     346A      4.794756   347A      4.797098   348A      4.831650  
     349A      4.836636   350A      4.844469   351A      4.854101  
     352A      4.863096   353A      4.880552   354A      4.888899  
     355A      4.900592   356A      4.914822   357A      4.916527  
     358A      4.945060   359A      4.950201   360A      4.972203  
     361A      4.975593   362A      4.991262   363A      4.996342  
     364A      5.007826   365A      5.021231   366A      5.026828  
     367A      5.033777   368A      5.048673   369A      5.062915  
     370A      5.075539   371A      5.092084   372A      5.109541  
     373A      5.110796   374A      5.134307   375A      5.147655  
     376A      5.159002   377A      5.171004   378A      5.188370  
     379A      5.194913   380A      5.209582   381A      5.224692  
     382A      5.249030   383A      5.258750   384A      5.280429  
     385A      5.287346   386A      5.322512   387A      5.338068  
     388A      5.350465   389A      5.367606   390A      5.431078  
     391A      5.450244   392A      5.460696   393A      5.488729  
     394A      5.528500   395A      5.539699   396A      5.573503  
     397A      5.597696   398A      5.610228   399A      5.642845  
     400A      5.668301   401A      5.691207   402A      5.744097  
     403A      5.754245   404A      5.762179   405A      5.840855  
     406A      5.863920   407A      5.882920   408A      5.913093  
     409A      5.940185   410A      5.968985   411A      5.979528  
     412A      5.987051   413A      6.007634   414A      6.047954  
     415A      6.051834   416A      6.074851   417A      6.096666  
     418A      6.137113   419A      6.146152   420A      6.162355  
     421A      6.226723   422A      6.241760   423A      6.253202  
     424A      6.302421   425A      6.350479   426A      6.382291  
     427A      6.393529   428A      6.408556   429A      6.455786  
     430A      6.468402   431A      6.487040   432A      6.557514  
     433A      6.582798   434A      6.666717   435A      6.670905  
     436A      6.737561   437A      6.776072   438A      6.810147  
     439A      6.932241   440A      6.950030   441A      6.960095  
     442A      6.996828   443A      7.142339   444A      7.179236  
     445A      7.256745   446A      7.303594   447A      7.335992  
     448A      7.371733   449A      7.444861   450A      7.455590  
     451A      7.461889   452A      7.533481   453A      7.550770  
     454A      7.606660   455A      7.629492   456A      7.688996  
     457A      7.704301   458A      7.710186   459A      7.748790  
     460A      7.757829   461A      7.777892   462A      7.826363  
     463A      7.837987   464A      7.875820   465A      7.912826  
     466A      7.964081   467A      7.991441   468A      8.116588  
     469A      8.250938   470A      8.351628   471A      8.386024  
     472A      8.549889   473A      8.751888   474A      9.553333  
     475A      9.582478   476A      9.655713   477A      9.831294  
     478A      9.883807   479A      9.970898   480A     10.073598  
     481A     10.186411   482A     10.456127   483A     11.247497  
     484A     11.739795   485A     12.794497   486A     12.839816  
     487A     13.672023   488A     14.175311   489A     15.801345  
     490A     43.789892   491A     44.314205   492A     45.235777  
     493A     45.823910   494A     61.614272  

    Final Occupation by Irrep:
              A 
    DOCC [    12 ]

  @DF-RHF Final Energy:  -169.00293578413914

   => Energetics <=

    Nuclear Repulsion Energy =             71.1068247328748271
    One-Electron Energy =                -371.3960475868500453
    Two-Electron Energy =                 131.2862870698360780
    Total Energy =                       -169.0029357841391402

Computation Completed


Properties will be evaluated at   0.000000,   0.000000,   0.000000 [a0]

Properties computed using the SCF density matrix

  Nuclear Dipole Moment: [e a0]
     X:  -103.5446      Y:     5.8495      Z:     6.8133

  Electronic Dipole Moment: [e a0]
     X:   102.7749      Y:    -5.2949      Z:    -8.2767

  Dipole Moment: [e a0]
     X:    -0.7697      Y:     0.5547      Z:    -1.4634     Total:     1.7440

  Dipole Moment: [D]
     X:    -1.9563      Y:     1.4098      Z:    -3.7195     Total:     4.4328


*** tstop() called on r282 at Fri Sep 10 11:10:43 2021
Module time:
	user time   =      33.61 seconds =       0.56 minutes
	system time =       0.58 seconds =       0.01 minutes
	total time  =         34 seconds =       0.57 minutes
Total time:
	user time   =      98.74 seconds =       1.65 minutes
	system time =       1.98 seconds =       0.03 minutes
	total time  =        101 seconds =       1.68 minutes

  //>>>>>>>>>>>>>>>>>>>>>>>>>>>>>>>>>>>//
  //            Monomer B HF           //
  //<<<<<<<<<<<<<<<<<<<<<<<<<<<<<<<<<<<//


*** tstart() called on r282
*** at Fri Sep 10 11:10:43 2021

   => Loading Basis Set <=

    Name: JUN-CC-PVTZ
    Role: ORBITAL
    Keyword: BASIS
    atoms 1, 7-8, 15, 18                 entry C          line   217 file /home/r08543048/miniconda3/share/psi4/basis/jun-cc-pvtz.gbs 
    atoms 2, 11                          entry O          line   305 file /home/r08543048/miniconda3/share/psi4/basis/jun-cc-pvtz.gbs 
    atoms 3                              entry N          line   261 file /home/r08543048/miniconda3/share/psi4/basis/jun-cc-pvtz.gbs 
    atoms 4-6, 9-10, 12-14, 16-17, 19-21 entry H          line    36 file /home/r08543048/miniconda3/share/psi4/basis/jun-cc-pvtz.gbs 


         ---------------------------------------------------------
                                   SCF
               by Justin Turney, Rob Parrish, Andy Simmonett
                          and Daniel G. A. Smith
                              RHF Reference
                        1 Threads,  20980 MiB Core
         ---------------------------------------------------------

  ==> Geometry <==

    Molecular point group: c1
    Full point group: C1

    Geometry (in Angstrom), charge = 0, multiplicity = 1:

       Center              X                  Y                   Z               Mass       
    ------------   -----------------  -----------------  -----------------  -----------------
      Gh(C)          -2.575196980124     0.281267222446     0.404410123598    12.000000000000
      Gh(O)          -1.808271980124    -0.211340777554     1.227719123598    15.994914619570
      Gh(N)          -2.393666980124     0.256108222446    -0.929766876402    14.003074004430
      Gh(H)          -3.064901980124     0.689074222446    -1.536583876402     1.007825032230
      Gh(H)          -1.559114980124    -0.176527777554    -1.309114876402     1.007825032230
      Gh(H)          -3.496407980124     0.793260222446     0.711293123598     1.007825032230
         C            2.103690019876    -0.432117777554     0.602669123598    12.000000000000
         C            1.447716019876    -1.409918777554    -0.360804876402    12.000000000000
         H            1.487628019876    -0.363997777554     1.505573123598     1.007825032230
         H            3.056734019876    -0.871505777554     0.911154123598     1.007825032230
         O            0.074629019876    -1.126124777554    -0.618176876402    15.994914619570
         H            1.950104019876    -1.379077777554    -1.329264876402     1.007825032230
         H            1.544789019876    -2.427311777554     0.030553123598     1.007825032230
         H           -0.379017980124    -0.978828777554     0.233295123598     1.007825032230
         C            2.363321019876     0.966427222446     0.046486123598    12.000000000000
         H            2.966439019876     1.515131222446     0.773593123598     1.007825032230
         H            2.975894019876     0.879467222446    -0.855567876402     1.007825032230
         C            1.106196019876     1.774197222446    -0.262722876402    12.000000000000
         H            0.447999019876     1.810144222446     0.606997123598     1.007825032230
         H            1.363757019876     2.797853222446    -0.535769876402     1.007825032230
         H            0.544219019876     1.332078222446    -1.081912876402     1.007825032230

  Running in c1 symmetry.

  Rotational constants: A =      0.08938  B =      0.03382  C =      0.03012 [cm^-1]
  Rotational constants: A =   2679.47108  B =   1014.01136  C =    903.11589 [MHz]
  Nuclear repulsion =  192.411337764499535

  Charge       = 0
  Multiplicity = 1
  Electrons    = 42
  Nalpha       = 21
  Nbeta        = 21

  ==> Algorithm <==

  SCF Algorithm Type is DF.
  DIIS enabled.
  MOM disabled.
  Fractional occupation disabled.
  Guess Type is SAD.
  Energy threshold   = 1.00e-08
  Density threshold  = 1.00e-08
  Integral threshold = 0.00e+00

  ==> Primary Basis <==

  Basis Set: JUN-CC-PVTZ
    Blend: JUN-CC-PVTZ
    Number of shells: 182
    Number of basis function: 494
    Number of Cartesian functions: 555
    Spherical Harmonics?: true
    Max angular momentum: 3

   => Loading Basis Set <=

    Name: (JUN-CC-PVTZ AUX)
    Role: JKFIT
    Keyword: DF_BASIS_SCF
    atoms 1, 7-8, 15, 18                 entry C          line   152 file /home/r08543048/miniconda3/share/psi4/basis/jun-cc-pvtz-jkfit.gbs 
    atoms 2, 11                          entry O          line   272 file /home/r08543048/miniconda3/share/psi4/basis/jun-cc-pvtz-jkfit.gbs 
    atoms 3                              entry N          line   212 file /home/r08543048/miniconda3/share/psi4/basis/jun-cc-pvtz-jkfit.gbs 
    atoms 4-6, 9-10, 12-14, 16-17, 19-21 entry H          line    70 file /home/r08543048/miniconda3/share/psi4/basis/jun-cc-pvtz-jkfit.gbs 

  ==> Pre-Iterations <==

   -------------------------------------------------------
    Irrep   Nso     Nmo     Nalpha   Nbeta   Ndocc  Nsocc
   -------------------------------------------------------
     A        494     494       0       0       0       0
   -------------------------------------------------------
    Total     494     494      21      21      21       0
   -------------------------------------------------------

  ==> Integral Setup <==

  ==> DiskDFJK: Density-Fitted J/K Matrices <==

    J tasked:                  Yes
    K tasked:                  Yes
    wK tasked:                  No
    OpenMP threads:              1
    Integrals threads:           1
    Memory [MiB]:            15735
    Algorithm:                Core
    Integral Cache:           LOAD
    Schwarz Cutoff:          1E-12
    Fitting Condition:       1E-10

   => Auxiliary Basis Set <=

  Basis Set: (JUN-CC-PVTZ AUX)
    Blend: JUN-CC-PVTZ-JKFIT
    Number of shells: 362
    Number of basis function: 1150
    Number of Cartesian functions: 1383
    Spherical Harmonics?: true
    Max angular momentum: 4

  Minimum eigenvalue in the overlap matrix is 4.4991278335E-05.
  Using Symmetric Orthogonalization.

  SCF Guess: Superposition of Atomic Densities via on-the-fly atomic UHF.

  ==> Iterations <==

                           Total Energy        Delta E     RMS |[F,P]|

   @DF-RHF iter SAD:  -231.56541160076205   -2.31565e+02   0.00000e+00 
   @DF-RHF iter   1:  -232.00766000203953   -4.42248e-01   1.27816e-03 DIIS
   @DF-RHF iter   2:  -232.18482795058299   -1.77168e-01   6.76358e-04 DIIS
   @DF-RHF iter   3:  -232.23240881399656   -4.75809e-02   1.16424e-04 DIIS
   @DF-RHF iter   4:  -232.23515169451593   -2.74288e-03   3.93027e-05 DIIS
   @DF-RHF iter   5:  -232.23536887054684   -2.17176e-04   1.00995e-05 DIIS
   @DF-RHF iter   6:  -232.23538641926856   -1.75487e-05   2.29516e-06 DIIS
   @DF-RHF iter   7:  -232.23538775067482   -1.33141e-06   5.60904e-07 DIIS
   @DF-RHF iter   8:  -232.23538783685063   -8.61758e-08   1.81305e-07 DIIS
   @DF-RHF iter   9:  -232.23538784611949   -9.26886e-09   5.12206e-08 DIIS
   @DF-RHF iter  10:  -232.23538784695853   -8.39037e-10   1.16330e-08 DIIS
   @DF-RHF iter  11:  -232.23538784699736   -3.88241e-11   2.87339e-09 DIIS
  Energy and wave function converged.


  ==> Post-Iterations <==

    Orbital Energies [Eh]
    ---------------------

    Doubly Occupied:                                                      

       1A    -20.553799     2A    -11.271452     3A    -11.222588  
       4A    -11.218510     5A    -11.204325     6A     -1.351780  
       7A     -1.069765     8A     -0.973296     9A     -0.868514  
      10A     -0.792469    11A     -0.668565    12A     -0.643145  
      13A     -0.628254    14A     -0.585132    15A     -0.563069  
      16A     -0.535341    17A     -0.502433    18A     -0.497117  
      19A     -0.474237    20A     -0.460431    21A     -0.425514  

    Virtual:                                                              

      22A      0.038531    23A      0.051827    24A      0.057050  
      25A      0.058463    26A      0.071584    27A      0.073776  
      28A      0.077488    29A      0.091775    30A      0.092976  
      31A      0.103143    32A      0.109321    33A      0.116384  
      34A      0.124660    35A      0.132805    36A      0.133597  
      37A      0.136403    38A      0.152331    39A      0.155473  
      40A      0.168052    41A      0.175469    42A      0.180412  
      43A      0.192441    44A      0.195819    45A      0.207881  
      46A      0.210246    47A      0.214463    48A      0.221011  
      49A      0.228888    50A      0.259380    51A      0.261804  
      52A      0.269960    53A      0.275809    54A      0.282582  
      55A      0.294454    56A      0.301924    57A      0.306789  
      58A      0.311671    59A      0.317841    60A      0.328537  
      61A      0.331036    62A      0.338210    63A      0.346826  
      64A      0.349926    65A      0.359123    66A      0.363638  
      67A      0.367029    68A      0.370030    69A      0.377527  
      70A      0.386816    71A      0.389534    72A      0.393102  
      73A      0.400008    74A      0.407909    75A      0.422099  
      76A      0.429641    77A      0.433581    78A      0.444931  
      79A      0.454567    80A      0.458991    81A      0.471618  
      82A      0.482163    83A      0.490713    84A      0.498017  
      85A      0.502042    86A      0.504286    87A      0.518666  
      88A      0.531482    89A      0.532977    90A      0.540161  
      91A      0.548639    92A      0.552378    93A      0.558975  
      94A      0.569251    95A      0.578975    96A      0.585886  
      97A      0.610848    98A      0.620869    99A      0.630605  
     100A      0.641823   101A      0.650656   102A      0.670972  
     103A      0.678773   104A      0.691309   105A      0.702504  
     106A      0.704236   107A      0.714619   108A      0.721064  
     109A      0.728222   110A      0.741029   111A      0.753442  
     112A      0.753963   113A      0.762268   114A      0.777783  
     115A      0.782680   116A      0.785708   117A      0.804153  
     118A      0.808189   119A      0.811244   120A      0.816671  
     121A      0.830640   122A      0.843599   123A      0.855191  
     124A      0.858500   125A      0.862609   126A      0.871158  
     127A      0.882834   128A      0.888047   129A      0.903495  
     130A      0.918377   131A      0.927498   132A      0.928996  
     133A      0.947591   134A      0.963069   135A      0.971524  
     136A      0.984656   137A      0.991981   138A      1.002379  
     139A      1.010547   140A      1.020544   141A      1.029976  
     142A      1.050536   143A      1.055022   144A      1.081360  
     145A      1.099694   146A      1.125684   147A      1.137099  
     148A      1.148039   149A      1.160569   150A      1.171929  
     151A      1.198265   152A      1.203379   153A      1.215125  
     154A      1.231809   155A      1.246728   156A      1.253162  
     157A      1.258255   158A      1.286588   159A      1.297128  
     160A      1.315133   161A      1.334345   162A      1.342865  
     163A      1.355017   164A      1.356485   165A      1.371715  
     166A      1.393672   167A      1.397840   168A      1.409401  
     169A      1.417150   170A      1.426743   171A      1.438025  
     172A      1.447759   173A      1.467166   174A      1.468879  
     175A      1.491025   176A      1.499464   177A      1.505419  
     178A      1.521610   179A      1.526422   180A      1.544293  
     181A      1.547817   182A      1.557031   183A      1.572586  
     184A      1.573890   185A      1.589290   186A      1.597677  
     187A      1.610570   188A      1.628223   189A      1.635335  
     190A      1.643922   191A      1.651066   192A      1.666845  
     193A      1.677385   194A      1.692534   195A      1.696025  
     196A      1.708714   197A      1.721843   198A      1.729309  
     199A      1.739810   200A      1.759847   201A      1.763288  
     202A      1.776838   203A      1.786069   204A      1.813621  
     205A      1.848365   206A      1.860864   207A      1.867736  
     208A      1.873069   209A      1.885580   210A      1.894082  
     211A      1.905333   212A      1.931817   213A      1.946446  
     214A      1.970211   215A      1.981971   216A      1.990002  
     217A      2.002761   218A      2.020932   219A      2.073984  
     220A      2.093970   221A      2.122069   222A      2.169347  
     223A      2.217338   224A      2.229895   225A      2.306205  
     226A      2.337559   227A      2.392214   228A      2.494693  
     229A      2.499226   230A      2.502019   231A      2.519143  
     232A      2.566822   233A      2.598100   234A      2.637825  
     235A      2.690039   236A      2.704607   237A      2.767664  
     238A      2.787068   239A      2.804201   240A      2.811625  
     241A      2.813742   242A      2.838490   243A      2.848821  
     244A      2.879211   245A      2.886045   246A      2.906462  
     247A      2.918015   248A      2.931821   249A      2.952212  
     250A      2.970190   251A      2.988983   252A      3.017077  
     253A      3.041400   254A      3.063290   255A      3.073260  
     256A      3.080943   257A      3.090492   258A      3.112846  
     259A      3.140745   260A      3.160893   261A      3.168976  
     262A      3.191037   263A      3.192567   264A      3.220300  
     265A      3.239751   266A      3.268360   267A      3.277874  
     268A      3.291230   269A      3.321487   270A      3.339501  
     271A      3.382236   272A      3.394206   273A      3.413399  
     274A      3.415235   275A      3.423974   276A      3.435683  
     277A      3.443660   278A      3.455348   279A      3.469124  
     280A      3.484802   281A      3.494239   282A      3.505363  
     283A      3.519609   284A      3.524030   285A      3.536851  
     286A      3.554382   287A      3.566752   288A      3.579260  
     289A      3.585062   290A      3.594070   291A      3.615594  
     292A      3.630509   293A      3.673002   294A      3.693417  
     295A      3.707311   296A      3.717081   297A      3.719516  
     298A      3.730676   299A      3.758263   300A      3.768439  
     301A      3.783669   302A      3.795859   303A      3.806557  
     304A      3.813024   305A      3.835556   306A      3.859423  
     307A      3.874936   308A      3.918272   309A      3.921679  
     310A      3.927226   311A      3.945435   312A      3.961931  
     313A      3.977701   314A      3.980070   315A      3.992146  
     316A      4.003622   317A      4.010038   318A      4.033124  
     319A      4.055875   320A      4.062139   321A      4.113134  
     322A      4.118450   323A      4.146417   324A      4.177719  
     325A      4.182629   326A      4.204945   327A      4.239590  
     328A      4.248509   329A      4.252308   330A      4.254426  
     331A      4.273243   332A      4.284455   333A      4.313369  
     334A      4.341476   335A      4.348413   336A      4.355222  
     337A      4.366331   338A      4.379502   339A      4.394656  
     340A      4.400038   341A      4.406312   342A      4.412481  
     343A      4.417972   344A      4.434281   345A      4.464074  
     346A      4.470142   347A      4.490058   348A      4.494824  
     349A      4.512940   350A      4.523166   351A      4.528336  
     352A      4.541842   353A      4.556624   354A      4.560278  
     355A      4.579069   356A      4.590076   357A      4.613106  
     358A      4.626342   359A      4.636394   360A      4.650327  
     361A      4.655347   362A      4.669615   363A      4.690543  
     364A      4.698898   365A      4.719760   366A      4.727281  
     367A      4.734639   368A      4.752537   369A      4.761276  
     370A      4.793811   371A      4.799013   372A      4.832583  
     373A      4.839173   374A      4.844164   375A      4.857857  
     376A      4.872161   377A      4.889594   378A      4.895085  
     379A      4.907761   380A      4.924360   381A      4.933090  
     382A      4.969577   383A      4.980378   384A      5.006360  
     385A      5.029315   386A      5.050267   387A      5.080965  
     388A      5.088822   389A      5.094038   390A      5.110293  
     391A      5.122360   392A      5.147325   393A      5.152693  
     394A      5.194964   395A      5.209236   396A      5.220203  
     397A      5.257176   398A      5.308690   399A      5.312142  
     400A      5.317471   401A      5.363059   402A      5.371026  
     403A      5.402798   404A      5.417068   405A      5.433875  
     406A      5.461239   407A      5.485419   408A      5.516987  
     409A      5.563517   410A      5.572133   411A      5.595959  
     412A      5.625022   413A      5.655410   414A      5.665337  
     415A      5.694820   416A      5.766793   417A      5.772057  
     418A      5.801135   419A      5.821481   420A      5.831131  
     421A      5.849114   422A      5.858250   423A      5.877871  
     424A      5.919669   425A      5.932105   426A      5.966072  
     427A      5.976555   428A      6.012760   429A      6.061719  
     430A      6.090571   431A      6.110848   432A      6.129937  
     433A      6.172326   434A      6.206060   435A      6.309771  
     436A      6.324037   437A      6.354350   438A      6.423868  
     439A      6.450746   440A      6.521996   441A      6.538753  
     442A      6.559047   443A      6.569694   444A      6.578983  
     445A      6.580514   446A      6.593021   447A      6.611212  
     448A      6.641179   449A      6.816003   450A      6.885630  
     451A      6.936671   452A      6.984705   453A      7.057620  
     454A      7.119825   455A      7.234665   456A      7.319668  
     457A      7.336817   458A      7.352627   459A      7.426734  
     460A      7.462077   461A      7.509615   462A      7.576986  
     463A      7.709511   464A      7.808599   465A      7.818000  
     466A      7.938921   467A      8.097996   468A      8.158866  
     469A      8.364259   470A      8.454257   471A      8.850444  
     472A      9.071503   473A      9.102130   474A      9.341522  
     475A      9.444780   476A      9.796669   477A      9.879658  
     478A      9.927504   479A     10.132151   480A     10.513203  
     481A     10.859458   482A     11.328316   483A     11.559474  
     484A     11.687389   485A     11.924254   486A     13.635319  
     487A     13.708120   488A     13.825962   489A     14.016785  
     490A     14.142269   491A     14.710719   492A     44.753982  
     493A     55.199241   494A     60.372657  

    Final Occupation by Irrep:
              A 
    DOCC [    21 ]

  @DF-RHF Final Energy:  -232.23538784699736

   => Energetics <=

    Nuclear Repulsion Energy =            192.4113377644995353
    One-Electron Energy =                -696.2739809366307782
    Two-Electron Energy =                 271.6272553251338877
    Total Energy =                       -232.2353878469973552

Computation Completed


Properties will be evaluated at   0.000000,   0.000000,   0.000000 [a0]

Properties computed using the SCF density matrix

  Nuclear Dipole Moment: [e a0]
     X:   110.8912      Y:    -2.4633      Z:    -8.5661

  Electronic Dipole Moment: [e a0]
     X:  -110.5318      Y:     2.4708      Z:     9.1682

  Dipole Moment: [e a0]
     X:     0.3594      Y:     0.0075      Z:     0.6021     Total:     0.7013

  Dipole Moment: [D]
     X:     0.9136      Y:     0.0190      Z:     1.5304     Total:     1.7825


*** tstop() called on r282 at Fri Sep 10 11:11:21 2021
Module time:
	user time   =      36.93 seconds =       0.62 minutes
	system time =       0.66 seconds =       0.01 minutes
	total time  =         38 seconds =       0.63 minutes
Total time:
	user time   =     135.67 seconds =       2.26 minutes
	system time =       2.64 seconds =       0.04 minutes
	total time  =        139 seconds =       2.32 minutes
  Constructing Basis Sets for SAPT...

   => Loading Basis Set <=

    Name: (JUN-CC-PVTZ AUX)
    Role: RIFIT
    Keyword: DF_BASIS_SAPT
    atoms 1, 7-8, 15, 18                 entry C          line   132 file /home/r08543048/miniconda3/share/psi4/basis/jun-cc-pvtz-ri.gbs 
    atoms 2, 11                          entry O          line   244 file /home/r08543048/miniconda3/share/psi4/basis/jun-cc-pvtz-ri.gbs 
    atoms 3                              entry N          line   188 file /home/r08543048/miniconda3/share/psi4/basis/jun-cc-pvtz-ri.gbs 
    atoms 4-6, 9-10, 12-14, 16-17, 19-21 entry H          line    30 file /home/r08543048/miniconda3/share/psi4/basis/jun-cc-pvtz-ri.gbs 


  //>>>>>>>>>>>>>>>>>>>>>>>>>>>>>>>>>>>//
  //               SAPT0               //
  //<<<<<<<<<<<<<<<<<<<<<<<<<<<<<<<<<<<//


*** tstart() called on r282
*** at Fri Sep 10 11:11:21 2021

        SAPT0  
    Ed Hohenstein
     6 June 2009

      Orbital Information
  --------------------------
    NSO        =       494
    NMO        =       494
    NRI        =      1166
    NOCC A     =        12
    NOCC B     =        21
    FOCC A     =         0
    FOCC B     =         0
    NVIR A     =       482
    NVIR B     =       473

    Elst10,r            =    -0.028382061657 [Eh]
    Exch10              =     0.027768765211 [Eh]
    Exch10 (S^2)        =     0.027537466427 [Eh]

    Iter     Energy [mEh]          dE [mEh]         Residual      Time [s]
       1      -5.91144349       5.911443488      15.075918967             1
       2      -7.31865862       1.407215133       8.499094929             2
       3      -7.65273874       0.334080120       2.389386759             3
       4      -7.58325435      -0.069484395       0.919226496             4
       5      -7.57932263      -0.003931718       0.290085636             5
       6      -7.58645928       0.007136655       0.074454540             5
       7      -7.58624262      -0.000216661       0.021852077             6
       8      -7.58581420      -0.000428422       0.005251206             7
       9      -7.58583802       0.000023821       0.001796281             8
      10      -7.58586410       0.000026083       0.000395464            10
      11      -7.58586219      -0.000001911       0.000082999            10
      12      -7.58586127      -0.000000926       0.000016315            11
      13      -7.58586148       0.000000211       0.000003473            12
      14      -7.58586144      -0.000000034       0.000000960            13

    CHF Iterations converged


    Iter     Energy [mEh]          dE [mEh]         Residual      Time [s]
       1      -5.16139291       5.161392905      13.657315636             1
       2      -5.81059836       0.649205452       6.168357450             2
       3      -6.09962685       0.289028495       1.691702431             3
       4      -6.10655593       0.006929080       0.475984766             4
       5      -6.08706585      -0.019490086       0.105656523             5
       6      -6.08778228       0.000716438       0.039349546             6
       7      -6.08862644       0.000844156       0.010808092             7
       8      -6.08851165      -0.000114792       0.002915298             8
       9      -6.08847684      -0.000034807       0.000840668             9
      10      -6.08848375       0.000006904       0.000316479            10
      11      -6.08848711       0.000003361       0.000074472            11
      12      -6.08848619      -0.000000919       0.000020030            12
      13      -6.08848611      -0.000000075       0.000006215            13
      14      -6.08848617       0.000000054       0.000001556            14
      15      -6.08848617       0.000000006       0.000000315            15

    CHF Iterations converged

    Ind20,r (A<-B)      =    -0.007585861444 [Eh]
    Ind20,r (B<-A)      =    -0.006088486173 [Eh]
    Ind20,r             =    -0.013674347617 [Eh]
    Exch-Ind20,r (A<-B) =     0.004784794255 [Eh]
    Exch-Ind20,r (B<-A) =     0.003263982131 [Eh]
    Exch-Ind20,r        =     0.008048776386 [Eh]
    Disp20              =    -0.013055742610 [Eh]
    Disp20 (SS)         =    -0.006527871305 [Eh]
    Disp20 (OS)         =    -0.006527871305 [Eh]
    Exch-Disp20         =     0.002181088909 [Eh]
    Exch-Disp20 (SS)    =     0.001363816868 [Eh]
    Exch-Disp20 (OS)    =     0.000817272041 [Eh]

    SAPT Results 
  --------------------------------------------------------------------------------------------------------
    Electrostatics                -28.38206166 [mEh]     -17.81001258 [kcal/mol]     -74.51709261 [kJ/mol]
      Elst10,r                    -28.38206166 [mEh]     -17.81001258 [kcal/mol]     -74.51709261 [kJ/mol]

    Exchange                       27.76876521 [mEh]      17.42516325 [kcal/mol]      72.90688302 [kJ/mol]
      Exch10                       27.76876521 [mEh]      17.42516325 [kcal/mol]      72.90688302 [kJ/mol]
      Exch10(S^2)                  27.53746643 [mEh]      17.28002107 [kcal/mol]      72.29960814 [kJ/mol]

    Induction                      -9.28401036 [mEh]      -5.82580446 [kcal/mol]     -24.37516584 [kJ/mol]
      Ind20,r                     -13.67434762 [mEh]      -8.58078268 [kcal/mol]     -35.90199472 [kJ/mol]
      Exch-Ind20,r                  8.04877639 [mEh]       5.05068343 [kcal/mol]      21.13205949 [kJ/mol]
      delta HF,r (2)               -3.65843913 [mEh]      -2.29570521 [kcal/mol]      -9.60523061 [kJ/mol]

    Dispersion                    -10.87465370 [mEh]      -6.82394822 [kcal/mol]     -28.55139936 [kJ/mol]
      Disp20                      -13.05574261 [mEh]      -8.19260217 [kcal/mol]     -34.27784750 [kJ/mol]
      Exch-Disp20                   2.18108891 [mEh]       1.36865395 [kcal/mol]       5.72644814 [kJ/mol]
      Disp20 (SS)                  -6.52787130 [mEh]      -4.09630109 [kcal/mol]     -17.13892375 [kJ/mol]
      Disp20 (OS)                  -6.52787130 [mEh]      -4.09630109 [kcal/mol]     -17.13892375 [kJ/mol]
      Exch-Disp20 (SS)              1.36381687 [mEh]       0.85580801 [kcal/mol]       3.58070069 [kJ/mol]
      Exch-Disp20 (OS)              0.81727204 [mEh]       0.51284595 [kcal/mol]       2.14574745 [kJ/mol]

  Total HF                         -9.89730681 [mEh]      -6.21065379 [kcal/mol]     -25.98537544 [kJ/mol]
  Total SAPT0                     -20.77196051 [mEh]     -13.03460201 [kcal/mol]     -54.53677480 [kJ/mol]

  Special recipe for scaled SAPT0 (see Manual):
    Electrostatics sSAPT0         -28.38206166 [mEh]     -17.81001258 [kcal/mol]     -74.51709261 [kJ/mol]
    Exchange sSAPT0                27.76876521 [mEh]      17.42516325 [kcal/mol]      72.90688302 [kJ/mol]
    Induction sSAPT0               -9.07948687 [mEh]      -5.69746403 [kcal/mol]     -23.83818949 [kJ/mol]
    Dispersion sSAPT0             -10.81923112 [mEh]      -6.78917003 [kcal/mol]     -28.40588740 [kJ/mol]
  Total sSAPT0                    -20.51201444 [mEh]     -12.87148339 [kcal/mol]     -53.85428649 [kJ/mol]
  --------------------------------------------------------------------------------------------------------

*** tstop() called on r282 at Fri Sep 10 11:13:20 2021
Module time:
	user time   =     100.42 seconds =       1.67 minutes
	system time =      16.67 seconds =       0.28 minutes
	total time  =        119 seconds =       1.98 minutes
Total time:
	user time   =     236.23 seconds =       3.94 minutes
	system time =      19.31 seconds =       0.32 minutes
	total time  =        258 seconds =       4.30 minutes

    Psi4 stopped on: Friday, 10 September 2021 11:13AM
    Psi4 wall time for execution: 0:04:17.23

*** Psi4 exiting successfully. Buy a developer a beer!
