
    -----------------------------------------------------------------------
          Psi4: An Open-Source Ab Initio Electronic Structure Package
                               Psi4 1.3.2 release

                         Git: Rev {HEAD} ecbda83 


    R. M. Parrish, L. A. Burns, D. G. A. Smith, A. C. Simmonett,
    A. E. DePrince III, E. G. Hohenstein, U. Bozkaya, A. Yu. Sokolov,
    R. Di Remigio, R. M. Richard, J. F. Gonthier, A. M. James,
    H. R. McAlexander, A. Kumar, M. Saitow, X. Wang, B. P. Pritchard,
    P. Verma, H. F. Schaefer III, K. Patkowski, R. A. King, E. F. Valeev,
    F. A. Evangelista, J. M. Turney, T. D. Crawford, and C. D. Sherrill,
    J. Chem. Theory Comput. 13(7) pp 3185--3197 (2017).
    (doi: 10.1021/acs.jctc.7b00174)


                         Additional Contributions by
    P. Kraus, H. Kruse, M. H. Lechner, M. C. Schieber, R. A. Shaw,
    A. Alenaizan, R. Galvelis, Z. L. Glick, S. Lehtola, and J. P. Misiewicz

    -----------------------------------------------------------------------


    Psi4 started on: Friday, 10 September 2021 11:28AM

    Process ID: 56550
    Host:       r282
    PSIDATADIR: /home/r08543048/miniconda3/share/psi4
    Memory:     500.0 MiB
    Threads:    1
    
  ==> Input File <==

--------------------------------------------------------------------------
# Any line starting with the # character is a comment line
#! Sample  computation

memory 22 gb

molecule Dimer {
0 1
 C 3.056872   -0.440303    0.122339
 C 1.621417   -0.029043   -0.081391
 O 0.906960   -0.600520   -0.909279
 N 1.168697    0.987399    0.686688
 H 3.565926    0.143345    0.885650
 H 3.077199   -1.492658    0.397270
 H 3.581915   -0.335182   -0.824635
 
H 0.206780    1.288403    0.571241
 H 1.772744    1.449872    1.339162
  
 
 

 



    
    
    
 --
0 1
 C -2.396659   -0.914652    0.793800 
 C -2.621257    0.146493   -0.267507
 O -1.431891    0.874246   -0.560741
 H -1.655106   -1.639134    0.456907
 H -3.324587   -1.446497    1.007095
 H -2.038123   -0.459736    1.716485
 H -3.017087   -0.308440   -1.179725
 H -3.347220    0.883073    0.074180 
 H -0.766116    0.240393   -0.893736 






 
 







units angstrom

no_reorient
symmetry c1
}

set globals{
  basis jun-cc-pvtz
}

energy('sapt0')


--------------------------------------------------------------------------

  Memory set to  20.489 GiB by Python driver.

  //>>>>>>>>>>>>>>>>>>>>>>>>>>>>>>>>>>>//
  //              Dimer HF             //
  //<<<<<<<<<<<<<<<<<<<<<<<<<<<<<<<<<<<//


*** tstart() called on r282
*** at Fri Sep 10 11:28:14 2021

   => Loading Basis Set <=

    Name: JUN-CC-PVTZ
    Role: ORBITAL
    Keyword: BASIS
    atoms 1-2, 10-11 entry C          line   217 file /home/r08543048/miniconda3/share/psi4/basis/jun-cc-pvtz.gbs 
    atoms 3, 12      entry O          line   305 file /home/r08543048/miniconda3/share/psi4/basis/jun-cc-pvtz.gbs 
    atoms 4          entry N          line   261 file /home/r08543048/miniconda3/share/psi4/basis/jun-cc-pvtz.gbs 
    atoms 5-9, 13-18 entry H          line    36 file /home/r08543048/miniconda3/share/psi4/basis/jun-cc-pvtz.gbs 


         ---------------------------------------------------------
                                   SCF
               by Justin Turney, Rob Parrish, Andy Simmonett
                          and Daniel G. A. Smith
                              RHF Reference
                        1 Threads,  20980 MiB Core
         ---------------------------------------------------------

  ==> Geometry <==

    Molecular point group: c1
    Full point group: C1

    Geometry (in Angstrom), charge = 0, multiplicity = 1:

       Center              X                  Y                   Z               Mass       
    ------------   -----------------  -----------------  -----------------  -----------------
         C            3.038459984963    -0.456149224872     0.155766594358    12.000000000000
         C            1.603004984963    -0.044889224872    -0.047963405642    12.000000000000
         O            0.888547984963    -0.616366224872    -0.875851405642    15.994914619570
         N            1.150284984963     0.971552775128     0.720115594358    14.003074004430
         H            3.547513984963     0.127498775128     0.919077594358     1.007825032230
         H            3.058786984963    -1.508504224872     0.430697594358     1.007825032230
         H            3.563502984963    -0.351028224872    -0.791207405642     1.007825032230
         H            0.188367984963     1.272556775128     0.604668594358     1.007825032230
         H            1.754331984963     1.434025775128     1.372589594358     1.007825032230
         C           -2.415071015037    -0.930498224872     0.827227594358    12.000000000000
         C           -2.639669015037     0.130646775128    -0.234079405642    12.000000000000
         O           -1.450303015037     0.858399775128    -0.527313405642    15.994914619570
         H           -1.673518015037    -1.654980224872     0.490334594358     1.007825032230
         H           -3.342999015037    -1.462343224872     1.040522594358     1.007825032230
         H           -2.056535015037    -0.475582224872     1.749912594358     1.007825032230
         H           -3.035499015037    -0.324286224872    -1.146297405642     1.007825032230
         H           -3.365632015037     0.867226775128     0.107607594358     1.007825032230
         H           -0.784528015037     0.224546775128    -0.860308405642     1.007825032230

  Running in c1 symmetry.

  Rotational constants: A =      0.16864  B =      0.03502  C =      0.03411 [cm^-1]
  Rotational constants: A =   5055.82287  B =   1049.85557  C =   1022.72678 [MHz]
  Nuclear repulsion =  316.690287500881482

  Charge       = 0
  Multiplicity = 1
  Electrons    = 58
  Nalpha       = 29
  Nbeta        = 29

  ==> Algorithm <==

  SCF Algorithm Type is DF.
  DIIS enabled.
  MOM disabled.
  Fractional occupation disabled.
  Guess Type is SAD.
  Energy threshold   = 1.00e-08
  Density threshold  = 1.00e-08
  Integral threshold = 0.00e+00

  ==> Primary Basis <==

  Basis Set: JUN-CC-PVTZ
    Blend: JUN-CC-PVTZ
    Number of shells: 157
    Number of basis function: 427
    Number of Cartesian functions: 480
    Spherical Harmonics?: true
    Max angular momentum: 3

   => Loading Basis Set <=

    Name: (JUN-CC-PVTZ AUX)
    Role: JKFIT
    Keyword: DF_BASIS_SCF
    atoms 1-2, 10-11 entry C          line   152 file /home/r08543048/miniconda3/share/psi4/basis/jun-cc-pvtz-jkfit.gbs 
    atoms 3, 12      entry O          line   272 file /home/r08543048/miniconda3/share/psi4/basis/jun-cc-pvtz-jkfit.gbs 
    atoms 4          entry N          line   212 file /home/r08543048/miniconda3/share/psi4/basis/jun-cc-pvtz-jkfit.gbs 
    atoms 5-9, 13-18 entry H          line    70 file /home/r08543048/miniconda3/share/psi4/basis/jun-cc-pvtz-jkfit.gbs 

  ==> Pre-Iterations <==

   -------------------------------------------------------
    Irrep   Nso     Nmo     Nalpha   Nbeta   Ndocc  Nsocc
   -------------------------------------------------------
     A        427     427       0       0       0       0
   -------------------------------------------------------
    Total     427     427      29      29      29       0
   -------------------------------------------------------

  ==> Integral Setup <==

  ==> DiskDFJK: Density-Fitted J/K Matrices <==

    J tasked:                  Yes
    K tasked:                  Yes
    wK tasked:                  No
    OpenMP threads:              1
    Integrals threads:           1
    Memory [MiB]:            15735
    Algorithm:                Core
    Integral Cache:           SAVE
    Schwarz Cutoff:          1E-12
    Fitting Condition:       1E-10

   => Auxiliary Basis Set <=

  Basis Set: (JUN-CC-PVTZ AUX)
    Blend: JUN-CC-PVTZ-JKFIT
    Number of shells: 313
    Number of basis function: 995
    Number of Cartesian functions: 1197
    Spherical Harmonics?: true
    Max angular momentum: 4

  Minimum eigenvalue in the overlap matrix is 5.3846655872E-05.
  Using Symmetric Orthogonalization.

  SCF Guess: Superposition of Atomic Densities via on-the-fly atomic UHF.

  ==> Iterations <==

                           Total Energy        Delta E     RMS |[F,P]|

   @DF-RHF iter SAD:  -360.88571697639452   -3.60886e+02   0.00000e+00 
   @DF-RHF iter   1:  -361.93447394467387   -1.04876e+00   1.76358e-03 DIIS
   @DF-RHF iter   2:  -362.15577487939038   -2.21301e-01   9.33571e-04 DIIS
   @DF-RHF iter   3:  -362.21122365691929   -5.54488e-02   1.81644e-04 DIIS
   @DF-RHF iter   4:  -362.21482697846886   -3.60332e-03   7.86065e-05 DIIS
   @DF-RHF iter   5:  -362.21548104410539   -6.54066e-04   1.59147e-05 DIIS
   @DF-RHF iter   6:  -362.21552177698277   -4.07329e-05   7.09254e-06 DIIS
   @DF-RHF iter   7:  -362.21552905099230   -7.27401e-06   2.30003e-06 DIIS
   @DF-RHF iter   8:  -362.21553039759522   -1.34660e-06   9.35596e-07 DIIS
   @DF-RHF iter   9:  -362.21553062933469   -2.31739e-07   3.35960e-07 DIIS
   @DF-RHF iter  10:  -362.21553065694246   -2.76078e-08   1.04174e-07 DIIS
   @DF-RHF iter  11:  -362.21553065941777   -2.47530e-09   3.03402e-08 DIIS
   @DF-RHF iter  12:  -362.21553065958926   -1.71497e-10   1.02688e-08 DIIS
   @DF-RHF iter  13:  -362.21553065960762   -1.83604e-11   2.19080e-09 DIIS
  Energy and wave function converged.


  ==> Post-Iterations <==

    Orbital Energies [Eh]
    ---------------------

    Doubly Occupied:                                                      

       1A    -20.533874     2A    -20.524250     3A    -15.585937  
       4A    -11.362473     5A    -11.261694     6A    -11.242429  
       7A    -11.205761     8A     -1.384625     9A     -1.337116  
      10A     -1.216789    11A     -1.012305    12A     -1.000528  
      13A     -0.836735    14A     -0.803307    15A     -0.730983  
      16A     -0.690381    17A     -0.658390    18A     -0.622307  
      19A     -0.609787    20A     -0.596584    21A     -0.587131  
      22A     -0.568805    23A     -0.532703    24A     -0.529830  
      25A     -0.513555    26A     -0.472352    27A     -0.435862  
      28A     -0.424917    29A     -0.419668  

    Virtual:                                                              

      30A      0.039750    31A      0.059645    32A      0.062216  
      33A      0.068557    34A      0.079258    35A      0.082908  
      36A      0.084041    37A      0.105728    38A      0.108131  
      39A      0.109883    40A      0.117010    41A      0.119597  
      42A      0.135486    43A      0.152247    44A      0.156818  
      45A      0.162547    46A      0.174315    47A      0.176929  
      48A      0.193915    49A      0.202221    50A      0.221264  
      51A      0.234570    52A      0.243389    53A      0.261452  
      54A      0.263712    55A      0.266221    56A      0.269302  
      57A      0.277187    58A      0.279774    59A      0.284444  
      60A      0.293920    61A      0.297668    62A      0.307506  
      63A      0.310352    64A      0.317110    65A      0.322718  
      66A      0.325727    67A      0.334861    68A      0.338662  
      69A      0.350080    70A      0.359042    71A      0.360644  
      72A      0.364443    73A      0.381151    74A      0.386921  
      75A      0.407324    76A      0.416931    77A      0.426970  
      78A      0.440676    79A      0.444889    80A      0.454996  
      81A      0.472579    82A      0.483920    83A      0.489279  
      84A      0.496855    85A      0.516069    86A      0.525849  
      87A      0.526185    88A      0.529957    89A      0.537880  
      90A      0.547007    91A      0.568461    92A      0.579141  
      93A      0.588800    94A      0.601573    95A      0.606403  
      96A      0.615526    97A      0.622498    98A      0.643987  
      99A      0.650871   100A      0.663207   101A      0.667685  
     102A      0.684778   103A      0.695033   104A      0.697424  
     105A      0.717440   106A      0.730756   107A      0.740879  
     108A      0.749950   109A      0.762793   110A      0.765176  
     111A      0.777420   112A      0.791276   113A      0.794923  
     114A      0.810410   115A      0.814700   116A      0.827650  
     117A      0.844393   118A      0.855837   119A      0.860120  
     120A      0.868370   121A      0.885587   122A      0.899598  
     123A      0.901866   124A      0.909450   125A      0.928530  
     126A      0.937224   127A      0.950516   128A      0.953252  
     129A      0.985881   130A      1.008678   131A      1.018287  
     132A      1.027481   133A      1.049262   134A      1.053003  
     135A      1.073045   136A      1.084968   137A      1.088795  
     138A      1.096581   139A      1.113668   140A      1.126843  
     141A      1.133029   142A      1.166449   143A      1.181839  
     144A      1.200004   145A      1.208704   146A      1.227486  
     147A      1.242417   148A      1.265777   149A      1.278771  
     150A      1.299762   151A      1.313442   152A      1.316921  
     153A      1.343130   154A      1.347425   155A      1.353983  
     156A      1.362990   157A      1.371541   158A      1.372152  
     159A      1.375145   160A      1.395781   161A      1.407581  
     162A      1.415515   163A      1.424162   164A      1.428461  
     165A      1.439269   166A      1.453463   167A      1.469919  
     168A      1.486464   169A      1.496972   170A      1.521352  
     171A      1.536102   172A      1.549979   173A      1.559980  
     174A      1.573254   175A      1.583913   176A      1.600150  
     177A      1.607477   178A      1.619452   179A      1.634794  
     180A      1.653227   181A      1.662411   182A      1.684861  
     183A      1.690810   184A      1.697614   185A      1.738829  
     186A      1.756959   187A      1.762560   188A      1.784621  
     189A      1.804117   190A      1.829448   191A      1.855045  
     192A      1.861021   193A      1.882753   194A      1.895375  
     195A      1.901706   196A      1.925963   197A      1.942952  
     198A      1.988709   199A      1.999024   200A      2.056196  
     201A      2.133100   202A      2.155712   203A      2.233650  
     204A      2.277345   205A      2.298981   206A      2.367997  
     207A      2.375376   208A      2.415960   209A      2.456606  
     210A      2.472569   211A      2.487195   212A      2.546092  
     213A      2.603047   214A      2.632518   215A      2.686559  
     216A      2.731576   217A      2.766715   218A      2.791282  
     219A      2.823098   220A      2.828940   221A      2.846246  
     222A      2.859161   223A      2.885161   224A      2.924381  
     225A      2.949274   226A      2.955373   227A      2.980766  
     228A      3.005971   229A      3.028833   230A      3.056952  
     231A      3.083717   232A      3.088605   233A      3.101738  
     234A      3.145015   235A      3.151645   236A      3.199041  
     237A      3.213189   238A      3.233790   239A      3.242557  
     240A      3.261689   241A      3.269621   242A      3.278154  
     243A      3.286668   244A      3.309051   245A      3.327481  
     246A      3.349401   247A      3.357584   248A      3.378718  
     249A      3.391791   250A      3.416614   251A      3.424777  
     252A      3.433307   253A      3.452756   254A      3.457994  
     255A      3.462160   256A      3.475698   257A      3.504731  
     258A      3.509232   259A      3.526941   260A      3.530975  
     261A      3.537983   262A      3.556752   263A      3.560603  
     264A      3.574293   265A      3.600307   266A      3.605143  
     267A      3.619576   268A      3.637233   269A      3.648561  
     270A      3.651331   271A      3.665490   272A      3.675323  
     273A      3.706357   274A      3.718336   275A      3.739744  
     276A      3.775081   277A      3.782888   278A      3.798133  
     279A      3.810448   280A      3.820927   281A      3.843012  
     282A      3.861886   283A      3.881611   284A      3.899606  
     285A      3.914505   286A      3.933455   287A      3.950971  
     288A      3.966020   289A      3.980113   290A      3.990424  
     291A      4.005062   292A      4.042133   293A      4.051025  
     294A      4.073027   295A      4.097997   296A      4.118699  
     297A      4.140752   298A      4.165024   299A      4.168359  
     300A      4.212204   301A      4.221070   302A      4.245991  
     303A      4.256304   304A      4.279772   305A      4.284038  
     306A      4.300469   307A      4.305742   308A      4.316901  
     309A      4.324781   310A      4.353398   311A      4.362310  
     312A      4.387573   313A      4.389697   314A      4.398709  
     315A      4.415341   316A      4.426594   317A      4.440737  
     318A      4.453948   319A      4.464884   320A      4.479688  
     321A      4.494005   322A      4.504073   323A      4.527808  
     324A      4.535533   325A      4.544868   326A      4.572920  
     327A      4.596969   328A      4.609884   329A      4.621652  
     330A      4.643293   331A      4.654236   332A      4.661182  
     333A      4.687280   334A      4.744056   335A      4.754419  
     336A      4.760087   337A      4.778925   338A      4.782456  
     339A      4.807518   340A      4.813736   341A      4.850473  
     342A      4.895756   343A      4.917961   344A      4.928748  
     345A      5.003532   346A      5.061086   347A      5.127271  
     348A      5.149574   349A      5.166198   350A      5.189383  
     351A      5.198001   352A      5.216983   353A      5.226125  
     354A      5.238035   355A      5.248354   356A      5.282533  
     357A      5.291061   358A      5.292922   359A      5.319681  
     360A      5.348496   361A      5.405969   362A      5.427628  
     363A      5.444469   364A      5.474625   365A      5.487903  
     366A      5.530288   367A      5.550005   368A      5.586672  
     369A      5.596774   370A      5.632601   371A      5.654977  
     372A      5.679719   373A      5.685544   374A      5.729618  
     375A      5.741038   376A      5.746753   377A      5.767241  
     378A      5.781574   379A      5.810028   380A      5.843763  
     381A      5.901332   382A      5.912114   383A      5.932815  
     384A      5.950791   385A      5.980044   386A      5.994419  
     387A      6.051232   388A      6.081358   389A      6.124119  
     390A      6.196236   391A      6.228079   392A      6.289231  
     393A      6.314013   394A      6.402964   395A      6.426959  
     396A      6.440799   397A      6.479317   398A      6.490862  
     399A      6.551541   400A      6.612096   401A      6.699485  
     402A      6.766081   403A      6.797743   404A      6.952926  
     405A      7.047269   406A      7.191614   407A      7.212575  
     408A      7.278294   409A      7.356064   410A      7.388484  
     411A      7.407289   412A      7.460686   413A      7.473392  
     414A      7.519770   415A      7.636219   416A      7.679192  
     417A      7.753093   418A      7.802575   419A      7.934155  
     420A      8.184475   421A     12.216521   422A     13.652221  
     423A     13.761303   424A     13.883114   425A     14.680371  
     426A     14.806220   427A     15.759144  

    Final Occupation by Irrep:
              A 
    DOCC [    29 ]

  @DF-RHF Final Energy:  -362.21553065960762

   => Energetics <=

    Nuclear Repulsion Energy =            316.6902875008814817
    One-Electron Energy =               -1122.4094751799857477
    Two-Electron Energy =                 443.5036570194966430
    Total Energy =                       -362.2155306596076230

Computation Completed


Properties will be evaluated at   0.000000,   0.000000,   0.000000 [a0]

Properties computed using the SCF density matrix

  Nuclear Dipole Moment: [e a0]
     X:    -2.0180      Y:    -1.7368      Z:     3.6638

  Electronic Dipole Moment: [e a0]
     X:     2.8596      Y:     1.9240      Z:    -2.5513

  Dipole Moment: [e a0]
     X:     0.8415      Y:     0.1872      Z:     1.1125     Total:     1.4074

  Dipole Moment: [D]
     X:     2.1390      Y:     0.4758      Z:     2.8277     Total:     3.5774


*** tstop() called on r282 at Fri Sep 10 11:28:54 2021
Module time:
	user time   =      38.95 seconds =       0.65 minutes
	system time =       0.94 seconds =       0.02 minutes
	total time  =         40 seconds =       0.67 minutes
Total time:
	user time   =      38.95 seconds =       0.65 minutes
	system time =       0.94 seconds =       0.02 minutes
	total time  =         40 seconds =       0.67 minutes

  //>>>>>>>>>>>>>>>>>>>>>>>>>>>>>>>>>>>//
  //            Monomer A HF           //
  //<<<<<<<<<<<<<<<<<<<<<<<<<<<<<<<<<<<//


*** tstart() called on r282
*** at Fri Sep 10 11:28:54 2021

   => Loading Basis Set <=

    Name: JUN-CC-PVTZ
    Role: ORBITAL
    Keyword: BASIS
    atoms 1-2, 10-11 entry C          line   217 file /home/r08543048/miniconda3/share/psi4/basis/jun-cc-pvtz.gbs 
    atoms 3, 12      entry O          line   305 file /home/r08543048/miniconda3/share/psi4/basis/jun-cc-pvtz.gbs 
    atoms 4          entry N          line   261 file /home/r08543048/miniconda3/share/psi4/basis/jun-cc-pvtz.gbs 
    atoms 5-9, 13-18 entry H          line    36 file /home/r08543048/miniconda3/share/psi4/basis/jun-cc-pvtz.gbs 


         ---------------------------------------------------------
                                   SCF
               by Justin Turney, Rob Parrish, Andy Simmonett
                          and Daniel G. A. Smith
                              RHF Reference
                        1 Threads,  20980 MiB Core
         ---------------------------------------------------------

  ==> Geometry <==

    Molecular point group: c1
    Full point group: C1

    Geometry (in Angstrom), charge = 0, multiplicity = 1:

       Center              X                  Y                   Z               Mass       
    ------------   -----------------  -----------------  -----------------  -----------------
         C            3.038459984963    -0.456149224872     0.155766594358    12.000000000000
         C            1.603004984963    -0.044889224872    -0.047963405642    12.000000000000
         O            0.888547984963    -0.616366224872    -0.875851405642    15.994914619570
         N            1.150284984963     0.971552775128     0.720115594358    14.003074004430
         H            3.547513984963     0.127498775128     0.919077594358     1.007825032230
         H            3.058786984963    -1.508504224872     0.430697594358     1.007825032230
         H            3.563502984963    -0.351028224872    -0.791207405642     1.007825032230
         H            0.188367984963     1.272556775128     0.604668594358     1.007825032230
         H            1.754331984963     1.434025775128     1.372589594358     1.007825032230
      Gh(C)          -2.415071015037    -0.930498224872     0.827227594358    12.000000000000
      Gh(C)          -2.639669015037     0.130646775128    -0.234079405642    12.000000000000
      Gh(O)          -1.450303015037     0.858399775128    -0.527313405642    15.994914619570
      Gh(H)          -1.673518015037    -1.654980224872     0.490334594358     1.007825032230
      Gh(H)          -3.342999015037    -1.462343224872     1.040522594358     1.007825032230
      Gh(H)          -2.056535015037    -0.475582224872     1.749912594358     1.007825032230
      Gh(H)          -3.035499015037    -0.324286224872    -1.146297405642     1.007825032230
      Gh(H)          -3.365632015037     0.867226775128     0.107607594358     1.007825032230
      Gh(H)          -0.784528015037     0.224546775128    -0.860308405642     1.007825032230

  Running in c1 symmetry.

  Rotational constants: A =      0.16864  B =      0.03502  C =      0.03411 [cm^-1]
  Rotational constants: A =   5055.82287  B =   1049.85557  C =   1022.72678 [MHz]
  Nuclear repulsion =  121.771389836481404

  Charge       = 0
  Multiplicity = 1
  Electrons    = 32
  Nalpha       = 16
  Nbeta        = 16

  ==> Algorithm <==

  SCF Algorithm Type is DF.
  DIIS enabled.
  MOM disabled.
  Fractional occupation disabled.
  Guess Type is SAD.
  Energy threshold   = 1.00e-08
  Density threshold  = 1.00e-08
  Integral threshold = 0.00e+00

  ==> Primary Basis <==

  Basis Set: JUN-CC-PVTZ
    Blend: JUN-CC-PVTZ
    Number of shells: 157
    Number of basis function: 427
    Number of Cartesian functions: 480
    Spherical Harmonics?: true
    Max angular momentum: 3

   => Loading Basis Set <=

    Name: (JUN-CC-PVTZ AUX)
    Role: JKFIT
    Keyword: DF_BASIS_SCF
    atoms 1-2, 10-11 entry C          line   152 file /home/r08543048/miniconda3/share/psi4/basis/jun-cc-pvtz-jkfit.gbs 
    atoms 3, 12      entry O          line   272 file /home/r08543048/miniconda3/share/psi4/basis/jun-cc-pvtz-jkfit.gbs 
    atoms 4          entry N          line   212 file /home/r08543048/miniconda3/share/psi4/basis/jun-cc-pvtz-jkfit.gbs 
    atoms 5-9, 13-18 entry H          line    70 file /home/r08543048/miniconda3/share/psi4/basis/jun-cc-pvtz-jkfit.gbs 

  ==> Pre-Iterations <==

   -------------------------------------------------------
    Irrep   Nso     Nmo     Nalpha   Nbeta   Ndocc  Nsocc
   -------------------------------------------------------
     A        427     427       0       0       0       0
   -------------------------------------------------------
    Total     427     427      16      16      16       0
   -------------------------------------------------------

  ==> Integral Setup <==

  ==> DiskDFJK: Density-Fitted J/K Matrices <==

    J tasked:                  Yes
    K tasked:                  Yes
    wK tasked:                  No
    OpenMP threads:              1
    Integrals threads:           1
    Memory [MiB]:            15735
    Algorithm:                Core
    Integral Cache:           LOAD
    Schwarz Cutoff:          1E-12
    Fitting Condition:       1E-10

   => Auxiliary Basis Set <=

  Basis Set: (JUN-CC-PVTZ AUX)
    Blend: JUN-CC-PVTZ-JKFIT
    Number of shells: 313
    Number of basis function: 995
    Number of Cartesian functions: 1197
    Spherical Harmonics?: true
    Max angular momentum: 4

  Minimum eigenvalue in the overlap matrix is 5.3846655872E-05.
  Using Symmetric Orthogonalization.

  SCF Guess: Superposition of Atomic Densities via on-the-fly atomic UHF.

  ==> Iterations <==

                           Total Energy        Delta E     RMS |[F,P]|

   @DF-RHF iter SAD:  -207.24277444329914   -2.07243e+02   0.00000e+00 
   @DF-RHF iter   1:  -207.88636288653245   -6.43588e-01   1.41836e-03 DIIS
   @DF-RHF iter   2:  -208.01414410143914   -1.27781e-01   8.55735e-04 DIIS
   @DF-RHF iter   3:  -208.05807595682572   -4.39319e-02   1.58927e-04 DIIS
   @DF-RHF iter   4:  -208.06057540341169   -2.49945e-03   6.38019e-05 DIIS
   @DF-RHF iter   5:  -208.06107842356835   -5.03020e-04   1.18707e-05 DIIS
   @DF-RHF iter   6:  -208.06110911871534   -3.06951e-05   5.59830e-06 DIIS
   @DF-RHF iter   7:  -208.06111470000059   -5.58129e-06   2.11461e-06 DIIS
   @DF-RHF iter   8:  -208.06111590997415   -1.20997e-06   7.02309e-07 DIIS
   @DF-RHF iter   9:  -208.06111606593998   -1.55966e-07   1.83424e-07 DIIS
   @DF-RHF iter  10:  -208.06111607407172   -8.13174e-09   6.02762e-08 DIIS
   @DF-RHF iter  11:  -208.06111607483356   -7.61844e-10   1.55358e-08 DIIS
   @DF-RHF iter  12:  -208.06111607488208   -4.85159e-11   3.19301e-09 DIIS
  Energy and wave function converged.


  ==> Post-Iterations <==

    Orbital Energies [Eh]
    ---------------------

    Doubly Occupied:                                                      

       1A    -20.512462     2A    -15.592046     3A    -11.353751  
       4A    -11.238393     5A     -1.369188     6A     -1.216717  
       7A     -1.007310     8A     -0.802868     9A     -0.731976  
      10A     -0.663216    11A     -0.615770    12A     -0.580428  
      13A     -0.564763    14A     -0.524005    15A     -0.422363  
      16A     -0.413832  

    Virtual:                                                              

      17A      0.036316    18A      0.045000    19A      0.055225  
      20A      0.062017    21A      0.078273    22A      0.079484  
      23A      0.081759    24A      0.102218    25A      0.103211  
      26A      0.108331    27A      0.112389    28A      0.117348  
      29A      0.128069    30A      0.148741    31A      0.155450  
      32A      0.157311    33A      0.161534    34A      0.167342  
      35A      0.184012    36A      0.190406    37A      0.198326  
      38A      0.207769    39A      0.225381    40A      0.240821  
      41A      0.245083    42A      0.253632    43A      0.259378  
      44A      0.265354    45A      0.269556    46A      0.281552  
      47A      0.287657    48A      0.291931    49A      0.311016  
      50A      0.314088    51A      0.315521    52A      0.322042  
      53A      0.328557    54A      0.334340    55A      0.338845  
      56A      0.351819    57A      0.362349    58A      0.365343  
      59A      0.379457    60A      0.390234    61A      0.399362  
      62A      0.413459    63A      0.418222    64A      0.432624  
      65A      0.447198    66A      0.448237    67A      0.463489  
      68A      0.471882    69A      0.480188    70A      0.488812  
      71A      0.501185    72A      0.504110    73A      0.516829  
      74A      0.527008    75A      0.536477    76A      0.543484  
      77A      0.551681    78A      0.558465    79A      0.566680  
      80A      0.584798    81A      0.596906    82A      0.602790  
      83A      0.609745    84A      0.620629    85A      0.624478  
      86A      0.633855    87A      0.650868    88A      0.663978  
      89A      0.671851    90A      0.673840    91A      0.687768  
      92A      0.698999    93A      0.708598    94A      0.720259  
      95A      0.744647    96A      0.766261    97A      0.777144  
      98A      0.792961    99A      0.807878   100A      0.815339  
     101A      0.825856   102A      0.844764   103A      0.855750  
     104A      0.872651   105A      0.882852   106A      0.902588  
     107A      0.927146   108A      0.936464   109A      0.946174  
     110A      0.956312   111A      0.992966   112A      1.000966  
     113A      1.011187   114A      1.031995   115A      1.043292  
     116A      1.052907   117A      1.070722   118A      1.082064  
     119A      1.089477   120A      1.092067   121A      1.109040  
     122A      1.116303   123A      1.131349   124A      1.141184  
     125A      1.155954   126A      1.164846   127A      1.179464  
     128A      1.197644   129A      1.208628   130A      1.219702  
     131A      1.226926   132A      1.227927   133A      1.246173  
     134A      1.255382   135A      1.269931   136A      1.276557  
     137A      1.302230   138A      1.322371   139A      1.330538  
     140A      1.335523   141A      1.345174   142A      1.351482  
     143A      1.365487   144A      1.370110   145A      1.378021  
     146A      1.393193   147A      1.399060   148A      1.412179  
     149A      1.423090   150A      1.434121   151A      1.448769  
     152A      1.463382   153A      1.478184   154A      1.503197  
     155A      1.518360   156A      1.529178   157A      1.535455  
     158A      1.560925   159A      1.569613   160A      1.578910  
     161A      1.590474   162A      1.595773   163A      1.609178  
     164A      1.631063   165A      1.644764   166A      1.658883  
     167A      1.665988   168A      1.695517   169A      1.705788  
     170A      1.728208   171A      1.740345   172A      1.784922  
     173A      1.799365   174A      1.828421   175A      1.830081  
     176A      1.852355   177A      1.858682   178A      1.894550  
     179A      1.905261   180A      1.921475   181A      1.942204  
     182A      1.958827   183A      1.974528   184A      2.011216  
     185A      2.053564   186A      2.080840   187A      2.098133  
     188A      2.121256   189A      2.151518   190A      2.223827  
     191A      2.256355   192A      2.289716   193A      2.326319  
     194A      2.338773   195A      2.383056   196A      2.395980  
     197A      2.416850   198A      2.432915   199A      2.478217  
     200A      2.526397   201A      2.547295   202A      2.599213  
     203A      2.640098   204A      2.686628   205A      2.728723  
     206A      2.753408   207A      2.790006   208A      2.813055  
     209A      2.842698   210A      2.893779   211A      2.927783  
     212A      2.934223   213A      2.983888   214A      2.997297  
     215A      3.001324   216A      3.079479   217A      3.082851  
     218A      3.092769   219A      3.120191   220A      3.163132  
     221A      3.205160   222A      3.221685   223A      3.253236  
     224A      3.268266   225A      3.301345   226A      3.352857  
     227A      3.360256   228A      3.398204   229A      3.428838  
     230A      3.433032   231A      3.437715   232A      3.473596  
     233A      3.509502   234A      3.529198   235A      3.533995  
     236A      3.545727   237A      3.559711   238A      3.575145  
     239A      3.599870   240A      3.610312   241A      3.627241  
     242A      3.632681   243A      3.636481   244A      3.649817  
     245A      3.653685   246A      3.665557   247A      3.673773  
     248A      3.695531   249A      3.719056   250A      3.731146  
     251A      3.752883   252A      3.777685   253A      3.800673  
     254A      3.804066   255A      3.819380   256A      3.849698  
     257A      3.865176   258A      3.870862   259A      3.899396  
     260A      3.912552   261A      3.944780   262A      3.965040  
     263A      3.982056   264A      3.986314   265A      3.989319  
     266A      4.039512   267A      4.058368   268A      4.069437  
     269A      4.076851   270A      4.123848   271A      4.139138  
     272A      4.152987   273A      4.174946   274A      4.193758  
     275A      4.197545   276A      4.237178   277A      4.253167  
     278A      4.282662   279A      4.299957   280A      4.307289  
     281A      4.316882   282A      4.327623   283A      4.343672  
     284A      4.364109   285A      4.385939   286A      4.391794  
     287A      4.404962   288A      4.411428   289A      4.427878  
     290A      4.450467   291A      4.460917   292A      4.489402  
     293A      4.503248   294A      4.517708   295A      4.536357  
     296A      4.544808   297A      4.548860   298A      4.571256  
     299A      4.587347   300A      4.604238   301A      4.621688  
     302A      4.654274   303A      4.655660   304A      4.701670  
     305A      4.710519   306A      4.716202   307A      4.748710  
     308A      4.762649   309A      4.764190   310A      4.781417  
     311A      4.786835   312A      4.795388   313A      4.798213  
     314A      4.808637   315A      4.833412   316A      4.840313  
     317A      4.879953   318A      4.888320   319A      4.923290  
     320A      4.926438   321A      4.932203   322A      4.950168  
     323A      4.958592   324A      4.975310   325A      4.984700  
     326A      5.023634   327A      5.051138   328A      5.065989  
     329A      5.099591   330A      5.129752   331A      5.133361  
     332A      5.154243   333A      5.178895   334A      5.185700  
     335A      5.200831   336A      5.218720   337A      5.225857  
     338A      5.267732   339A      5.279216   340A      5.284781  
     341A      5.367717   342A      5.385019   343A      5.412767  
     344A      5.443026   345A      5.448037   346A      5.491258  
     347A      5.534164   348A      5.548228   349A      5.591764  
     350A      5.639261   351A      5.658967   352A      5.686497  
     353A      5.688427   354A      5.714129   355A      5.735358  
     356A      5.754816   357A      5.789158   358A      5.792562  
     359A      5.841084   360A      5.898720   361A      5.917793  
     362A      5.947461   363A      5.988153   364A      6.027318  
     365A      6.056055   366A      6.073879   367A      6.083813  
     368A      6.170684   369A      6.188731   370A      6.195590  
     371A      6.239028   372A      6.285056   373A      6.323738  
     374A      6.331322   375A      6.366480   376A      6.430231  
     377A      6.442052   378A      6.456228   379A      6.490635  
     380A      6.611129   381A      6.698070   382A      6.734902  
     383A      6.779293   384A      6.802272   385A      6.868764  
     386A      6.986738   387A      7.142935   388A      7.222244  
     389A      7.286943   390A      7.330163   391A      7.357616  
     392A      7.393734   393A      7.465295   394A      7.482925  
     395A      7.489846   396A      7.519019   397A      7.575930  
     398A      7.625964   399A      7.699913   400A      7.746903  
     401A      7.774358   402A      7.808153   403A      7.819495  
     404A      7.893083   405A      8.005005   406A      8.036542  
     407A      8.300753   408A      8.357942   409A      8.525027  
     410A      9.511855   411A      9.722063   412A      9.865472  
     413A      9.911972   414A     10.094651   415A     10.164097  
     416A     10.392080   417A     11.165112   418A     11.704561  
     419A     12.240085   420A     12.798466   421A     13.605889  
     422A     13.893892   423A     14.809352   424A     15.754049  
     425A     44.253671   426A     45.668887   427A     60.968684  

    Final Occupation by Irrep:
              A 
    DOCC [    16 ]

  @DF-RHF Final Energy:  -208.06111607488208

   => Energetics <=

    Nuclear Repulsion Energy =            121.7713898364814042
    One-Electron Energy =                -524.4468344767443568
    Two-Electron Energy =                 194.6143285653809016
    Total Energy =                       -208.0611160748820794

Computation Completed


Properties will be evaluated at   0.000000,   0.000000,   0.000000 [a0]

Properties computed using the SCF density matrix

  Nuclear Dipole Moment: [e a0]
     X:   104.1649      Y:    -0.3056      Z:     2.2991

  Electronic Dipole Moment: [e a0]
     X:  -103.3652      Y:     1.2547      Z:    -1.1024

  Dipole Moment: [e a0]
     X:     0.7996      Y:     0.9490      Z:     1.1967     Total:     1.7240

  Dipole Moment: [D]
     X:     2.0324      Y:     2.4122      Z:     3.0418     Total:     4.3820


*** tstop() called on r282 at Fri Sep 10 11:29:16 2021
Module time:
	user time   =      21.21 seconds =       0.35 minutes
	system time =       0.44 seconds =       0.01 minutes
	total time  =         22 seconds =       0.37 minutes
Total time:
	user time   =      60.16 seconds =       1.00 minutes
	system time =       1.38 seconds =       0.02 minutes
	total time  =         62 seconds =       1.03 minutes

  //>>>>>>>>>>>>>>>>>>>>>>>>>>>>>>>>>>>//
  //            Monomer B HF           //
  //<<<<<<<<<<<<<<<<<<<<<<<<<<<<<<<<<<<//


*** tstart() called on r282
*** at Fri Sep 10 11:29:16 2021

   => Loading Basis Set <=

    Name: JUN-CC-PVTZ
    Role: ORBITAL
    Keyword: BASIS
    atoms 1-2, 10-11 entry C          line   217 file /home/r08543048/miniconda3/share/psi4/basis/jun-cc-pvtz.gbs 
    atoms 3, 12      entry O          line   305 file /home/r08543048/miniconda3/share/psi4/basis/jun-cc-pvtz.gbs 
    atoms 4          entry N          line   261 file /home/r08543048/miniconda3/share/psi4/basis/jun-cc-pvtz.gbs 
    atoms 5-9, 13-18 entry H          line    36 file /home/r08543048/miniconda3/share/psi4/basis/jun-cc-pvtz.gbs 


         ---------------------------------------------------------
                                   SCF
               by Justin Turney, Rob Parrish, Andy Simmonett
                          and Daniel G. A. Smith
                              RHF Reference
                        1 Threads,  20980 MiB Core
         ---------------------------------------------------------

  ==> Geometry <==

    Molecular point group: c1
    Full point group: C1

    Geometry (in Angstrom), charge = 0, multiplicity = 1:

       Center              X                  Y                   Z               Mass       
    ------------   -----------------  -----------------  -----------------  -----------------
      Gh(C)           3.038459984963    -0.456149224872     0.155766594358    12.000000000000
      Gh(C)           1.603004984963    -0.044889224872    -0.047963405642    12.000000000000
      Gh(O)           0.888547984963    -0.616366224872    -0.875851405642    15.994914619570
      Gh(N)           1.150284984963     0.971552775128     0.720115594358    14.003074004430
      Gh(H)           3.547513984963     0.127498775128     0.919077594358     1.007825032230
      Gh(H)           3.058786984963    -1.508504224872     0.430697594358     1.007825032230
      Gh(H)           3.563502984963    -0.351028224872    -0.791207405642     1.007825032230
      Gh(H)           0.188367984963     1.272556775128     0.604668594358     1.007825032230
      Gh(H)           1.754331984963     1.434025775128     1.372589594358     1.007825032230
         C           -2.415071015037    -0.930498224872     0.827227594358    12.000000000000
         C           -2.639669015037     0.130646775128    -0.234079405642    12.000000000000
         O           -1.450303015037     0.858399775128    -0.527313405642    15.994914619570
         H           -1.673518015037    -1.654980224872     0.490334594358     1.007825032230
         H           -3.342999015037    -1.462343224872     1.040522594358     1.007825032230
         H           -2.056535015037    -0.475582224872     1.749912594358     1.007825032230
         H           -3.035499015037    -0.324286224872    -1.146297405642     1.007825032230
         H           -3.365632015037     0.867226775128     0.107607594358     1.007825032230
         H           -0.784528015037     0.224546775128    -0.860308405642     1.007825032230

  Running in c1 symmetry.

  Rotational constants: A =      0.16864  B =      0.03502  C =      0.03411 [cm^-1]
  Rotational constants: A =   5055.82287  B =   1049.85557  C =   1022.72678 [MHz]
  Nuclear repulsion =   81.717244484659233

  Charge       = 0
  Multiplicity = 1
  Electrons    = 26
  Nalpha       = 13
  Nbeta        = 13

  ==> Algorithm <==

  SCF Algorithm Type is DF.
  DIIS enabled.
  MOM disabled.
  Fractional occupation disabled.
  Guess Type is SAD.
  Energy threshold   = 1.00e-08
  Density threshold  = 1.00e-08
  Integral threshold = 0.00e+00

  ==> Primary Basis <==

  Basis Set: JUN-CC-PVTZ
    Blend: JUN-CC-PVTZ
    Number of shells: 157
    Number of basis function: 427
    Number of Cartesian functions: 480
    Spherical Harmonics?: true
    Max angular momentum: 3

   => Loading Basis Set <=

    Name: (JUN-CC-PVTZ AUX)
    Role: JKFIT
    Keyword: DF_BASIS_SCF
    atoms 1-2, 10-11 entry C          line   152 file /home/r08543048/miniconda3/share/psi4/basis/jun-cc-pvtz-jkfit.gbs 
    atoms 3, 12      entry O          line   272 file /home/r08543048/miniconda3/share/psi4/basis/jun-cc-pvtz-jkfit.gbs 
    atoms 4          entry N          line   212 file /home/r08543048/miniconda3/share/psi4/basis/jun-cc-pvtz-jkfit.gbs 
    atoms 5-9, 13-18 entry H          line    70 file /home/r08543048/miniconda3/share/psi4/basis/jun-cc-pvtz-jkfit.gbs 

  ==> Pre-Iterations <==

   -------------------------------------------------------
    Irrep   Nso     Nmo     Nalpha   Nbeta   Ndocc  Nsocc
   -------------------------------------------------------
     A        427     427       0       0       0       0
   -------------------------------------------------------
    Total     427     427      13      13      13       0
   -------------------------------------------------------

  ==> Integral Setup <==

  ==> DiskDFJK: Density-Fitted J/K Matrices <==

    J tasked:                  Yes
    K tasked:                  Yes
    wK tasked:                  No
    OpenMP threads:              1
    Integrals threads:           1
    Memory [MiB]:            15735
    Algorithm:                Core
    Integral Cache:           LOAD
    Schwarz Cutoff:          1E-12
    Fitting Condition:       1E-10

   => Auxiliary Basis Set <=

  Basis Set: (JUN-CC-PVTZ AUX)
    Blend: JUN-CC-PVTZ-JKFIT
    Number of shells: 313
    Number of basis function: 995
    Number of Cartesian functions: 1197
    Spherical Harmonics?: true
    Max angular momentum: 4

  Minimum eigenvalue in the overlap matrix is 5.3846655872E-05.
  Using Symmetric Orthogonalization.

  SCF Guess: Superposition of Atomic Densities via on-the-fly atomic UHF.

  ==> Iterations <==

                           Total Energy        Delta E     RMS |[F,P]|

   @DF-RHF iter SAD:  -153.42453989923345   -1.53425e+02   0.00000e+00 
   @DF-RHF iter   1:  -154.01106132959984   -5.86521e-01   1.17447e-03 DIIS
   @DF-RHF iter   2:  -154.11532241614628   -1.04261e-01   6.29541e-04 DIIS
   @DF-RHF iter   3:  -154.14189607835954   -2.65737e-02   1.08935e-04 DIIS
   @DF-RHF iter   4:  -154.14345503197589   -1.55895e-03   4.15322e-05 DIIS
   @DF-RHF iter   5:  -154.14364545635669   -1.90424e-04   7.91422e-06 DIIS
   @DF-RHF iter   6:  -154.14365572403403   -1.02677e-05   1.83757e-06 DIIS
   @DF-RHF iter   7:  -154.14365648104319   -7.57009e-07   5.26900e-07 DIIS
   @DF-RHF iter   8:  -154.14365653945012   -5.84069e-08   1.70264e-07 DIIS
   @DF-RHF iter   9:  -154.14365654596952   -6.51940e-09   4.40663e-08 DIIS
   @DF-RHF iter  10:  -154.14365654643331   -4.63785e-10   8.75896e-09 DIIS
  Energy and wave function converged.


  ==> Post-Iterations <==

    Orbital Energies [Eh]
    ---------------------

    Doubly Occupied:                                                      

       1A    -20.556522     2A    -11.274187     3A    -11.218048  
       4A     -1.352773     5A     -1.012936     6A     -0.847050  
       7A     -0.684022     8A     -0.623357     9A     -0.606017  
      10A     -0.544925    11A     -0.526657    12A     -0.482072  
      13A     -0.443109  

    Virtual:                                                              

      14A      0.031808    15A      0.053044    16A      0.055530  
      17A      0.060946    18A      0.068284    19A      0.075818  
      20A      0.081211    21A      0.099026    22A      0.102498  
      23A      0.108015    24A      0.110154    25A      0.113039  
      26A      0.131685    27A      0.138962    28A      0.153165  
      29A      0.155846    30A      0.164399    31A      0.175558  
      32A      0.185699    33A      0.189033    34A      0.199089  
      35A      0.215333    36A      0.216078    37A      0.221187  
      38A      0.247390    39A      0.257039    40A      0.262628  
      41A      0.272186    42A      0.274079    43A      0.287926  
      44A      0.294463    45A      0.299268    46A      0.303831  
      47A      0.310382    48A      0.324033    49A      0.328045  
      50A      0.337249    51A      0.343887    52A      0.347686  
      53A      0.352929    54A      0.367204    55A      0.372615  
      56A      0.378551    57A      0.382264    58A      0.397529  
      59A      0.405088    60A      0.412896    61A      0.425315  
      62A      0.432492    63A      0.433390    64A      0.456832  
      65A      0.459581    66A      0.466326    67A      0.476340  
      68A      0.488143    69A      0.501610    70A      0.507124  
      71A      0.509937    72A      0.515238    73A      0.531601  
      74A      0.536681    75A      0.548018    76A      0.560406  
      77A      0.578080    78A      0.587545    79A      0.630778  
      80A      0.637839    81A      0.643209    82A      0.656901  
      83A      0.657358    84A      0.669323    85A      0.677258  
      86A      0.688504    87A      0.698145    88A      0.722338  
      89A      0.737401    90A      0.753080    91A      0.766176  
      92A      0.770336    93A      0.773260    94A      0.783797  
      95A      0.786811    96A      0.812648    97A      0.818014  
      98A      0.827019    99A      0.845290   100A      0.848737  
     101A      0.865675   102A      0.871143   103A      0.876246  
     104A      0.888168   105A      0.899186   106A      0.924999  
     107A      0.933406   108A      0.941646   109A      0.969259  
     110A      0.980919   111A      0.992944   112A      1.007758  
     113A      1.011979   114A      1.036181   115A      1.044939  
     116A      1.067115   117A      1.072069   118A      1.080747  
     119A      1.083591   120A      1.087464   121A      1.104086  
     122A      1.121477   123A      1.166386   124A      1.178045  
     125A      1.188107   126A      1.203657   127A      1.209318  
     128A      1.223397   129A      1.253356   130A      1.262453  
     131A      1.274195   132A      1.293813   133A      1.305774  
     134A      1.314283   135A      1.328090   136A      1.351338  
     137A      1.355282   138A      1.373619   139A      1.379698  
     140A      1.391872   141A      1.400759   142A      1.412527  
     143A      1.434706   144A      1.443777   145A      1.458889  
     146A      1.472784   147A      1.480102   148A      1.487265  
     149A      1.497166   150A      1.519703   151A      1.526427  
     152A      1.537069   153A      1.546489   154A      1.548229  
     155A      1.582691   156A      1.586706   157A      1.596078  
     158A      1.629233   159A      1.633330   160A      1.637879  
     161A      1.657779   162A      1.662812   163A      1.688053  
     164A      1.716685   165A      1.732823   166A      1.738019  
     167A      1.756083   168A      1.769143   169A      1.798862  
     170A      1.805744   171A      1.826440   172A      1.835155  
     173A      1.856427   174A      1.870975   175A      1.872832  
     176A      1.897837   177A      1.912643   178A      1.950718  
     179A      1.960064   180A      1.982725   181A      1.997882  
     182A      2.043880   183A      2.077357   184A      2.114160  
     185A      2.152404   186A      2.184418   187A      2.228056  
     188A      2.328824   189A      2.351919   190A      2.369691  
     191A      2.379682   192A      2.393314   193A      2.415530  
     194A      2.460965   195A      2.526225   196A      2.539381  
     197A      2.582575   198A      2.612412   199A      2.648115  
     200A      2.656748   201A      2.696394   202A      2.747053  
     203A      2.790943   204A      2.802513   205A      2.824552  
     206A      2.843636   207A      2.850320   208A      2.876463  
     209A      2.885080   210A      2.893809   211A      2.967896  
     212A      2.989227   213A      3.017292   214A      3.032270  
     215A      3.040363   216A      3.087037   217A      3.093232  
     218A      3.150034   219A      3.189378   220A      3.230189  
     221A      3.249235   222A      3.269129   223A      3.281669  
     224A      3.305710   225A      3.340349   226A      3.344606  
     227A      3.381376   228A      3.421688   229A      3.443670  
     230A      3.445277   231A      3.482288   232A      3.484639  
     233A      3.504662   234A      3.532184   235A      3.551523  
     236A      3.565146   237A      3.581428   238A      3.586777  
     239A      3.600097   240A      3.611046   241A      3.633808  
     242A      3.645928   243A      3.666391   244A      3.680692  
     245A      3.712664   246A      3.722508   247A      3.771001  
     248A      3.800043   249A      3.812898   250A      3.837466  
     251A      3.846122   252A      3.853438   253A      3.871982  
     254A      3.888293   255A      3.903153   256A      3.906408  
     257A      3.925134   258A      3.955030   259A      3.978581  
     260A      4.005744   261A      4.006409   262A      4.019304  
     263A      4.048911   264A      4.076123   265A      4.090366  
     266A      4.118802   267A      4.154227   268A      4.180043  
     269A      4.222409   270A      4.233581   271A      4.245990  
     272A      4.273610   273A      4.274557   274A      4.285216  
     275A      4.291801   276A      4.300021   277A      4.309731  
     278A      4.313372   279A      4.329818   280A      4.341326  
     281A      4.378869   282A      4.407806   283A      4.416518  
     284A      4.429142   285A      4.448393   286A      4.482440  
     287A      4.487597   288A      4.489652   289A      4.503107  
     290A      4.513707   291A      4.537614   292A      4.555058  
     293A      4.585761   294A      4.609781   295A      4.615492  
     296A      4.633686   297A      4.644320   298A      4.658074  
     299A      4.686808   300A      4.699882   301A      4.711244  
     302A      4.725160   303A      4.741290   304A      4.754442  
     305A      4.766072   306A      4.768737   307A      4.773210  
     308A      4.798321   309A      4.807949   310A      4.817113  
     311A      4.842039   312A      4.850214   313A      4.858451  
     314A      4.866155   315A      4.884865   316A      4.897869  
     317A      4.920220   318A      4.946157   319A      4.969191  
     320A      4.988947   321A      4.994079   322A      5.042086  
     323A      5.055020   324A      5.066088   325A      5.118374  
     326A      5.129496   327A      5.137801   328A      5.153540  
     329A      5.178924   330A      5.192382   331A      5.202705  
     332A      5.225572   333A      5.246392   334A      5.272383  
     335A      5.279427   336A      5.298034   337A      5.308666  
     338A      5.397030   339A      5.421584   340A      5.460329  
     341A      5.536354   342A      5.582172   343A      5.614766  
     344A      5.657810   345A      5.685403   346A      5.704471  
     347A      5.732062   348A      5.741594   349A      5.764588  
     350A      5.832612   351A      5.851874   352A      5.905722  
     353A      5.932034   354A      5.939558   355A      5.966852  
     356A      5.979597   357A      6.026179   358A      6.063696  
     359A      6.085892   360A      6.143138   361A      6.206730  
     362A      6.259552   363A      6.294012   364A      6.297043  
     365A      6.347523   366A      6.391843   367A      6.434540  
     368A      6.447533   369A      6.468052   370A      6.476641  
     371A      6.495891   372A      6.553840   373A      6.564484  
     374A      6.574086   375A      6.664731   376A      6.710776  
     377A      6.738592   378A      6.856325   379A      6.927484  
     380A      6.943778   381A      7.046530   382A      7.097940  
     383A      7.212797   384A      7.323174   385A      7.330547  
     386A      7.341855   387A      7.389992   388A      7.442800  
     389A      7.450597   390A      7.521291   391A      7.539791  
     392A      7.574184   393A      7.666265   394A      7.742730  
     395A      7.803588   396A      7.846474   397A      7.849881  
     398A      7.868495   399A      7.905840   400A      8.050881  
     401A      8.128203   402A      8.265837   403A      8.484493  
     404A      8.811836   405A      9.084812   406A      9.101738  
     407A      9.121470   408A      9.431033   409A      9.806303  
     410A      9.842383   411A      9.887802   412A      9.989382  
     413A     10.171132   414A     10.548621   415A     10.894546  
     416A     11.431507   417A     11.575507   418A     11.650490  
     419A     11.965369   420A     13.648782   421A     13.775009  
     422A     13.817348   423A     14.652536   424A     42.730597  
     425A     46.221289   426A     55.413639   427A     60.687690  

    Final Occupation by Irrep:
              A 
    DOCC [    13 ]

  @DF-RHF Final Energy:  -154.14365654643331

   => Energetics <=

    Nuclear Repulsion Energy =             81.7172444846592327
    One-Electron Energy =                -371.3784492765109917
    Two-Electron Energy =                 135.5175482454184817
    Total Energy =                       -154.1436565464333057

Computation Completed


Properties will be evaluated at   0.000000,   0.000000,   0.000000 [a0]

Properties computed using the SCF density matrix

  Nuclear Dipole Moment: [e a0]
     X:  -106.1829      Y:    -1.4311      Z:     1.3647

  Electronic Dipole Moment: [e a0]
     X:   106.0529      Y:     0.7147      Z:    -1.3961

  Dipole Moment: [e a0]
     X:    -0.1300      Y:    -0.7165      Z:    -0.0314     Total:     0.7289

  Dipole Moment: [D]
     X:    -0.3305      Y:    -1.8211      Z:    -0.0799     Total:     1.8526


*** tstop() called on r282 at Fri Sep 10 11:29:34 2021
Module time:
	user time   =      17.70 seconds =       0.30 minutes
	system time =       0.44 seconds =       0.01 minutes
	total time  =         18 seconds =       0.30 minutes
Total time:
	user time   =      77.87 seconds =       1.30 minutes
	system time =       1.82 seconds =       0.03 minutes
	total time  =         80 seconds =       1.33 minutes
  Constructing Basis Sets for SAPT...

   => Loading Basis Set <=

    Name: (JUN-CC-PVTZ AUX)
    Role: RIFIT
    Keyword: DF_BASIS_SAPT
    atoms 1-2, 10-11 entry C          line   132 file /home/r08543048/miniconda3/share/psi4/basis/jun-cc-pvtz-ri.gbs 
    atoms 3, 12      entry O          line   244 file /home/r08543048/miniconda3/share/psi4/basis/jun-cc-pvtz-ri.gbs 
    atoms 4          entry N          line   188 file /home/r08543048/miniconda3/share/psi4/basis/jun-cc-pvtz-ri.gbs 
    atoms 5-9, 13-18 entry H          line    30 file /home/r08543048/miniconda3/share/psi4/basis/jun-cc-pvtz-ri.gbs 


  //>>>>>>>>>>>>>>>>>>>>>>>>>>>>>>>>>>>//
  //               SAPT0               //
  //<<<<<<<<<<<<<<<<<<<<<<<<<<<<<<<<<<<//


*** tstart() called on r282
*** at Fri Sep 10 11:29:34 2021

        SAPT0  
    Ed Hohenstein
     6 June 2009

      Orbital Information
  --------------------------
    NSO        =       427
    NMO        =       427
    NRI        =      1009
    NOCC A     =        16
    NOCC B     =        13
    FOCC A     =         0
    FOCC B     =         0
    NVIR A     =       411
    NVIR B     =       414

    Elst10,r            =    -0.030701217922 [Eh]
    Exch10              =     0.029981210010 [Eh]
    Exch10 (S^2)        =     0.029679693603 [Eh]

    Iter     Energy [mEh]          dE [mEh]         Residual      Time [s]
       1      -6.22464848       6.224648483      15.518028204             1
       2      -7.82124533       1.596596848       8.448534273             1
       3      -8.12595701       0.304711680       2.471486165             2
       4      -8.05557527      -0.070381738       0.914010174             2
       5      -8.04934596      -0.006229309       0.289062660             3
       6      -8.05657703       0.007231062       0.091207445             4
       7      -8.05676992       0.000192891       0.023857804             4
       8      -8.05628665      -0.000483268       0.006607330             5
       9      -8.05628359      -0.000003055       0.002048855             5
      10      -8.05631299       0.000029393       0.000476188             6
      11      -8.05631332       0.000000331       0.000134078             7
      12      -8.05631180      -0.000001517       0.000058991             7
      13      -8.05631181       0.000000012       0.000024483             8
      14      -8.05631210       0.000000283       0.000006649             8
      15      -8.05631205      -0.000000043       0.000001774             9
      16      -8.05631204      -0.000000014       0.000000413            10

    CHF Iterations converged


    Iter     Energy [mEh]          dE [mEh]         Residual      Time [s]
       1      -5.95988473       5.959884729      13.781480077             0
       2      -7.04425015       1.084365418       6.173628960             1
       3      -7.26260519       0.218355046       1.889794071             1
       4      -7.25139315      -0.011212047       0.628273025             2
       5      -7.22751504      -0.023878103       0.116990265             2
       6      -7.23078915       0.003274111       0.043223588             3
       7      -7.23114774       0.000358582       0.012677292             4
       8      -7.23084570      -0.000302033       0.003151587             4
       9      -7.23086544       0.000019733       0.000869150             5
      10      -7.23087319       0.000007756       0.000200585             5
      11      -7.23087157      -0.000001617       0.000060787             6
      12      -7.23087103      -0.000000547       0.000015888             7
      13      -7.23087119       0.000000162       0.000003243             8
      14      -7.23087119       0.000000005       0.000000695             8

    CHF Iterations converged

    Ind20,r (A<-B)      =    -0.008056312039 [Eh]
    Ind20,r (B<-A)      =    -0.007230871194 [Eh]
    Ind20,r             =    -0.015287183233 [Eh]
    Exch-Ind20,r (A<-B) =     0.004959624064 [Eh]
    Exch-Ind20,r (B<-A) =     0.004318647981 [Eh]
    Exch-Ind20,r        =     0.009278272045 [Eh]
    Disp20              =    -0.012387891630 [Eh]
    Disp20 (SS)         =    -0.006193945815 [Eh]
    Disp20 (OS)         =    -0.006193945815 [Eh]
    Exch-Disp20         =     0.002332479189 [Eh]
    Exch-Disp20 (SS)    =     0.001460583200 [Eh]
    Exch-Disp20 (OS)    =     0.000871895989 [Eh]

    SAPT Results 
  --------------------------------------------------------------------------------------------------------
    Electrostatics                -30.70121792 [mEh]     -19.26530510 [kcal/mol]     -80.60603655 [kJ/mol]
      Elst10,r                    -30.70121792 [mEh]     -19.26530510 [kcal/mol]     -80.60603655 [kJ/mol]

    Exchange                       29.98121001 [mEh]      18.81349332 [kcal/mol]      78.71565604 [kJ/mol]
      Exch10                       29.98121001 [mEh]      18.81349332 [kcal/mol]      78.71565604 [kJ/mol]
      Exch10(S^2)                  29.67969360 [mEh]      18.62428891 [kcal/mol]      77.92402482 [kJ/mol]

    Induction                     -10.03803038 [mEh]      -6.29895916 [kcal/mol]     -26.35484513 [kJ/mol]
      Ind20,r                     -15.28718323 [mEh]      -9.59285231 [kcal/mol]     -40.13649405 [kJ/mol]
      Exch-Ind20,r                  9.27827205 [mEh]       5.82220361 [kcal/mol]      24.36009990 [kJ/mol]
      delta HF,r (2)               -4.02911919 [mEh]      -2.52831046 [kcal/mol]     -10.57845098 [kJ/mol]

    Dispersion                    -10.05541244 [mEh]      -6.30986657 [kcal/mol]     -26.40048173 [kJ/mol]
      Disp20                      -12.38789163 [mEh]      -7.77351936 [kcal/mol]     -32.52440499 [kJ/mol]
      Exch-Disp20                   2.33247919 [mEh]       1.46365279 [kcal/mol]       6.12392327 [kJ/mol]
      Disp20 (SS)                  -6.19394581 [mEh]      -3.88675968 [kcal/mol]     -16.26220250 [kJ/mol]
      Disp20 (OS)                  -6.19394581 [mEh]      -3.88675968 [kcal/mol]     -16.26220250 [kJ/mol]
      Exch-Disp20 (SS)              1.46058320 [mEh]       0.91652979 [kcal/mol]       3.83476066 [kJ/mol]
      Exch-Disp20 (OS)              0.87189599 [mEh]       0.54712299 [kcal/mol]       2.28916260 [kJ/mol]

  Total HF                        -10.75803829 [mEh]      -6.75077095 [kcal/mol]     -28.24522564 [kJ/mol]
  Total SAPT0                     -20.81345073 [mEh]     -13.06063752 [kcal/mol]     -54.64570737 [kJ/mol]

  Special recipe for scaled SAPT0 (see Manual):
    Electrostatics sSAPT0         -30.70121792 [mEh]     -19.26530510 [kcal/mol]     -80.60603655 [kJ/mol]
    Exchange sSAPT0                29.98121001 [mEh]      18.81349332 [kcal/mol]      78.71565604 [kJ/mol]
    Induction sSAPT0               -9.75237367 [mEh]      -6.11970687 [kcal/mol]     -25.60485355 [kJ/mol]
    Dispersion sSAPT0              -9.98360076 [mEh]      -6.26480406 [kcal/mol]     -26.21194018 [kJ/mol]
  Total sSAPT0                    -20.45598234 [mEh]     -12.83632272 [kcal/mol]     -53.70717424 [kJ/mol]
  --------------------------------------------------------------------------------------------------------

*** tstop() called on r282 at Fri Sep 10 11:30:46 2021
Module time:
	user time   =      59.00 seconds =       0.98 minutes
	system time =      11.52 seconds =       0.19 minutes
	total time  =         72 seconds =       1.20 minutes
Total time:
	user time   =     136.99 seconds =       2.28 minutes
	system time =      13.34 seconds =       0.22 minutes
	total time  =        152 seconds =       2.53 minutes

    Psi4 stopped on: Friday, 10 September 2021 11:30AM
    Psi4 wall time for execution: 0:02:31.06

*** Psi4 exiting successfully. Buy a developer a beer!
