
    -----------------------------------------------------------------------
          Psi4: An Open-Source Ab Initio Electronic Structure Package
                               Psi4 1.3.2 release

                         Git: Rev {HEAD} ecbda83 


    R. M. Parrish, L. A. Burns, D. G. A. Smith, A. C. Simmonett,
    A. E. DePrince III, E. G. Hohenstein, U. Bozkaya, A. Yu. Sokolov,
    R. Di Remigio, R. M. Richard, J. F. Gonthier, A. M. James,
    H. R. McAlexander, A. Kumar, M. Saitow, X. Wang, B. P. Pritchard,
    P. Verma, H. F. Schaefer III, K. Patkowski, R. A. King, E. F. Valeev,
    F. A. Evangelista, J. M. Turney, T. D. Crawford, and C. D. Sherrill,
    J. Chem. Theory Comput. 13(7) pp 3185--3197 (2017).
    (doi: 10.1021/acs.jctc.7b00174)


                         Additional Contributions by
    P. Kraus, H. Kruse, M. H. Lechner, M. C. Schieber, R. A. Shaw,
    A. Alenaizan, R. Galvelis, Z. L. Glick, S. Lehtola, and J. P. Misiewicz

    -----------------------------------------------------------------------


    Psi4 started on: Friday, 10 September 2021 11:34AM

    Process ID: 56560
    Host:       r282
    PSIDATADIR: /home/r08543048/miniconda3/share/psi4
    Memory:     500.0 MiB
    Threads:    1
    
  ==> Input File <==

--------------------------------------------------------------------------
# Any line starting with the # character is a comment line
#! Sample  computation

memory 22 gb

molecule Dimer {
0 1
 C -2.650698   -0.295681    0.123389
 C -1.156520   -0.426091   -0.073990
 O -0.555512    0.254625   -0.910290
 N -0.527824   -1.338505    0.701018
 H  0.467132   -1.484601    0.567841
 H -1.040774   -1.892491    1.360725
 C -3.107646    1.151547    0.000788   
 H -2.791088    1.562507   -0.954559
 H -4.191731    1.218351    0.072628     
 H -2.672957    1.762508    0.790833
 H -3.121612   -0.902901   -0.653209
 H -2.942419   -0.721052    1.084568
 
 
 
 
 
  

 
 
     

    
    
 --
0 1
 C 2.611154    1.119169    0.808731 
 C 3.036804    0.138059   -0.268046
 O 2.007127   -0.795057   -0.583143
 H 1.747727    1.696579    0.477849
 H 3.421172    1.812549    1.037919
 H 2.340496    0.588895    1.721122
 H 3.344737    0.675604   -1.169219
 H 3.886703   -0.454737    0.067546 
 H 1.235900   -0.290234   -0.908944 






 
 







units angstrom

no_reorient
symmetry c1
}

set globals{
  basis jun-cc-pvtz
}

energy('sapt0')


--------------------------------------------------------------------------

  Memory set to  20.489 GiB by Python driver.

  //>>>>>>>>>>>>>>>>>>>>>>>>>>>>>>>>>>>//
  //              Dimer HF             //
  //<<<<<<<<<<<<<<<<<<<<<<<<<<<<<<<<<<<//


*** tstart() called on r282
*** at Fri Sep 10 11:34:36 2021

   => Loading Basis Set <=

    Name: JUN-CC-PVTZ
    Role: ORBITAL
    Keyword: BASIS
    atoms 1-2, 7, 13-14    entry C          line   217 file /home/r08543048/miniconda3/share/psi4/basis/jun-cc-pvtz.gbs 
    atoms 3, 15            entry O          line   305 file /home/r08543048/miniconda3/share/psi4/basis/jun-cc-pvtz.gbs 
    atoms 4                entry N          line   261 file /home/r08543048/miniconda3/share/psi4/basis/jun-cc-pvtz.gbs 
    atoms 5-6, 8-12, 16-21 entry H          line    36 file /home/r08543048/miniconda3/share/psi4/basis/jun-cc-pvtz.gbs 


         ---------------------------------------------------------
                                   SCF
               by Justin Turney, Rob Parrish, Andy Simmonett
                          and Daniel G. A. Smith
                              RHF Reference
                        1 Threads,  20980 MiB Core
         ---------------------------------------------------------

  ==> Geometry <==

    Molecular point group: c1
    Full point group: C1

    Geometry (in Angstrom), charge = 0, multiplicity = 1:

       Center              X                  Y                   Z               Mass       
    ------------   -----------------  -----------------  -----------------  -----------------
         C           -2.653260963236    -0.265919857137     0.152424844532    12.000000000000
         C           -1.159082963236    -0.396329857137    -0.044954155468    12.000000000000
         O           -0.558074963236     0.284386142863    -0.881254155468    15.994914619570
         N           -0.530386963236    -1.308743857137     0.730053844532    14.003074004430
         H            0.464569036764    -1.454839857137     0.596876844532     1.007825032230
         H           -1.043336963236    -1.862729857137     1.389760844532     1.007825032230
         C           -3.110208963236     1.181308142863     0.029823844532    12.000000000000
         H           -2.793650963236     1.592268142863    -0.925523155468     1.007825032230
         H           -4.194293963236     1.248112142863     0.101663844532     1.007825032230
         H           -2.675519963236     1.792269142863     0.819868844532     1.007825032230
         H           -3.124174963236    -0.873139857137    -0.624173155468     1.007825032230
         H           -2.944981963236    -0.691290857137     1.113603844532     1.007825032230
         C            2.608591036764     1.148930142863     0.837766844532    12.000000000000
         C            3.034241036764     0.167820142863    -0.239010155468    12.000000000000
         O            2.004564036764    -0.765295857137    -0.554107155468    15.994914619570
         H            1.745164036764     1.726340142863     0.506884844532     1.007825032230
         H            3.418609036764     1.842310142863     1.066954844532     1.007825032230
         H            2.337933036764     0.618656142863     1.750157844532     1.007825032230
         H            3.342174036764     0.705365142863    -1.140183155468     1.007825032230
         H            3.884140036764    -0.424975857137     0.096581844532     1.007825032230
         H            1.233337036764    -0.260472857137    -0.879908155468     1.007825032230

  Running in c1 symmetry.

  Rotational constants: A =      0.12180  B =      0.02678  C =      0.02497 [cm^-1]
  Rotational constants: A =   3651.60853  B =    802.97329  C =    748.51206 [MHz]
  Nuclear repulsion =  393.124804902720200

  Charge       = 0
  Multiplicity = 1
  Electrons    = 66
  Nalpha       = 33
  Nbeta        = 33

  ==> Algorithm <==

  SCF Algorithm Type is DF.
  DIIS enabled.
  MOM disabled.
  Fractional occupation disabled.
  Guess Type is SAD.
  Energy threshold   = 1.00e-08
  Density threshold  = 1.00e-08
  Integral threshold = 0.00e+00

  ==> Primary Basis <==

  Basis Set: JUN-CC-PVTZ
    Blend: JUN-CC-PVTZ
    Number of shells: 182
    Number of basis function: 494
    Number of Cartesian functions: 555
    Spherical Harmonics?: true
    Max angular momentum: 3

   => Loading Basis Set <=

    Name: (JUN-CC-PVTZ AUX)
    Role: JKFIT
    Keyword: DF_BASIS_SCF
    atoms 1-2, 7, 13-14    entry C          line   152 file /home/r08543048/miniconda3/share/psi4/basis/jun-cc-pvtz-jkfit.gbs 
    atoms 3, 15            entry O          line   272 file /home/r08543048/miniconda3/share/psi4/basis/jun-cc-pvtz-jkfit.gbs 
    atoms 4                entry N          line   212 file /home/r08543048/miniconda3/share/psi4/basis/jun-cc-pvtz-jkfit.gbs 
    atoms 5-6, 8-12, 16-21 entry H          line    70 file /home/r08543048/miniconda3/share/psi4/basis/jun-cc-pvtz-jkfit.gbs 

  ==> Pre-Iterations <==

   -------------------------------------------------------
    Irrep   Nso     Nmo     Nalpha   Nbeta   Ndocc  Nsocc
   -------------------------------------------------------
     A        494     494       0       0       0       0
   -------------------------------------------------------
    Total     494     494      33      33      33       0
   -------------------------------------------------------

  ==> Integral Setup <==

  ==> DiskDFJK: Density-Fitted J/K Matrices <==

    J tasked:                  Yes
    K tasked:                  Yes
    wK tasked:                  No
    OpenMP threads:              1
    Integrals threads:           1
    Memory [MiB]:            15735
    Algorithm:                Core
    Integral Cache:           SAVE
    Schwarz Cutoff:          1E-12
    Fitting Condition:       1E-10

   => Auxiliary Basis Set <=

  Basis Set: (JUN-CC-PVTZ AUX)
    Blend: JUN-CC-PVTZ-JKFIT
    Number of shells: 362
    Number of basis function: 1150
    Number of Cartesian functions: 1383
    Spherical Harmonics?: true
    Max angular momentum: 4

  Minimum eigenvalue in the overlap matrix is 4.0981278199E-05.
  Using Symmetric Orthogonalization.

  SCF Guess: Superposition of Atomic Densities via on-the-fly atomic UHF.

  ==> Iterations <==

                           Total Energy        Delta E     RMS |[F,P]|

   @DF-RHF iter SAD:  -399.94392600671324   -3.99944e+02   0.00000e+00 
   @DF-RHF iter   1:  -400.94161455946357   -9.97689e-01   1.60469e-03 DIIS
   @DF-RHF iter   2:  -401.19562865719234   -2.54014e-01   8.34400e-04 DIIS
   @DF-RHF iter   3:  -401.25817932422279   -6.25507e-02   1.64550e-04 DIIS
   @DF-RHF iter   4:  -401.26223139013644   -4.05207e-03   7.44568e-05 DIIS
   @DF-RHF iter   5:  -401.26297169744299   -7.40307e-04   1.38526e-05 DIIS
   @DF-RHF iter   6:  -401.26301706501368   -4.53676e-05   6.03513e-06 DIIS
   @DF-RHF iter   7:  -401.26302404589075   -6.98088e-06   2.13593e-06 DIIS
   @DF-RHF iter   8:  -401.26302551006580   -1.46418e-06   8.40545e-07 DIIS
   @DF-RHF iter   9:  -401.26302577954800   -2.69482e-07   2.58439e-07 DIIS
   @DF-RHF iter  10:  -401.26302580365677   -2.41088e-08   9.18422e-08 DIIS
   @DF-RHF iter  11:  -401.26302580581870   -2.16193e-09   2.62488e-08 DIIS
   @DF-RHF iter  12:  -401.26302580599736   -1.78659e-10   8.26822e-09 DIIS
  Energy and wave function converged.


  ==> Post-Iterations <==

    Orbital Energies [Eh]
    ---------------------

    Doubly Occupied:                                                      

       1A    -20.533396     2A    -20.524299     3A    -15.583997  
       4A    -11.358269     5A    -11.261409     6A    -11.245409  
       7A    -11.221544     8A    -11.205587     9A     -1.384204  
      10A     -1.336688    11A     -1.215311    12A     -1.057543  
      13A     -1.000628    14A     -0.898025    15A     -0.835627  
      16A     -0.788757    17A     -0.725203    18A     -0.693705  
      19A     -0.662338    20A     -0.635322    21A     -0.611366  
      22A     -0.606999    23A     -0.590344    24A     -0.567256  
      25A     -0.535515    26A     -0.527743    27A     -0.519351  
      28A     -0.513069    29A     -0.500172    30A     -0.471218  
      31A     -0.434350    32A     -0.423177    33A     -0.418823  

    Virtual:                                                              

      34A      0.042491    35A      0.053506    36A      0.059376  
      37A      0.066780    38A      0.073219    39A      0.078643  
      40A      0.081741    41A      0.095397    42A      0.100913  
      43A      0.106215    44A      0.110133    45A      0.114400  
      46A      0.118177    47A      0.123363    48A      0.143424  
      49A      0.148953    50A      0.155053    51A      0.157958  
      52A      0.171707    53A      0.184194    54A      0.190852  
      55A      0.198670    56A      0.203382    57A      0.210187  
      58A      0.234737    59A      0.238585    60A      0.249611  
      61A      0.251344    62A      0.261260    63A      0.270421  
      64A      0.280870    65A      0.282190    66A      0.283940  
      67A      0.290085    68A      0.297031    69A      0.302426  
      70A      0.309046    71A      0.312241    72A      0.320730  
      73A      0.321694    74A      0.328726    75A      0.333041  
      76A      0.339432    77A      0.343880    78A      0.346961  
      79A      0.351939    80A      0.358225    81A      0.363137  
      82A      0.368417    83A      0.375177    84A      0.383549  
      85A      0.397284    86A      0.405261    87A      0.417610  
      88A      0.425353    89A      0.436146    90A      0.450332  
      91A      0.458388    92A      0.471827    93A      0.475585  
      94A      0.479347    95A      0.490216    96A      0.494257  
      97A      0.500314    98A      0.510425    99A      0.522729  
     100A      0.525782   101A      0.527383   102A      0.529262  
     103A      0.540606   104A      0.549891   105A      0.564741  
     106A      0.570045   107A      0.583814   108A      0.594320  
     109A      0.601334   110A      0.608037   111A      0.616250  
     112A      0.623511   113A      0.640931   114A      0.650062  
     115A      0.662829   116A      0.669444   117A      0.689130  
     118A      0.699738   119A      0.709927   120A      0.714079  
     121A      0.731571   122A      0.733065   123A      0.738934  
     124A      0.752592   125A      0.756568   126A      0.770485  
     127A      0.777948   128A      0.788060   129A      0.796540  
     130A      0.799106   131A      0.809169   132A      0.814069  
     133A      0.819118   134A      0.826807   135A      0.846199  
     136A      0.854691   137A      0.863906   138A      0.868346  
     139A      0.882582   140A      0.889732   141A      0.899961  
     142A      0.910276   143A      0.914262   144A      0.923722  
     145A      0.925233   146A      0.945472   147A      0.960236  
     148A      0.965580   149A      0.980750   150A      0.987361  
     151A      1.010043   152A      1.025330   153A      1.044572  
     154A      1.060317   155A      1.060808   156A      1.070834  
     157A      1.076395   158A      1.090104   159A      1.097910  
     160A      1.103784   161A      1.117474   162A      1.132609  
     163A      1.140737   164A      1.174946   165A      1.188365  
     166A      1.201339   167A      1.212174   168A      1.236882  
     169A      1.246087   170A      1.257563   171A      1.279573  
     172A      1.295747   173A      1.305679   174A      1.321551  
     175A      1.333948   176A      1.341368   177A      1.349240  
     178A      1.361047   179A      1.366349   180A      1.372442  
     181A      1.377328   182A      1.387335   183A      1.395056  
     184A      1.407666   185A      1.413004   186A      1.418093  
     187A      1.425481   188A      1.429007   189A      1.439304  
     190A      1.452662   191A      1.467833   192A      1.474546  
     193A      1.486555   194A      1.499648   195A      1.503454  
     196A      1.520786   197A      1.533347   198A      1.550210  
     199A      1.556632   200A      1.561966   201A      1.576462  
     202A      1.593968   203A      1.597382   204A      1.609975  
     205A      1.627472   206A      1.637222   207A      1.647425  
     208A      1.665915   209A      1.671659   210A      1.683804  
     211A      1.692015   212A      1.704576   213A      1.718935  
     214A      1.738082   215A      1.752472   216A      1.763941  
     217A      1.793300   218A      1.795330   219A      1.808625  
     220A      1.829006   221A      1.845515   222A      1.860556  
     223A      1.869443   224A      1.886347   225A      1.901686  
     226A      1.920650   227A      1.937423   228A      1.958449  
     229A      1.971993   230A      1.995529   231A      2.030426  
     232A      2.043881   233A      2.087669   234A      2.165648  
     235A      2.177366   236A      2.253074   237A      2.293244  
     238A      2.317191   239A      2.391094   240A      2.399179  
     241A      2.451795   242A      2.472030   243A      2.487665  
     244A      2.515903   245A      2.550453   246A      2.619537  
     247A      2.665520   248A      2.703098   249A      2.747986  
     250A      2.780937   251A      2.818747   252A      2.828779  
     253A      2.846159   254A      2.852011   255A      2.863498  
     256A      2.878439   257A      2.883231   258A      2.901124  
     259A      2.905623   260A      2.934301   261A      2.960222  
     262A      2.973818   263A      2.987807   264A      3.013440  
     265A      3.017937   266A      3.060718   267A      3.070334  
     268A      3.101147   269A      3.119950   270A      3.121956  
     271A      3.145361   272A      3.160359   273A      3.162579  
     274A      3.197895   275A      3.227381   276A      3.235009  
     277A      3.246720   278A      3.251184   279A      3.274097  
     280A      3.288320   281A      3.299576   282A      3.315948  
     283A      3.337858   284A      3.342599   285A      3.364593  
     286A      3.370503   287A      3.385969   288A      3.392205  
     289A      3.407697   290A      3.421975   291A      3.433755  
     292A      3.439958   293A      3.455125   294A      3.458971  
     295A      3.466441   296A      3.477190   297A      3.479260  
     298A      3.489988   299A      3.498331   300A      3.513392  
     301A      3.519812   302A      3.535219   303A      3.538339  
     304A      3.546117   305A      3.558992   306A      3.566800  
     307A      3.577598   308A      3.599928   309A      3.613631  
     310A      3.619076   311A      3.642209   312A      3.643010  
     313A      3.667105   314A      3.674623   315A      3.682529  
     316A      3.709284   317A      3.715923   318A      3.734910  
     319A      3.753355   320A      3.775868   321A      3.802515  
     322A      3.809738   323A      3.814043   324A      3.829244  
     325A      3.836865   326A      3.846030   327A      3.856854  
     328A      3.867149   329A      3.894079   330A      3.913583  
     331A      3.922559   332A      3.930096   333A      3.951197  
     334A      3.967401   335A      3.974942   336A      3.990740  
     337A      4.003340   338A      4.006306   339A      4.037536  
     340A      4.061658   341A      4.071705   342A      4.093587  
     343A      4.109423   344A      4.128019   345A      4.167216  
     346A      4.190047   347A      4.197117   348A      4.210107  
     349A      4.223799   350A      4.237159   351A      4.260817  
     352A      4.265283   353A      4.272715   354A      4.278839  
     355A      4.289864   356A      4.306501   357A      4.315062  
     358A      4.327147   359A      4.329502   360A      4.343659  
     361A      4.366893   362A      4.378501   363A      4.390641  
     364A      4.403411   365A      4.417258   366A      4.424839  
     367A      4.441078   368A      4.451543   369A      4.456743  
     370A      4.469734   371A      4.473051   372A      4.484718  
     373A      4.493151   374A      4.502246   375A      4.513170  
     376A      4.521465   377A      4.532904   378A      4.538625  
     379A      4.570621   380A      4.599551   381A      4.612669  
     382A      4.626567   383A      4.637350   384A      4.655772  
     385A      4.669884   386A      4.678955   387A      4.684529  
     388A      4.701745   389A      4.731688   390A      4.738511  
     391A      4.762244   392A      4.773442   393A      4.798105  
     394A      4.816342   395A      4.829187   396A      4.848525  
     397A      4.877918   398A      4.905958   399A      4.929062  
     400A      4.938295   401A      4.975805   402A      5.002971  
     403A      5.030765   404A      5.063501   405A      5.147633  
     406A      5.169764   407A      5.179849   408A      5.199204  
     409A      5.216313   410A      5.226783   411A      5.238933  
     412A      5.250268   413A      5.265808   414A      5.279026  
     415A      5.283190   416A      5.289279   417A      5.298447  
     418A      5.309216   419A      5.320959   420A      5.349152  
     421A      5.359950   422A      5.384762   423A      5.427348  
     424A      5.461423   425A      5.468199   426A      5.482848  
     427A      5.531344   428A      5.549767   429A      5.568228  
     430A      5.599922   431A      5.645036   432A      5.649716  
     433A      5.714893   434A      5.732743   435A      5.741050  
     436A      5.745513   437A      5.749714   438A      5.766410  
     439A      5.778736   440A      5.783626   441A      5.812275  
     442A      5.844322   443A      5.861153   444A      5.894272  
     445A      5.906330   446A      5.929645   447A      5.946477  
     448A      5.955035   449A      5.985538   450A      5.999998  
     451A      6.025046   452A      6.063236   453A      6.089866  
     454A      6.132685   455A      6.210439   456A      6.218863  
     457A      6.309233   458A      6.329505   459A      6.407491  
     460A      6.480997   461A      6.484140   462A      6.490478  
     463A      6.496289   464A      6.520577   465A      6.557731  
     466A      6.626201   467A      6.712023   468A      6.766652  
     469A      6.828929   470A      6.954545   471A      7.052848  
     472A      7.200882   473A      7.225321   474A      7.298903  
     475A      7.363971   476A      7.407903   477A      7.415576  
     478A      7.469324   479A      7.490292   480A      7.549848  
     481A      7.637941   482A      7.689794   483A      7.767917  
     484A      7.813483   485A      7.942029   486A      8.188535  
     487A     12.258732   488A     13.686304   489A     13.805734  
     490A     13.977389   491A     14.093969   492A     14.556879  
     493A     14.728226   494A     15.811739  

    Final Occupation by Irrep:
              A 
    DOCC [    33 ]

  @DF-RHF Final Energy:  -401.26302580599736

   => Energetics <=

    Nuclear Repulsion Energy =            393.1248049027202001
    One-Electron Energy =               -1327.0023758885481584
    Two-Electron Energy =                 532.6145451798306567
    Total Energy =                       -401.2630258059973585

Computation Completed


Properties will be evaluated at   0.000000,   0.000000,   0.000000 [a0]

Properties computed using the SCF density matrix

  Nuclear Dipole Moment: [e a0]
     X:    -0.3197      Y:     3.7119      Z:     3.6214

  Electronic Dipole Moment: [e a0]
     X:    -0.4855      Y:    -3.9910      Z:    -2.5493

  Dipole Moment: [e a0]
     X:    -0.8052      Y:    -0.2792      Z:     1.0721     Total:     1.3695

  Dipole Moment: [D]
     X:    -2.0465      Y:    -0.7096      Z:     2.7250     Total:     3.4810


*** tstop() called on r282 at Fri Sep 10 11:35:35 2021
Module time:
	user time   =      58.06 seconds =       0.97 minutes
	system time =       1.36 seconds =       0.02 minutes
	total time  =         59 seconds =       0.98 minutes
Total time:
	user time   =      58.06 seconds =       0.97 minutes
	system time =       1.36 seconds =       0.02 minutes
	total time  =         59 seconds =       0.98 minutes

  //>>>>>>>>>>>>>>>>>>>>>>>>>>>>>>>>>>>//
  //            Monomer A HF           //
  //<<<<<<<<<<<<<<<<<<<<<<<<<<<<<<<<<<<//


*** tstart() called on r282
*** at Fri Sep 10 11:35:35 2021

   => Loading Basis Set <=

    Name: JUN-CC-PVTZ
    Role: ORBITAL
    Keyword: BASIS
    atoms 1-2, 7, 13-14    entry C          line   217 file /home/r08543048/miniconda3/share/psi4/basis/jun-cc-pvtz.gbs 
    atoms 3, 15            entry O          line   305 file /home/r08543048/miniconda3/share/psi4/basis/jun-cc-pvtz.gbs 
    atoms 4                entry N          line   261 file /home/r08543048/miniconda3/share/psi4/basis/jun-cc-pvtz.gbs 
    atoms 5-6, 8-12, 16-21 entry H          line    36 file /home/r08543048/miniconda3/share/psi4/basis/jun-cc-pvtz.gbs 


         ---------------------------------------------------------
                                   SCF
               by Justin Turney, Rob Parrish, Andy Simmonett
                          and Daniel G. A. Smith
                              RHF Reference
                        1 Threads,  20980 MiB Core
         ---------------------------------------------------------

  ==> Geometry <==

    Molecular point group: c1
    Full point group: C1

    Geometry (in Angstrom), charge = 0, multiplicity = 1:

       Center              X                  Y                   Z               Mass       
    ------------   -----------------  -----------------  -----------------  -----------------
         C           -2.653260963236    -0.265919857137     0.152424844532    12.000000000000
         C           -1.159082963236    -0.396329857137    -0.044954155468    12.000000000000
         O           -0.558074963236     0.284386142863    -0.881254155468    15.994914619570
         N           -0.530386963236    -1.308743857137     0.730053844532    14.003074004430
         H            0.464569036764    -1.454839857137     0.596876844532     1.007825032230
         H           -1.043336963236    -1.862729857137     1.389760844532     1.007825032230
         C           -3.110208963236     1.181308142863     0.029823844532    12.000000000000
         H           -2.793650963236     1.592268142863    -0.925523155468     1.007825032230
         H           -4.194293963236     1.248112142863     0.101663844532     1.007825032230
         H           -2.675519963236     1.792269142863     0.819868844532     1.007825032230
         H           -3.124174963236    -0.873139857137    -0.624173155468     1.007825032230
         H           -2.944981963236    -0.691290857137     1.113603844532     1.007825032230
      Gh(C)           2.608591036764     1.148930142863     0.837766844532    12.000000000000
      Gh(C)           3.034241036764     0.167820142863    -0.239010155468    12.000000000000
      Gh(O)           2.004564036764    -0.765295857137    -0.554107155468    15.994914619570
      Gh(H)           1.745164036764     1.726340142863     0.506884844532     1.007825032230
      Gh(H)           3.418609036764     1.842310142863     1.066954844532     1.007825032230
      Gh(H)           2.337933036764     0.618656142863     1.750157844532     1.007825032230
      Gh(H)           3.342174036764     0.705365142863    -1.140183155468     1.007825032230
      Gh(H)           3.884140036764    -0.424975857137     0.096581844532     1.007825032230
      Gh(H)           1.233337036764    -0.260472857137    -0.879908155468     1.007825032230

  Running in c1 symmetry.

  Rotational constants: A =      0.12180  B =      0.02678  C =      0.02497 [cm^-1]
  Rotational constants: A =   3651.60853  B =    802.97329  C =    748.51206 [MHz]
  Nuclear repulsion =  179.171253922965036

  Charge       = 0
  Multiplicity = 1
  Electrons    = 40
  Nalpha       = 20
  Nbeta        = 20

  ==> Algorithm <==

  SCF Algorithm Type is DF.
  DIIS enabled.
  MOM disabled.
  Fractional occupation disabled.
  Guess Type is SAD.
  Energy threshold   = 1.00e-08
  Density threshold  = 1.00e-08
  Integral threshold = 0.00e+00

  ==> Primary Basis <==

  Basis Set: JUN-CC-PVTZ
    Blend: JUN-CC-PVTZ
    Number of shells: 182
    Number of basis function: 494
    Number of Cartesian functions: 555
    Spherical Harmonics?: true
    Max angular momentum: 3

   => Loading Basis Set <=

    Name: (JUN-CC-PVTZ AUX)
    Role: JKFIT
    Keyword: DF_BASIS_SCF
    atoms 1-2, 7, 13-14    entry C          line   152 file /home/r08543048/miniconda3/share/psi4/basis/jun-cc-pvtz-jkfit.gbs 
    atoms 3, 15            entry O          line   272 file /home/r08543048/miniconda3/share/psi4/basis/jun-cc-pvtz-jkfit.gbs 
    atoms 4                entry N          line   212 file /home/r08543048/miniconda3/share/psi4/basis/jun-cc-pvtz-jkfit.gbs 
    atoms 5-6, 8-12, 16-21 entry H          line    70 file /home/r08543048/miniconda3/share/psi4/basis/jun-cc-pvtz-jkfit.gbs 

  ==> Pre-Iterations <==

   -------------------------------------------------------
    Irrep   Nso     Nmo     Nalpha   Nbeta   Ndocc  Nsocc
   -------------------------------------------------------
     A        494     494       0       0       0       0
   -------------------------------------------------------
    Total     494     494      20      20      20       0
   -------------------------------------------------------

  ==> Integral Setup <==

  ==> DiskDFJK: Density-Fitted J/K Matrices <==

    J tasked:                  Yes
    K tasked:                  Yes
    wK tasked:                  No
    OpenMP threads:              1
    Integrals threads:           1
    Memory [MiB]:            15735
    Algorithm:                Core
    Integral Cache:           LOAD
    Schwarz Cutoff:          1E-12
    Fitting Condition:       1E-10

   => Auxiliary Basis Set <=

  Basis Set: (JUN-CC-PVTZ AUX)
    Blend: JUN-CC-PVTZ-JKFIT
    Number of shells: 362
    Number of basis function: 1150
    Number of Cartesian functions: 1383
    Spherical Harmonics?: true
    Max angular momentum: 4

  Minimum eigenvalue in the overlap matrix is 4.0981278199E-05.
  Using Symmetric Orthogonalization.

  SCF Guess: Superposition of Atomic Densities via on-the-fly atomic UHF.

  ==> Iterations <==

                           Total Energy        Delta E     RMS |[F,P]|

   @DF-RHF iter SAD:  -246.29945895595483   -2.46299e+02   0.00000e+00 
   @DF-RHF iter   1:  -246.89338233202511   -5.93923e-01   1.32439e-03 DIIS
   @DF-RHF iter   2:  -247.05409279711910   -1.60710e-01   7.68475e-04 DIIS
   @DF-RHF iter   3:  -247.10512118923199   -5.10284e-02   1.50612e-04 DIIS
   @DF-RHF iter   4:  -247.10815696853584   -3.03578e-03   6.50028e-05 DIIS
   @DF-RHF iter   5:  -247.10879565515040   -6.38687e-04   1.02953e-05 DIIS
   @DF-RHF iter   6:  -247.10883187275095   -3.62176e-05   4.08469e-06 DIIS
   @DF-RHF iter   7:  -247.10883652687565   -4.65412e-06   1.77348e-06 DIIS
   @DF-RHF iter   8:  -247.10883755400675   -1.02713e-06   7.11919e-07 DIIS
   @DF-RHF iter   9:  -247.10883774573261   -1.91726e-07   1.65564e-07 DIIS
   @DF-RHF iter  10:  -247.10883775677922   -1.10466e-08   4.12647e-08 DIIS
   @DF-RHF iter  11:  -247.10883775727245   -4.93230e-10   1.17457e-08 DIIS
   @DF-RHF iter  12:  -247.10883775731648   -4.40252e-11   3.14778e-09 DIIS
  Energy and wave function converged.


  ==> Post-Iterations <==

    Orbital Energies [Eh]
    ---------------------

    Doubly Occupied:                                                      

       1A    -20.512357     2A    -15.589812     3A    -11.349382  
       4A    -11.241356     5A    -11.217110     6A     -1.368596  
       7A     -1.214976     8A     -1.052779     9A     -0.893869  
      10A     -0.786933    11A     -0.725571    12A     -0.672331  
      13A     -0.630526    14A     -0.594992    15A     -0.561514  
      16A     -0.524102    17A     -0.514077    18A     -0.495156  
      19A     -0.419528    20A     -0.413059  

    Virtual:                                                              

      21A      0.037379    22A      0.046534    23A      0.052211  
      24A      0.059493    25A      0.068004    26A      0.077906  
      27A      0.078786    28A      0.092564    29A      0.099766  
      30A      0.104695    31A      0.105738    32A      0.114740  
      33A      0.116912    34A      0.118816    35A      0.134640  
      36A      0.145307    37A      0.147598    38A      0.159940  
      39A      0.163223    40A      0.171136    41A      0.176983  
      42A      0.191469    43A      0.195705    44A      0.202845  
      45A      0.211159    46A      0.217908    47A      0.228690  
      48A      0.246105    49A      0.248949    50A      0.257035  
      51A      0.258983    52A      0.265846    53A      0.281243  
      54A      0.286440    55A      0.294578    56A      0.299113  
      57A      0.306078    58A      0.312976    59A      0.318296  
      60A      0.324320    61A      0.326256    62A      0.335322  
      63A      0.341703    64A      0.344808    65A      0.346261  
      66A      0.355536    67A      0.358703    68A      0.372349  
      69A      0.382250    70A      0.394621    71A      0.397489  
      72A      0.399337    73A      0.414990    74A      0.423600  
      75A      0.431318    76A      0.438150    77A      0.448892  
      78A      0.459908    79A      0.466019    80A      0.478556  
      81A      0.481478    82A      0.484059    83A      0.496483  
      84A      0.500162    85A      0.504637    86A      0.517041  
      87A      0.520726    88A      0.532120    89A      0.542313  
      90A      0.549375    91A      0.553688    92A      0.558580  
      93A      0.566648    94A      0.580197    95A      0.591480  
      96A      0.602055    97A      0.610083    98A      0.612943  
      99A      0.626269   100A      0.634890   101A      0.635665  
     102A      0.648302   103A      0.657646   104A      0.659740  
     105A      0.675240   106A      0.685620   107A      0.691323  
     108A      0.706768   109A      0.729474   110A      0.742607  
     111A      0.748220   112A      0.767243   113A      0.779868  
     114A      0.793031   115A      0.794432   116A      0.800404  
     117A      0.813519   118A      0.821766   119A      0.835064  
     120A      0.856492   121A      0.859931   122A      0.870826  
     123A      0.888003   124A      0.897232   125A      0.903223  
     126A      0.917735   127A      0.930245   128A      0.938554  
     129A      0.951799   130A      0.971173   131A      0.981330  
     132A      0.999022   133A      1.003236   134A      1.011684  
     135A      1.035889   136A      1.040269   137A      1.056451  
     138A      1.072373   139A      1.073628   140A      1.087026  
     141A      1.095829   142A      1.103246   143A      1.115475  
     144A      1.126490   145A      1.139498   146A      1.155834  
     147A      1.157311   148A      1.177097   149A      1.184161  
     150A      1.198078   151A      1.208046   152A      1.222730  
     153A      1.227006   154A      1.235071   155A      1.252637  
     156A      1.255675   157A      1.280190   158A      1.284395  
     159A      1.307001   160A      1.313030   161A      1.323797  
     162A      1.333589   163A      1.340083   164A      1.343837  
     165A      1.351044   166A      1.361045   167A      1.366000  
     168A      1.380806   169A      1.394028   170A      1.399486  
     171A      1.416505   172A      1.423781   173A      1.438340  
     174A      1.445656   175A      1.451137   176A      1.461207  
     177A      1.464750   178A      1.487089   179A      1.498632  
     180A      1.521331   181A      1.523733   182A      1.529006  
     183A      1.532067   184A      1.554682   185A      1.559461  
     186A      1.580662   187A      1.587495   188A      1.592307  
     189A      1.599563   190A      1.616509   191A      1.623661  
     192A      1.644324   193A      1.658818   194A      1.667725  
     195A      1.674376   196A      1.687948   197A      1.702556  
     198A      1.722004   199A      1.733301   200A      1.761111  
     201A      1.782274   202A      1.795161   203A      1.815185  
     204A      1.828612   205A      1.832006   206A      1.837950  
     207A      1.868361   208A      1.881412   209A      1.889356  
     210A      1.916484   211A      1.921640   212A      1.951093  
     213A      1.962154   214A      1.995332   215A      2.003723  
     216A      2.019328   217A      2.029695   218A      2.082067  
     219A      2.100464   220A      2.123485   221A      2.130949  
     222A      2.180091   223A      2.240977   224A      2.265189  
     225A      2.310443   226A      2.338033   227A      2.345047  
     228A      2.390913   229A      2.413095   230A      2.429893  
     231A      2.464522   232A      2.511815   233A      2.534438  
     234A      2.553452   235A      2.611618   236A      2.688370  
     237A      2.701457   238A      2.731270   239A      2.800853  
     240A      2.805128   241A      2.835416   242A      2.848207  
     243A      2.865906   244A      2.884302   245A      2.914917  
     246A      2.926812   247A      2.933874   248A      2.947605  
     249A      2.979259   250A      3.003073   251A      3.029812  
     252A      3.054562   253A      3.082772   254A      3.109819  
     255A      3.128826   256A      3.140915   257A      3.152817  
     258A      3.177429   259A      3.203387   260A      3.225905  
     261A      3.248574   262A      3.287110   263A      3.335298  
     264A      3.347211   265A      3.356638   266A      3.376611  
     267A      3.396868   268A      3.407332   269A      3.438931  
     270A      3.445209   271A      3.463023   272A      3.475339  
     273A      3.481067   274A      3.495649   275A      3.513836  
     276A      3.520792   277A      3.536048   278A      3.540183  
     279A      3.561754   280A      3.569881   281A      3.577098  
     282A      3.601659   283A      3.614672   284A      3.615152  
     285A      3.627932   286A      3.638130   287A      3.654741  
     288A      3.663211   289A      3.671309   290A      3.687841  
     291A      3.699075   292A      3.719784   293A      3.732470  
     294A      3.748569   295A      3.755195   296A      3.794198  
     297A      3.806502   298A      3.816043   299A      3.827555  
     300A      3.840344   301A      3.849665   302A      3.854311  
     303A      3.871310   304A      3.893521   305A      3.907019  
     306A      3.930110   307A      3.934591   308A      3.970812  
     309A      3.974345   310A      3.983137   311A      3.997735  
     312A      4.008551   313A      4.027812   314A      4.056930  
     315A      4.080659   316A      4.091267   317A      4.107992  
     318A      4.117619   319A      4.146294   320A      4.175762  
     321A      4.197016   322A      4.213440   323A      4.227916  
     324A      4.232064   325A      4.241322   326A      4.271596  
     327A      4.273493   328A      4.298686   329A      4.304961  
     330A      4.315796   331A      4.319132   332A      4.326094  
     333A      4.342330   334A      4.359113   335A      4.374761  
     336A      4.396398   337A      4.403860   338A      4.422500  
     339A      4.429280   340A      4.442563   341A      4.451094  
     342A      4.463376   343A      4.478798   344A      4.482777  
     345A      4.494766   346A      4.504969   347A      4.517569  
     348A      4.532132   349A      4.542032   350A      4.554358  
     351A      4.581380   352A      4.594533   353A      4.604235  
     354A      4.616455   355A      4.651501   356A      4.656521  
     357A      4.679817   358A      4.684051   359A      4.700550  
     360A      4.718912   361A      4.726705   362A      4.743375  
     363A      4.752657   364A      4.762731   365A      4.780747  
     366A      4.790662   367A      4.809330   368A      4.810953  
     369A      4.813268   370A      4.835419   371A      4.849727  
     372A      4.884746   373A      4.891122   374A      4.898309  
     375A      4.920984   376A      4.925113   377A      4.944219  
     378A      4.951634   379A      4.960415   380A      4.973814  
     381A      4.981545   382A      5.011790   383A      5.018781  
     384A      5.033404   385A      5.057969   386A      5.071860  
     387A      5.108015   388A      5.136083   389A      5.159403  
     390A      5.164959   391A      5.180823   392A      5.193582  
     393A      5.223039   394A      5.225312   395A      5.266682  
     396A      5.278572   397A      5.280790   398A      5.284549  
     399A      5.299648   400A      5.306067   401A      5.349273  
     402A      5.362835   403A      5.383200   404A      5.409361  
     405A      5.443690   406A      5.474396   407A      5.477306  
     408A      5.526503   409A      5.553612   410A      5.571307  
     411A      5.647260   412A      5.654989   413A      5.714258  
     414A      5.727128   415A      5.739821   416A      5.740812  
     417A      5.757502   418A      5.782012   419A      5.791176  
     420A      5.806614   421A      5.827729   422A      5.867044  
     423A      5.892946   424A      5.904145   425A      5.941042  
     426A      5.967731   427A      5.995847   428A      6.022191  
     429A      6.033253   430A      6.064512   431A      6.077682  
     432A      6.095651   433A      6.173655   434A      6.198145  
     435A      6.207817   436A      6.228440   437A      6.302193  
     438A      6.329367   439A      6.345759   440A      6.371048  
     441A      6.454731   442A      6.487807   443A      6.493262  
     444A      6.502121   445A      6.526774   446A      6.626230  
     447A      6.710351   448A      6.736982   449A      6.779393  
     450A      6.833138   451A      6.871217   452A      6.987805  
     453A      7.146224   454A      7.238015   455A      7.315099  
     456A      7.330431   457A      7.382890   458A      7.395511  
     459A      7.472423   460A      7.498148   461A      7.505528  
     462A      7.532737   463A      7.578466   464A      7.626806  
     465A      7.702012   466A      7.760818   467A      7.780815  
     468A      7.811527   469A      7.833260   470A      7.898899  
     471A      8.006261   472A      8.045833   473A      8.304635  
     474A      8.358518   475A      8.534738   476A      9.514887  
     477A      9.727892   478A      9.875338   479A      9.921062  
     480A     10.098203   481A     10.165970   482A     10.393725  
     483A     11.169566   484A     11.714263   485A     12.283985  
     486A     12.802135   487A     13.631206   488A     14.000219  
     489A     14.121721   490A     14.573299   491A     15.805680  
     492A     44.275813   493A     45.700107   494A     61.018160  

    Final Occupation by Irrep:
              A 
    DOCC [    20 ]

  @DF-RHF Final Energy:  -247.10883775731648

   => Energetics <=

    Nuclear Repulsion Energy =            179.1712539229650361
    One-Electron Energy =                -691.0041328473889735
    Two-Electron Energy =                 264.7240411671074298
    Total Energy =                       -247.1088377573165076

Computation Completed


Properties will be evaluated at   0.000000,   0.000000,   0.000000 [a0]

Properties computed using the SCF density matrix

  Nuclear Dipole Moment: [e a0]
     X:  -124.7673      Y:    -7.5988      Z:     2.5628

  Electronic Dipole Moment: [e a0]
     X:   124.1613      Y:     6.5780      Z:    -1.4255

  Dipole Moment: [e a0]
     X:    -0.6060      Y:    -1.0208      Z:     1.1374     Total:     1.6440

  Dipole Moment: [D]
     X:    -1.5403      Y:    -2.5945      Z:     2.8909     Total:     4.1787


*** tstop() called on r282 at Fri Sep 10 11:36:13 2021
Module time:
	user time   =      36.69 seconds =       0.61 minutes
	system time =       0.67 seconds =       0.01 minutes
	total time  =         38 seconds =       0.63 minutes
Total time:
	user time   =      94.75 seconds =       1.58 minutes
	system time =       2.03 seconds =       0.03 minutes
	total time  =         97 seconds =       1.62 minutes

  //>>>>>>>>>>>>>>>>>>>>>>>>>>>>>>>>>>>//
  //            Monomer B HF           //
  //<<<<<<<<<<<<<<<<<<<<<<<<<<<<<<<<<<<//


*** tstart() called on r282
*** at Fri Sep 10 11:36:13 2021

   => Loading Basis Set <=

    Name: JUN-CC-PVTZ
    Role: ORBITAL
    Keyword: BASIS
    atoms 1-2, 7, 13-14    entry C          line   217 file /home/r08543048/miniconda3/share/psi4/basis/jun-cc-pvtz.gbs 
    atoms 3, 15            entry O          line   305 file /home/r08543048/miniconda3/share/psi4/basis/jun-cc-pvtz.gbs 
    atoms 4                entry N          line   261 file /home/r08543048/miniconda3/share/psi4/basis/jun-cc-pvtz.gbs 
    atoms 5-6, 8-12, 16-21 entry H          line    36 file /home/r08543048/miniconda3/share/psi4/basis/jun-cc-pvtz.gbs 


         ---------------------------------------------------------
                                   SCF
               by Justin Turney, Rob Parrish, Andy Simmonett
                          and Daniel G. A. Smith
                              RHF Reference
                        1 Threads,  20980 MiB Core
         ---------------------------------------------------------

  ==> Geometry <==

    Molecular point group: c1
    Full point group: C1

    Geometry (in Angstrom), charge = 0, multiplicity = 1:

       Center              X                  Y                   Z               Mass       
    ------------   -----------------  -----------------  -----------------  -----------------
      Gh(C)          -2.653260963236    -0.265919857137     0.152424844532    12.000000000000
      Gh(C)          -1.159082963236    -0.396329857137    -0.044954155468    12.000000000000
      Gh(O)          -0.558074963236     0.284386142863    -0.881254155468    15.994914619570
      Gh(N)          -0.530386963236    -1.308743857137     0.730053844532    14.003074004430
      Gh(H)           0.464569036764    -1.454839857137     0.596876844532     1.007825032230
      Gh(H)          -1.043336963236    -1.862729857137     1.389760844532     1.007825032230
      Gh(C)          -3.110208963236     1.181308142863     0.029823844532    12.000000000000
      Gh(H)          -2.793650963236     1.592268142863    -0.925523155468     1.007825032230
      Gh(H)          -4.194293963236     1.248112142863     0.101663844532     1.007825032230
      Gh(H)          -2.675519963236     1.792269142863     0.819868844532     1.007825032230
      Gh(H)          -3.124174963236    -0.873139857137    -0.624173155468     1.007825032230
      Gh(H)          -2.944981963236    -0.691290857137     1.113603844532     1.007825032230
         C            2.608591036764     1.148930142863     0.837766844532    12.000000000000
         C            3.034241036764     0.167820142863    -0.239010155468    12.000000000000
         O            2.004564036764    -0.765295857137    -0.554107155468    15.994914619570
         H            1.745164036764     1.726340142863     0.506884844532     1.007825032230
         H            3.418609036764     1.842310142863     1.066954844532     1.007825032230
         H            2.337933036764     0.618656142863     1.750157844532     1.007825032230
         H            3.342174036764     0.705365142863    -1.140183155468     1.007825032230
         H            3.884140036764    -0.424975857137     0.096581844532     1.007825032230
         H            1.233337036764    -0.260472857137    -0.879908155468     1.007825032230

  Running in c1 symmetry.

  Rotational constants: A =      0.12180  B =      0.02678  C =      0.02497 [cm^-1]
  Rotational constants: A =   3651.60853  B =    802.97329  C =    748.51206 [MHz]
  Nuclear repulsion =   81.717244624452093

  Charge       = 0
  Multiplicity = 1
  Electrons    = 26
  Nalpha       = 13
  Nbeta        = 13

  ==> Algorithm <==

  SCF Algorithm Type is DF.
  DIIS enabled.
  MOM disabled.
  Fractional occupation disabled.
  Guess Type is SAD.
  Energy threshold   = 1.00e-08
  Density threshold  = 1.00e-08
  Integral threshold = 0.00e+00

  ==> Primary Basis <==

  Basis Set: JUN-CC-PVTZ
    Blend: JUN-CC-PVTZ
    Number of shells: 182
    Number of basis function: 494
    Number of Cartesian functions: 555
    Spherical Harmonics?: true
    Max angular momentum: 3

   => Loading Basis Set <=

    Name: (JUN-CC-PVTZ AUX)
    Role: JKFIT
    Keyword: DF_BASIS_SCF
    atoms 1-2, 7, 13-14    entry C          line   152 file /home/r08543048/miniconda3/share/psi4/basis/jun-cc-pvtz-jkfit.gbs 
    atoms 3, 15            entry O          line   272 file /home/r08543048/miniconda3/share/psi4/basis/jun-cc-pvtz-jkfit.gbs 
    atoms 4                entry N          line   212 file /home/r08543048/miniconda3/share/psi4/basis/jun-cc-pvtz-jkfit.gbs 
    atoms 5-6, 8-12, 16-21 entry H          line    70 file /home/r08543048/miniconda3/share/psi4/basis/jun-cc-pvtz-jkfit.gbs 

  ==> Pre-Iterations <==

   -------------------------------------------------------
    Irrep   Nso     Nmo     Nalpha   Nbeta   Ndocc  Nsocc
   -------------------------------------------------------
     A        494     494       0       0       0       0
   -------------------------------------------------------
    Total     494     494      13      13      13       0
   -------------------------------------------------------

  ==> Integral Setup <==

  ==> DiskDFJK: Density-Fitted J/K Matrices <==

    J tasked:                  Yes
    K tasked:                  Yes
    wK tasked:                  No
    OpenMP threads:              1
    Integrals threads:           1
    Memory [MiB]:            15735
    Algorithm:                Core
    Integral Cache:           LOAD
    Schwarz Cutoff:          1E-12
    Fitting Condition:       1E-10

   => Auxiliary Basis Set <=

  Basis Set: (JUN-CC-PVTZ AUX)
    Blend: JUN-CC-PVTZ-JKFIT
    Number of shells: 362
    Number of basis function: 1150
    Number of Cartesian functions: 1383
    Spherical Harmonics?: true
    Max angular momentum: 4

  Minimum eigenvalue in the overlap matrix is 4.0981278199E-05.
  Using Symmetric Orthogonalization.

  SCF Guess: Superposition of Atomic Densities via on-the-fly atomic UHF.

  ==> Iterations <==

                           Total Energy        Delta E     RMS |[F,P]|

   @DF-RHF iter SAD:  -153.42468468720676   -1.53425e+02   0.00000e+00 
   @DF-RHF iter   1:  -154.01109007628702   -5.86405e-01   1.01501e-03 DIIS
   @DF-RHF iter   2:  -154.11533557355722   -1.04245e-01   5.44013e-04 DIIS
   @DF-RHF iter   3:  -154.14189265616471   -2.65571e-02   9.41598e-05 DIIS
   @DF-RHF iter   4:  -154.14345154421954   -1.55889e-03   3.58961e-05 DIIS
   @DF-RHF iter   5:  -154.14364196666918   -1.90422e-04   6.84238e-06 DIIS
   @DF-RHF iter   6:  -154.14365223590372   -1.02692e-05   1.58840e-06 DIIS
   @DF-RHF iter   7:  -154.14365299301360   -7.57110e-07   4.55175e-07 DIIS
   @DF-RHF iter   8:  -154.14365305136374   -5.83501e-08   1.47079e-07 DIIS
   @DF-RHF iter   9:  -154.14365305786831   -6.50456e-09   3.80794e-08 DIIS
   @DF-RHF iter  10:  -154.14365305833286   -4.64553e-10   7.56830e-09 DIIS
  Energy and wave function converged.


  ==> Post-Iterations <==

    Orbital Energies [Eh]
    ---------------------

    Doubly Occupied:                                                      

       1A    -20.556574     2A    -11.274200     3A    -11.218111  
       4A     -1.352862     5A     -1.012919     6A     -0.847044  
       7A     -0.684009     8A     -0.623318     9A     -0.606100  
      10A     -0.544937    11A     -0.526701    12A     -0.482157  
      13A     -0.443120  

    Virtual:                                                              

      14A      0.028910    15A      0.050907    16A      0.052652  
      17A      0.055344    18A      0.065451    19A      0.071293  
      20A      0.077118    21A      0.092713    22A      0.095181  
      23A      0.096630    24A      0.103593    25A      0.107383  
      26A      0.114067    27A      0.119335    28A      0.132474  
      29A      0.142099    30A      0.149947    31A      0.152299  
      32A      0.158766    33A      0.165821    34A      0.172680  
      35A      0.185560    36A      0.190891    37A      0.204550  
      38A      0.208168    39A      0.217663    40A      0.221609  
      41A      0.225134    42A      0.247590    43A      0.251452  
      44A      0.267430    45A      0.271507    46A      0.281032  
      47A      0.286187    48A      0.291617    49A      0.295999  
      50A      0.304975    51A      0.318617    52A      0.322070  
      53A      0.325441    54A      0.332100    55A      0.335483  
      56A      0.342359    57A      0.348689    58A      0.355188  
      59A      0.356190    60A      0.366287    61A      0.376426  
      62A      0.378370    63A      0.387218    64A      0.397543  
      65A      0.402637    66A      0.410210    67A      0.417775  
      68A      0.426769    69A      0.434086    70A      0.439211  
      71A      0.450925    72A      0.454511    73A      0.461467  
      74A      0.468462    75A      0.481494    76A      0.489560  
      77A      0.494923    78A      0.506161    79A      0.513162  
      80A      0.514680    81A      0.523977    82A      0.533572  
      83A      0.539882    84A      0.550040    85A      0.554692  
      86A      0.569216    87A      0.576266    88A      0.583079  
      89A      0.614944    90A      0.620124    91A      0.634122  
      92A      0.639097    93A      0.653416    94A      0.660082  
      95A      0.672749    96A      0.680302    97A      0.688627  
      98A      0.695099    99A      0.699478   100A      0.704507  
     101A      0.715603   102A      0.731333   103A      0.748164  
     104A      0.767236   105A      0.776532   106A      0.781297  
     107A      0.782723   108A      0.799349   109A      0.804519  
     110A      0.809198   111A      0.814551   112A      0.829618  
     113A      0.841093   114A      0.857239   115A      0.863056  
     116A      0.878282   117A      0.884286   118A      0.896174  
     119A      0.903839   120A      0.924178   121A      0.943822  
     122A      0.954226   123A      0.957466   124A      0.997416  
     125A      1.003920   126A      1.011227   127A      1.022842  
     128A      1.025103   129A      1.042304   130A      1.050404  
     131A      1.069627   132A      1.070177   133A      1.079985  
     134A      1.091170   135A      1.101864   136A      1.121041  
     137A      1.125545   138A      1.145172   139A      1.155213  
     140A      1.168347   141A      1.186701   142A      1.211800  
     143A      1.218007   144A      1.227022   145A      1.240063  
     146A      1.245956   147A      1.266233   148A      1.271865  
     149A      1.283981   150A      1.296196   151A      1.303372  
     152A      1.319934   153A      1.332071   154A      1.337681  
     155A      1.340722   156A      1.354285   157A      1.368504  
     158A      1.375619   159A      1.381330   160A      1.382859  
     161A      1.409188   162A      1.422471   163A      1.431814  
     164A      1.451317   165A      1.458246   166A      1.465109  
     167A      1.483803   168A      1.496766   169A      1.503920  
     170A      1.518888   171A      1.521548   172A      1.526616  
     173A      1.534330   174A      1.545030   175A      1.552529  
     176A      1.560555   177A      1.585128   178A      1.598832  
     179A      1.601091   180A      1.606414   181A      1.618813  
     182A      1.639292   183A      1.645177   184A      1.660002  
     185A      1.675626   186A      1.677871   187A      1.694787  
     188A      1.705209   189A      1.713594   190A      1.745382  
     191A      1.753875   192A      1.760030   193A      1.773166  
     194A      1.788570   195A      1.801777   196A      1.822728  
     197A      1.830228   198A      1.852315   199A      1.865419  
     200A      1.883387   201A      1.891302   202A      1.900799  
     203A      1.942358   204A      1.952947   205A      1.968396  
     206A      1.989855   207A      2.018160   208A      2.037983  
     209A      2.079386   210A      2.106169   211A      2.117295  
     212A      2.155306   213A      2.174203   214A      2.183660  
     215A      2.212208   216A      2.297585   217A      2.318385  
     218A      2.357405   219A      2.383799   220A      2.390632  
     221A      2.406497   222A      2.416083   223A      2.445489  
     224A      2.469199   225A      2.504313   226A      2.530748  
     227A      2.553430   228A      2.585059   229A      2.612747  
     230A      2.643400   231A      2.659309   232A      2.689620  
     233A      2.736833   234A      2.780564   235A      2.806767  
     236A      2.820127   237A      2.846836   238A      2.850596  
     239A      2.868936   240A      2.888241   241A      2.900254  
     242A      2.921033   243A      2.981828   244A      3.003967  
     245A      3.035355   246A      3.053647   247A      3.058333  
     248A      3.093370   249A      3.097707   250A      3.160148  
     251A      3.203175   252A      3.232092   253A      3.253485  
     254A      3.273606   255A      3.286492   256A      3.307459  
     257A      3.344876   258A      3.371307   259A      3.382401  
     260A      3.427260   261A      3.445001   262A      3.447795  
     263A      3.480545   264A      3.486119   265A      3.502424  
     266A      3.530095   267A      3.537613   268A      3.547975  
     269A      3.554513   270A      3.588035   271A      3.597712  
     272A      3.612517   273A      3.622784   274A      3.627518  
     275A      3.643722   276A      3.660029   277A      3.672197  
     278A      3.704008   279A      3.720344   280A      3.755374  
     281A      3.772702   282A      3.775231   283A      3.787593  
     284A      3.805475   285A      3.812718   286A      3.816396  
     287A      3.836558   288A      3.855120   289A      3.862330  
     290A      3.878653   291A      3.890049   292A      3.901593  
     293A      3.903733   294A      3.912689   295A      3.929556  
     296A      3.957155   297A      3.997080   298A      4.009935  
     299A      4.028297   300A      4.044399   301A      4.071549  
     302A      4.082363   303A      4.090533   304A      4.099145  
     305A      4.126208   306A      4.152520   307A      4.180187  
     308A      4.194191   309A      4.219401   310A      4.235866  
     311A      4.249809   312A      4.266826   313A      4.279423  
     314A      4.287896   315A      4.296393   316A      4.300560  
     317A      4.309089   318A      4.331990   319A      4.341229  
     320A      4.364489   321A      4.379372   322A      4.413538  
     323A      4.427389   324A      4.431438   325A      4.453592  
     326A      4.459927   327A      4.473019   328A      4.486359  
     329A      4.492986   330A      4.498164   331A      4.508456  
     332A      4.518389   333A      4.544626   334A      4.555776  
     335A      4.581533   336A      4.598806   337A      4.610732  
     338A      4.626294   339A      4.636440   340A      4.641782  
     341A      4.653697   342A      4.677705   343A      4.695272  
     344A      4.703993   345A      4.715553   346A      4.724109  
     347A      4.741555   348A      4.749743   349A      4.765763  
     350A      4.776593   351A      4.780949   352A      4.790106  
     353A      4.810087   354A      4.824197   355A      4.833482  
     356A      4.838302   357A      4.848679   358A      4.852949  
     359A      4.857808   360A      4.870837   361A      4.880790  
     362A      4.895902   363A      4.913486   364A      4.919554  
     365A      4.936879   366A      4.950456   367A      4.962292  
     368A      4.975045   369A      4.980489   370A      4.997479  
     371A      5.000664   372A      5.009145   373A      5.060416  
     374A      5.065597   375A      5.079220   376A      5.090924  
     377A      5.138056   378A      5.143106   379A      5.149900  
     380A      5.169893   381A      5.203099   382A      5.216502  
     383A      5.224920   384A      5.247925   385A      5.261546  
     386A      5.274592   387A      5.289936   388A      5.301938  
     389A      5.312684   390A      5.347298   391A      5.390605  
     392A      5.420575   393A      5.455625   394A      5.462642  
     395A      5.535688   396A      5.566385   397A      5.589463  
     398A      5.621014   399A      5.626390   400A      5.690405  
     401A      5.714418   402A      5.732347   403A      5.736071  
     404A      5.765636   405A      5.770766   406A      5.836708  
     407A      5.838562   408A      5.900034   409A      5.908297  
     410A      5.931986   411A      5.943613   412A      5.975907  
     413A      5.981870   414A      6.064459   415A      6.082214  
     416A      6.092095   417A      6.132511   418A      6.212145  
     419A      6.273964   420A      6.296873   421A      6.302837  
     422A      6.325683   423A      6.363680   424A      6.393359  
     425A      6.419971   426A      6.434097   427A      6.464841  
     428A      6.468026   429A      6.472701   430A      6.484898  
     431A      6.552322   432A      6.554292   433A      6.578382  
     434A      6.596388   435A      6.663565   436A      6.728699  
     437A      6.800865   438A      6.875070   439A      6.922427  
     440A      6.942636   441A      6.957297   442A      7.058491  
     443A      7.117764   444A      7.212868   445A      7.300701  
     446A      7.325263   447A      7.338770   448A      7.392883  
     449A      7.433751   450A      7.455450   451A      7.490742  
     452A      7.535398   453A      7.566837   454A      7.627082  
     455A      7.653499   456A      7.679970   457A      7.759241  
     458A      7.810280   459A      7.816428   460A      7.844702  
     461A      7.881841   462A      7.953267   463A      7.979880  
     464A      8.047921   465A      8.131458   466A      8.279424  
     467A      8.397006   468A      8.491842   469A      8.841799  
     470A      9.115550   471A      9.139926   472A      9.161355  
     473A      9.482284   474A      9.628427   475A      9.822501  
     476A      9.905619   477A      9.912328   478A     10.038762  
     479A     10.184639   480A     10.556762   481A     10.889104  
     482A     11.452317   483A     11.614048   484A     11.676017  
     485A     12.007980   486A     13.674487   487A     13.785377  
     488A     13.823944   489A     14.677755   490A     42.968010  
     491A     44.903455   492A     45.648778   493A     55.551778  
     494A     60.917562  

    Final Occupation by Irrep:
              A 
    DOCC [    13 ]

  @DF-RHF Final Energy:  -154.14365305833286

   => Energetics <=

    Nuclear Repulsion Energy =             81.7172446244520927
    One-Electron Energy =                -371.3776861009957884
    Two-Electron Energy =                 135.5167884182108651
    Total Energy =                       -154.1436530583328590

Computation Completed


Properties will be evaluated at   0.000000,   0.000000,   0.000000 [a0]

Properties computed using the SCF density matrix

  Nuclear Dipole Moment: [e a0]
     X:   124.4477      Y:    11.3107      Z:     1.0586

  Electronic Dipole Moment: [e a0]
     X:  -124.4543      Y:   -10.5813      Z:    -1.0755

  Dipole Moment: [e a0]
     X:    -0.0066      Y:     0.7294      Z:    -0.0170     Total:     0.7296

  Dipole Moment: [D]
     X:    -0.0168      Y:     1.8539      Z:    -0.0431     Total:     1.8544


*** tstop() called on r282 at Fri Sep 10 11:36:45 2021
Module time:
	user time   =      31.78 seconds =       0.53 minutes
	system time =       0.57 seconds =       0.01 minutes
	total time  =         32 seconds =       0.53 minutes
Total time:
	user time   =     126.54 seconds =       2.11 minutes
	system time =       2.60 seconds =       0.04 minutes
	total time  =        129 seconds =       2.15 minutes
  Constructing Basis Sets for SAPT...

   => Loading Basis Set <=

    Name: (JUN-CC-PVTZ AUX)
    Role: RIFIT
    Keyword: DF_BASIS_SAPT
    atoms 1-2, 7, 13-14    entry C          line   132 file /home/r08543048/miniconda3/share/psi4/basis/jun-cc-pvtz-ri.gbs 
    atoms 3, 15            entry O          line   244 file /home/r08543048/miniconda3/share/psi4/basis/jun-cc-pvtz-ri.gbs 
    atoms 4                entry N          line   188 file /home/r08543048/miniconda3/share/psi4/basis/jun-cc-pvtz-ri.gbs 
    atoms 5-6, 8-12, 16-21 entry H          line    30 file /home/r08543048/miniconda3/share/psi4/basis/jun-cc-pvtz-ri.gbs 


  //>>>>>>>>>>>>>>>>>>>>>>>>>>>>>>>>>>>//
  //               SAPT0               //
  //<<<<<<<<<<<<<<<<<<<<<<<<<<<<<<<<<<<//


*** tstart() called on r282
*** at Fri Sep 10 11:36:45 2021

        SAPT0  
    Ed Hohenstein
     6 June 2009

      Orbital Information
  --------------------------
    NSO        =       494
    NMO        =       494
    NRI        =      1166
    NOCC A     =        20
    NOCC B     =        13
    FOCC A     =         0
    FOCC B     =         0
    NVIR A     =       474
    NVIR B     =       481

    Elst10,r            =    -0.030523741653 [Eh]
    Exch10              =     0.029939732394 [Eh]
    Exch10 (S^2)        =     0.029637659809 [Eh]

    Iter     Energy [mEh]          dE [mEh]         Residual      Time [s]
       1      -6.20998706       6.209987060      15.491592527             1
       2      -7.80627682       1.596289762       8.437348737             2
       3      -8.11045998       0.304183156       2.468800246             3
       4      -8.03983788      -0.070622094       0.909975558             4
       5      -8.03400438      -0.005833504       0.293819903             5
       6      -8.04086270       0.006858325       0.099359730             6
       7      -8.04132619       0.000463480       0.025179454             7
       8      -8.04083971      -0.000486476       0.007499101             8
       9      -8.04080850      -0.000031213       0.002169282             9
      10      -8.04083760       0.000029107       0.000547224            10
      11      -8.04084120       0.000003595       0.000129625            11
      12      -8.04083904      -0.000002160       0.000048637            12
      13      -8.04083926       0.000000226       0.000019814            13
      14      -8.04083944       0.000000180       0.000005986            14
      15      -8.04083940      -0.000000047       0.000001770            15
      16      -8.04083939      -0.000000009       0.000000520            16

    CHF Iterations converged


    Iter     Energy [mEh]          dE [mEh]         Residual      Time [s]
       1      -5.93666059       5.936660587      13.669035966             1
       2      -7.02236029       1.085699706       6.063362259             2
       3      -7.23324148       0.210881187       1.870473650             3
       4      -7.22105440      -0.012187081       0.629909989             4
       5      -7.19738470      -0.023669696       0.117096272             5
       6      -7.20073575       0.003351052       0.042665444             6
       7      -7.20105536       0.000319607       0.012669893             7
       8      -7.20075400      -0.000301366       0.003143956             8
       9      -7.20077469       0.000020695       0.000864509             8
      10      -7.20078218       0.000007492       0.000197137             9
      11      -7.20078052      -0.000001663       0.000059706            10
      12      -7.20078001      -0.000000512       0.000015781            11
      13      -7.20078017       0.000000161       0.000003223            12
      14      -7.20078017       0.000000004       0.000000693            13

    CHF Iterations converged

    Ind20,r (A<-B)      =    -0.008040839388 [Eh]
    Ind20,r (B<-A)      =    -0.007200780172 [Eh]
    Ind20,r             =    -0.015241619560 [Eh]
    Exch-Ind20,r (A<-B) =     0.004949550730 [Eh]
    Exch-Ind20,r (B<-A) =     0.004343177889 [Eh]
    Exch-Ind20,r        =     0.009292728619 [Eh]
    Disp20              =    -0.012593744955 [Eh]
    Disp20 (SS)         =    -0.006296872478 [Eh]
    Disp20 (OS)         =    -0.006296872478 [Eh]
    Exch-Disp20         =     0.002349938074 [Eh]
    Exch-Disp20 (SS)    =     0.001472071915 [Eh]
    Exch-Disp20 (OS)    =     0.000877866158 [Eh]

    SAPT Results 
  --------------------------------------------------------------------------------------------------------
    Electrostatics                -30.52374165 [mEh]     -19.15393706 [kcal/mol]     -80.14007267 [kJ/mol]
      Elst10,r                    -30.52374165 [mEh]     -19.15393706 [kcal/mol]     -80.14007267 [kJ/mol]

    Exchange                       29.93973239 [mEh]      18.78746572 [kcal/mol]      78.60675657 [kJ/mol]
      Exch10                       29.93973239 [mEh]      18.78746572 [kcal/mol]      78.60675657 [kJ/mol]
      Exch10(S^2)                  29.63765981 [mEh]      18.59791231 [kcal/mol]      77.81366511 [kJ/mol]

    Induction                      -9.95098109 [mEh]      -6.24433491 [kcal/mol]     -26.12629725 [kJ/mol]
      Ind20,r                     -15.24161956 [mEh]      -9.56426067 [kcal/mol]     -40.01686664 [kJ/mol]
      Exch-Ind20,r                  9.29272862 [mEh]       5.83127525 [kcal/mol]      24.39805563 [kJ/mol]
      delta HF,r (2)               -4.00209015 [mEh]      -2.51134948 [kcal/mol]     -10.50748623 [kJ/mol]

    Dispersion                    -10.24380688 [mEh]      -6.42808587 [kcal/mol]     -26.89511126 [kJ/mol]
      Disp20                      -12.59374496 [mEh]      -7.90269427 [kcal/mol]     -33.06487282 [kJ/mol]
      Exch-Disp20                   2.34993807 [mEh]       1.47460840 [kcal/mol]       6.16976156 [kJ/mol]
      Disp20 (SS)                  -6.29687248 [mEh]      -3.95134713 [kcal/mol]     -16.53243641 [kJ/mol]
      Disp20 (OS)                  -6.29687248 [mEh]      -3.95134713 [kcal/mol]     -16.53243641 [kJ/mol]
      Exch-Disp20 (SS)              1.47207192 [mEh]       0.92373907 [kcal/mol]       3.86492428 [kJ/mol]
      Exch-Disp20 (OS)              0.87786616 [mEh]       0.55086933 [kcal/mol]       2.30483728 [kJ/mol]

  Total HF                        -10.53499035 [mEh]      -6.61080625 [kcal/mol]     -27.65961335 [kJ/mol]
  Total SAPT0                     -20.77879723 [mEh]     -13.03889212 [kcal/mol]     -54.55472461 [kJ/mol]

  Special recipe for scaled SAPT0 (see Manual):
    Electrostatics sSAPT0         -30.52374165 [mEh]     -19.15393706 [kcal/mol]     -80.14007267 [kJ/mol]
    Exchange sSAPT0                29.93973239 [mEh]      18.78746572 [kcal/mol]      78.60675657 [kJ/mol]
    Induction sSAPT0               -9.66393555 [mEh]      -6.06421111 [kcal/mol]     -25.37265929 [kJ/mol]
    Dispersion sSAPT0             -10.17121903 [mEh]      -6.38253630 [kcal/mol]     -26.70453187 [kJ/mol]
  Total sSAPT0                    -20.41916383 [mEh]     -12.81321875 [kcal/mol]     -53.61050726 [kJ/mol]
  --------------------------------------------------------------------------------------------------------

*** tstop() called on r282 at Fri Sep 10 11:38:44 2021
Module time:
	user time   =      99.58 seconds =       1.66 minutes
	system time =      17.92 seconds =       0.30 minutes
	total time  =        119 seconds =       1.98 minutes
Total time:
	user time   =     226.26 seconds =       3.77 minutes
	system time =      20.52 seconds =       0.34 minutes
	total time  =        248 seconds =       4.13 minutes

    Psi4 stopped on: Friday, 10 September 2021 11:38AM
    Psi4 wall time for execution: 0:04:08.52

*** Psi4 exiting successfully. Buy a developer a beer!
