
    -----------------------------------------------------------------------
          Psi4: An Open-Source Ab Initio Electronic Structure Package
                               Psi4 1.3.2 release

                         Git: Rev {HEAD} ecbda83 


    R. M. Parrish, L. A. Burns, D. G. A. Smith, A. C. Simmonett,
    A. E. DePrince III, E. G. Hohenstein, U. Bozkaya, A. Yu. Sokolov,
    R. Di Remigio, R. M. Richard, J. F. Gonthier, A. M. James,
    H. R. McAlexander, A. Kumar, M. Saitow, X. Wang, B. P. Pritchard,
    P. Verma, H. F. Schaefer III, K. Patkowski, R. A. King, E. F. Valeev,
    F. A. Evangelista, J. M. Turney, T. D. Crawford, and C. D. Sherrill,
    J. Chem. Theory Comput. 13(7) pp 3185--3197 (2017).
    (doi: 10.1021/acs.jctc.7b00174)


                         Additional Contributions by
    P. Kraus, H. Kruse, M. H. Lechner, M. C. Schieber, R. A. Shaw,
    A. Alenaizan, R. Galvelis, Z. L. Glick, S. Lehtola, and J. P. Misiewicz

    -----------------------------------------------------------------------


    Psi4 started on: Friday, 10 September 2021 11:30AM

    Process ID: 56554
    Host:       r282
    PSIDATADIR: /home/r08543048/miniconda3/share/psi4
    Memory:     500.0 MiB
    Threads:    1
    
  ==> Input File <==

--------------------------------------------------------------------------
# Any line starting with the # character is a comment line
#! Sample  computation

memory 22 gb

molecule Dimer {
0 1
 C -2.769095   -0.238182    0.112140
 C -1.275016   -0.077265   -0.001981
 O -0.536810   -1.058745   -0.119383
 N -0.799110    1.187692    0.031890
 H -3.129119   -0.743323   -0.781634
 H -2.981750   -0.880327    0.963975
 H -3.294274    0.706618    0.230188
 H  0.201082    1.331438   -0.053233
 H -1.420233    1.970581    0.106888
 
 




    
    
    
 --
0 1
 C 3.058962   -0.182982    0.279808 
 O 1.884995    0.257090   -0.388021
 H 3.778004    0.631272    0.242820
 H 3.495739   -1.054347   -0.210918
 H 2.862343   -0.428126    1.325504
 H 1.207391   -0.443816   -0.327390









 
 







units angstrom

no_reorient
symmetry c1
}

set globals{
  basis jun-cc-pvtz
}

energy('sapt0')


--------------------------------------------------------------------------

  Memory set to  20.489 GiB by Python driver.

  //>>>>>>>>>>>>>>>>>>>>>>>>>>>>>>>>>>>//
  //              Dimer HF             //
  //<<<<<<<<<<<<<<<<<<<<<<<<<<<<<<<<<<<//


*** tstart() called on r282
*** at Fri Sep 10 11:30:46 2021

   => Loading Basis Set <=

    Name: JUN-CC-PVTZ
    Role: ORBITAL
    Keyword: BASIS
    atoms 1-2, 10    entry C          line   217 file /home/r08543048/miniconda3/share/psi4/basis/jun-cc-pvtz.gbs 
    atoms 3, 11      entry O          line   305 file /home/r08543048/miniconda3/share/psi4/basis/jun-cc-pvtz.gbs 
    atoms 4          entry N          line   261 file /home/r08543048/miniconda3/share/psi4/basis/jun-cc-pvtz.gbs 
    atoms 5-9, 12-15 entry H          line    36 file /home/r08543048/miniconda3/share/psi4/basis/jun-cc-pvtz.gbs 


         ---------------------------------------------------------
                                   SCF
               by Justin Turney, Rob Parrish, Andy Simmonett
                          and Daniel G. A. Smith
                              RHF Reference
                        1 Threads,  20980 MiB Core
         ---------------------------------------------------------

  ==> Geometry <==

    Molecular point group: c1
    Full point group: C1

    Geometry (in Angstrom), charge = 0, multiplicity = 1:

       Center              X                  Y                   Z               Mass       
    ------------   -----------------  -----------------  -----------------  -----------------
         C           -2.761156899309    -0.226391158661     0.128412344074    12.000000000000
         C           -1.267077899309    -0.065474158661     0.014291344074    12.000000000000
         O           -0.528871899309    -1.046954158661    -0.103110655926    15.994914619570
         N           -0.791171899309     1.199482841339     0.048162344074    14.003074004430
         H           -3.121180899309    -0.731532158661    -0.765361655926     1.007825032230
         H           -2.973811899309    -0.868536158661     0.980247344074     1.007825032230
         H           -3.286335899309     0.718408841339     0.246460344074     1.007825032230
         H            0.209020100691     1.343228841339    -0.036960655926     1.007825032230
         H           -1.412294899309     1.982371841339     0.123160344074     1.007825032230
         C            3.066900100691    -0.171191158661     0.296080344074    12.000000000000
         O            1.892933100691     0.268880841339    -0.371748655926    15.994914619570
         H            3.785942100691     0.643062841339     0.259092344074     1.007825032230
         H            3.503677100691    -1.042556158661    -0.194645655926     1.007825032230
         H            2.870281100691    -0.416335158661     1.341776344074     1.007825032230
         H            1.215329100691    -0.432025158661    -0.311117655926     1.007825032230

  Running in c1 symmetry.

  Rotational constants: A =      0.29781  B =      0.04559  C =      0.04094 [cm^-1]
  Rotational constants: A =   8928.01911  B =   1366.62130  C =   1227.25579 [MHz]
  Nuclear repulsion =  243.609624898981849

  Charge       = 0
  Multiplicity = 1
  Electrons    = 50
  Nalpha       = 25
  Nbeta        = 25

  ==> Algorithm <==

  SCF Algorithm Type is DF.
  DIIS enabled.
  MOM disabled.
  Fractional occupation disabled.
  Guess Type is SAD.
  Energy threshold   = 1.00e-08
  Density threshold  = 1.00e-08
  Integral threshold = 0.00e+00

  ==> Primary Basis <==

  Basis Set: JUN-CC-PVTZ
    Blend: JUN-CC-PVTZ
    Number of shells: 132
    Number of basis function: 360
    Number of Cartesian functions: 405
    Spherical Harmonics?: true
    Max angular momentum: 3

   => Loading Basis Set <=

    Name: (JUN-CC-PVTZ AUX)
    Role: JKFIT
    Keyword: DF_BASIS_SCF
    atoms 1-2, 10    entry C          line   152 file /home/r08543048/miniconda3/share/psi4/basis/jun-cc-pvtz-jkfit.gbs 
    atoms 3, 11      entry O          line   272 file /home/r08543048/miniconda3/share/psi4/basis/jun-cc-pvtz-jkfit.gbs 
    atoms 4          entry N          line   212 file /home/r08543048/miniconda3/share/psi4/basis/jun-cc-pvtz-jkfit.gbs 
    atoms 5-9, 12-15 entry H          line    70 file /home/r08543048/miniconda3/share/psi4/basis/jun-cc-pvtz-jkfit.gbs 

  ==> Pre-Iterations <==

   -------------------------------------------------------
    Irrep   Nso     Nmo     Nalpha   Nbeta   Ndocc  Nsocc
   -------------------------------------------------------
     A        360     360       0       0       0       0
   -------------------------------------------------------
    Total     360     360      25      25      25       0
   -------------------------------------------------------

  ==> Integral Setup <==

  ==> DiskDFJK: Density-Fitted J/K Matrices <==

    J tasked:                  Yes
    K tasked:                  Yes
    wK tasked:                  No
    OpenMP threads:              1
    Integrals threads:           1
    Memory [MiB]:            15735
    Algorithm:                Core
    Integral Cache:           SAVE
    Schwarz Cutoff:          1E-12
    Fitting Condition:       1E-10

   => Auxiliary Basis Set <=

  Basis Set: (JUN-CC-PVTZ AUX)
    Blend: JUN-CC-PVTZ-JKFIT
    Number of shells: 264
    Number of basis function: 840
    Number of Cartesian functions: 1011
    Spherical Harmonics?: true
    Max angular momentum: 4

  Minimum eigenvalue in the overlap matrix is 5.6034195519E-05.
  Using Symmetric Orthogonalization.

  SCF Guess: Superposition of Atomic Densities via on-the-fly atomic UHF.

  ==> Iterations <==

                           Total Energy        Delta E     RMS |[F,P]|

   @DF-RHF iter SAD:  -321.83810800394684   -3.21838e+02   0.00000e+00 
   @DF-RHF iter   1:  -322.93314025619412   -1.09503e+00   1.93836e-03 DIIS
   @DF-RHF iter   2:  -323.11108852824492   -1.77948e-01   1.06583e-03 DIIS
   @DF-RHF iter   3:  -323.15999200212934   -4.89035e-02   1.98600e-04 DIIS
   @DF-RHF iter   4:  -323.16301313260351   -3.02113e-03   8.15374e-05 DIIS
   @DF-RHF iter   5:  -323.16353381760803   -5.20685e-04   1.85248e-05 DIIS
   @DF-RHF iter   6:  -323.16357093762690   -3.71200e-05   8.38808e-06 DIIS
   @DF-RHF iter   7:  -323.16357829493131   -7.35730e-06   2.67298e-06 DIIS
   @DF-RHF iter   8:  -323.16357965454847   -1.35962e-06   1.02995e-06 DIIS
   @DF-RHF iter   9:  -323.16357985904915   -2.04501e-07   3.87556e-07 DIIS
   @DF-RHF iter  10:  -323.16357988309539   -2.40462e-08   1.15241e-07 DIIS
   @DF-RHF iter  11:  -323.16357988531763   -2.22224e-09   2.77866e-08 DIIS
   @DF-RHF iter  12:  -323.16357988542910   -1.11470e-10   8.88129e-09 DIIS
  Energy and wave function converged.


  ==> Post-Iterations <==

    Orbital Energies [Eh]
    ---------------------

    Doubly Occupied:                                                      

       1A    -20.536571     2A    -20.523878     3A    -15.585421  
       4A    -11.361920     5A    -11.257800     6A    -11.241918  
       7A     -1.384223     8A     -1.336709     9A     -1.216323  
      10A     -1.011473    11A     -0.912812    12A     -0.803418  
      13A     -0.731589    14A     -0.692966    15A     -0.657001  
      16A     -0.621261    17A     -0.606576    18A     -0.592044  
      19A     -0.579303    20A     -0.566098    21A     -0.529195  
      22A     -0.491150    23A     -0.439611    24A     -0.428880  
      25A     -0.419160  

    Virtual:                                                              

      26A      0.041036    27A      0.061776    28A      0.071275  
      29A      0.074913    30A      0.083280    31A      0.086204  
      32A      0.088152    33A      0.110913    34A      0.114955  
      35A      0.122221    36A      0.129481    37A      0.148424  
      38A      0.163708    39A      0.168536    40A      0.170340  
      41A      0.192761    42A      0.214901    43A      0.225963  
      44A      0.237271    45A      0.239802    46A      0.251416  
      47A      0.261631    48A      0.265374    49A      0.271770  
      50A      0.282185    51A      0.288434    52A      0.293889  
      53A      0.299947    54A      0.305632    55A      0.311783  
      56A      0.318735    57A      0.323308    58A      0.336572  
      59A      0.341955    60A      0.349021    61A      0.362852  
      62A      0.374138    63A      0.389150    64A      0.406876  
      65A      0.411481    66A      0.420517    67A      0.433818  
      68A      0.449418    69A      0.475720    70A      0.484512  
      71A      0.494787    72A      0.504266    73A      0.520677  
      74A      0.530805    75A      0.533155    76A      0.568824  
      77A      0.570666    78A      0.586445    79A      0.599192  
      80A      0.606902    81A      0.615152    82A      0.639691  
      83A      0.645380    84A      0.658220    85A      0.669374  
      86A      0.677401    87A      0.689666    88A      0.694783  
      89A      0.706500    90A      0.725049    91A      0.741473  
      92A      0.744211    93A      0.763621    94A      0.765383  
      95A      0.788279    96A      0.802223    97A      0.813778  
      98A      0.820826    99A      0.825446   100A      0.840765  
     101A      0.854722   102A      0.871947   103A      0.886884  
     104A      0.899077   105A      0.912824   106A      0.927310  
     107A      0.950536   108A      0.965069   109A      0.981786  
     110A      1.008151   111A      1.014664   112A      1.026646  
     113A      1.050751   114A      1.063479   115A      1.078215  
     116A      1.082417   117A      1.087985   118A      1.121981  
     119A      1.146895   120A      1.165767   121A      1.177433  
     122A      1.200353   123A      1.217739   124A      1.220598  
     125A      1.269626   126A      1.276189   127A      1.292072  
     128A      1.304387   129A      1.309668   130A      1.322792  
     131A      1.332014   132A      1.345370   133A      1.350602  
     134A      1.363023   135A      1.370021   136A      1.380451  
     137A      1.394240   138A      1.410613   139A      1.416352  
     140A      1.421308   141A      1.442269   142A      1.465351  
     143A      1.475418   144A      1.509783   145A      1.515773  
     146A      1.543622   147A      1.548526   148A      1.573511  
     149A      1.581390   150A      1.604303   151A      1.615845  
     152A      1.628069   153A      1.650886   154A      1.658161  
     155A      1.680531   156A      1.737914   157A      1.743289  
     158A      1.770693   159A      1.800620   160A      1.823907  
     161A      1.860858   162A      1.882035   163A      1.890035  
     164A      1.898593   165A      1.918504   166A      1.993550  
     167A      2.033886   168A      2.103375   169A      2.134913  
     170A      2.212938   171A      2.264264   172A      2.290720  
     173A      2.307493   174A      2.337682   175A      2.379562  
     176A      2.421469   177A      2.439331   178A      2.460392  
     179A      2.505694   180A      2.581963   181A      2.625627  
     182A      2.659273   183A      2.722066   184A      2.760866  
     185A      2.769561   186A      2.780147   187A      2.822146  
     188A      2.851226   189A      2.869616   190A      2.943842  
     191A      2.973932   192A      2.999230   193A      3.063724  
     194A      3.084950   195A      3.120400   196A      3.128253  
     197A      3.141795   198A      3.177443   199A      3.191553  
     200A      3.208536   201A      3.215538   202A      3.250136  
     203A      3.255080   204A      3.279428   205A      3.301740  
     206A      3.321147   207A      3.324370   208A      3.350114  
     209A      3.374734   210A      3.398213   211A      3.408791  
     212A      3.423504   213A      3.431605   214A      3.453692  
     215A      3.474830   216A      3.507360   217A      3.514543  
     218A      3.522141   219A      3.527737   220A      3.550973  
     221A      3.558241   222A      3.582533   223A      3.608994  
     224A      3.619411   225A      3.636487   226A      3.644853  
     227A      3.646985   228A      3.672466   229A      3.714647  
     230A      3.725485   231A      3.760513   232A      3.772301  
     233A      3.783324   234A      3.798247   235A      3.804716  
     236A      3.831182   237A      3.855419   238A      3.867759  
     239A      3.914764   240A      3.921514   241A      3.954503  
     242A      3.961819   243A      3.977145   244A      3.991368  
     245A      4.036458   246A      4.055041   247A      4.083675  
     248A      4.127958   249A      4.152286   250A      4.156992  
     251A      4.162117   252A      4.177424   253A      4.201896  
     254A      4.247027   255A      4.262808   256A      4.283092  
     257A      4.289451   258A      4.299080   259A      4.325410  
     260A      4.333662   261A      4.357846   262A      4.374050  
     263A      4.381466   264A      4.391660   265A      4.412557  
     266A      4.418413   267A      4.435754   268A      4.452777  
     269A      4.461850   270A      4.503608   271A      4.515105  
     272A      4.526507   273A      4.556012   274A      4.581029  
     275A      4.618228   276A      4.622346   277A      4.634158  
     278A      4.642545   279A      4.740092   280A      4.745009  
     281A      4.771505   282A      4.789646   283A      4.800317  
     284A      4.821729   285A      4.880576   286A      4.914356  
     287A      4.934832   288A      5.014153   289A      5.047323  
     290A      5.121110   291A      5.126698   292A      5.162840  
     293A      5.167441   294A      5.193716   295A      5.213899  
     296A      5.224631   297A      5.266402   298A      5.327127  
     299A      5.336407   300A      5.370497   301A      5.400523  
     302A      5.413966   303A      5.439807   304A      5.471609  
     305A      5.487650   306A      5.496456   307A      5.532767  
     308A      5.582011   309A      5.640397   310A      5.672382  
     311A      5.681740   312A      5.705112   313A      5.710142  
     314A      5.728747   315A      5.752745   316A      5.770507  
     317A      5.806251   318A      5.895091   319A      5.907791  
     320A      5.940103   321A      5.992092   322A      6.046151  
     323A      6.081186   324A      6.108099   325A      6.193292  
     326A      6.227220   327A      6.291002   328A      6.307088  
     329A      6.379753   330A      6.389783   331A      6.423552  
     332A      6.436548   333A      6.490761   334A      6.610244  
     335A      6.695978   336A      6.765117   337A      6.798189  
     338A      6.904418   339A      7.033214   340A      7.174430  
     341A      7.201696   342A      7.250152   343A      7.313238  
     344A      7.362295   345A      7.386681   346A      7.443923  
     347A      7.464187   348A      7.508741   349A      7.603815  
     350A      7.663518   351A      7.745119   352A      7.795448  
     353A      7.914113   354A      8.159849   355A     12.129255  
     356A     13.406219   357A     13.794448   358A     14.295724  
     359A     14.799362   360A     15.745477  

    Final Occupation by Irrep:
              A 
    DOCC [    25 ]

  @DF-RHF Final Energy:  -323.16357988542910

   => Energetics <=

    Nuclear Repulsion Energy =            243.6096248989818491
    One-Electron Energy =                -924.4918176226049127
    Two-Electron Energy =                 357.7186128381940193
    Total Energy =                       -323.1635798854291011

Computation Completed


Properties will be evaluated at   0.000000,   0.000000,   0.000000 [a0]

Properties computed using the SCF density matrix

  Nuclear Dipole Moment: [e a0]
     X:     0.7500      Y:     1.1141      Z:     1.5375

  Electronic Dipole Moment: [e a0]
     X:    -1.6329      Y:    -0.2500      Z:    -1.0851

  Dipole Moment: [e a0]
     X:    -0.8828      Y:     0.8640      Z:     0.4524     Total:     1.3155

  Dipole Moment: [D]
     X:    -2.2439      Y:     2.1961      Z:     1.1500     Total:     3.3437


*** tstop() called on r282 at Fri Sep 10 11:31:06 2021
Module time:
	user time   =      19.26 seconds =       0.32 minutes
	system time =       0.54 seconds =       0.01 minutes
	total time  =         20 seconds =       0.33 minutes
Total time:
	user time   =      19.26 seconds =       0.32 minutes
	system time =       0.54 seconds =       0.01 minutes
	total time  =         20 seconds =       0.33 minutes

  //>>>>>>>>>>>>>>>>>>>>>>>>>>>>>>>>>>>//
  //            Monomer A HF           //
  //<<<<<<<<<<<<<<<<<<<<<<<<<<<<<<<<<<<//


*** tstart() called on r282
*** at Fri Sep 10 11:31:06 2021

   => Loading Basis Set <=

    Name: JUN-CC-PVTZ
    Role: ORBITAL
    Keyword: BASIS
    atoms 1-2, 10    entry C          line   217 file /home/r08543048/miniconda3/share/psi4/basis/jun-cc-pvtz.gbs 
    atoms 3, 11      entry O          line   305 file /home/r08543048/miniconda3/share/psi4/basis/jun-cc-pvtz.gbs 
    atoms 4          entry N          line   261 file /home/r08543048/miniconda3/share/psi4/basis/jun-cc-pvtz.gbs 
    atoms 5-9, 12-15 entry H          line    36 file /home/r08543048/miniconda3/share/psi4/basis/jun-cc-pvtz.gbs 


         ---------------------------------------------------------
                                   SCF
               by Justin Turney, Rob Parrish, Andy Simmonett
                          and Daniel G. A. Smith
                              RHF Reference
                        1 Threads,  20980 MiB Core
         ---------------------------------------------------------

  ==> Geometry <==

    Molecular point group: c1
    Full point group: C1

    Geometry (in Angstrom), charge = 0, multiplicity = 1:

       Center              X                  Y                   Z               Mass       
    ------------   -----------------  -----------------  -----------------  -----------------
         C           -2.761156899309    -0.226391158661     0.128412344074    12.000000000000
         C           -1.267077899309    -0.065474158661     0.014291344074    12.000000000000
         O           -0.528871899309    -1.046954158661    -0.103110655926    15.994914619570
         N           -0.791171899309     1.199482841339     0.048162344074    14.003074004430
         H           -3.121180899309    -0.731532158661    -0.765361655926     1.007825032230
         H           -2.973811899309    -0.868536158661     0.980247344074     1.007825032230
         H           -3.286335899309     0.718408841339     0.246460344074     1.007825032230
         H            0.209020100691     1.343228841339    -0.036960655926     1.007825032230
         H           -1.412294899309     1.982371841339     0.123160344074     1.007825032230
      Gh(C)           3.066900100691    -0.171191158661     0.296080344074    12.000000000000
      Gh(O)           1.892933100691     0.268880841339    -0.371748655926    15.994914619570
      Gh(H)           3.785942100691     0.643062841339     0.259092344074     1.007825032230
      Gh(H)           3.503677100691    -1.042556158661    -0.194645655926     1.007825032230
      Gh(H)           2.870281100691    -0.416335158661     1.341776344074     1.007825032230
      Gh(H)           1.215329100691    -0.432025158661    -0.311117655926     1.007825032230

  Running in c1 symmetry.

  Rotational constants: A =      0.29781  B =      0.04559  C =      0.04094 [cm^-1]
  Rotational constants: A =   8928.01911  B =   1366.62130  C =   1227.25579 [MHz]
  Nuclear repulsion =  121.779576697135056

  Charge       = 0
  Multiplicity = 1
  Electrons    = 32
  Nalpha       = 16
  Nbeta        = 16

  ==> Algorithm <==

  SCF Algorithm Type is DF.
  DIIS enabled.
  MOM disabled.
  Fractional occupation disabled.
  Guess Type is SAD.
  Energy threshold   = 1.00e-08
  Density threshold  = 1.00e-08
  Integral threshold = 0.00e+00

  ==> Primary Basis <==

  Basis Set: JUN-CC-PVTZ
    Blend: JUN-CC-PVTZ
    Number of shells: 132
    Number of basis function: 360
    Number of Cartesian functions: 405
    Spherical Harmonics?: true
    Max angular momentum: 3

   => Loading Basis Set <=

    Name: (JUN-CC-PVTZ AUX)
    Role: JKFIT
    Keyword: DF_BASIS_SCF
    atoms 1-2, 10    entry C          line   152 file /home/r08543048/miniconda3/share/psi4/basis/jun-cc-pvtz-jkfit.gbs 
    atoms 3, 11      entry O          line   272 file /home/r08543048/miniconda3/share/psi4/basis/jun-cc-pvtz-jkfit.gbs 
    atoms 4          entry N          line   212 file /home/r08543048/miniconda3/share/psi4/basis/jun-cc-pvtz-jkfit.gbs 
    atoms 5-9, 12-15 entry H          line    70 file /home/r08543048/miniconda3/share/psi4/basis/jun-cc-pvtz-jkfit.gbs 

  ==> Pre-Iterations <==

   -------------------------------------------------------
    Irrep   Nso     Nmo     Nalpha   Nbeta   Ndocc  Nsocc
   -------------------------------------------------------
     A        360     360       0       0       0       0
   -------------------------------------------------------
    Total     360     360      16      16      16       0
   -------------------------------------------------------

  ==> Integral Setup <==

  ==> DiskDFJK: Density-Fitted J/K Matrices <==

    J tasked:                  Yes
    K tasked:                  Yes
    wK tasked:                  No
    OpenMP threads:              1
    Integrals threads:           1
    Memory [MiB]:            15735
    Algorithm:                Core
    Integral Cache:           LOAD
    Schwarz Cutoff:          1E-12
    Fitting Condition:       1E-10

   => Auxiliary Basis Set <=

  Basis Set: (JUN-CC-PVTZ AUX)
    Blend: JUN-CC-PVTZ-JKFIT
    Number of shells: 264
    Number of basis function: 840
    Number of Cartesian functions: 1011
    Spherical Harmonics?: true
    Max angular momentum: 4

  Minimum eigenvalue in the overlap matrix is 5.6034195519E-05.
  Using Symmetric Orthogonalization.

  SCF Guess: Superposition of Atomic Densities via on-the-fly atomic UHF.

  ==> Iterations <==

                           Total Energy        Delta E     RMS |[F,P]|

   @DF-RHF iter SAD:  -207.24362943263296   -2.07244e+02   0.00000e+00 
   @DF-RHF iter   1:  -207.88636472044001   -6.42735e-01   1.68245e-03 DIIS
   @DF-RHF iter   2:  -208.01418014158634   -1.27815e-01   1.01480e-03 DIIS
   @DF-RHF iter   3:  -208.05809461260799   -4.39145e-02   1.88473e-04 DIIS
   @DF-RHF iter   4:  -208.06059298848214   -2.49838e-03   7.56730e-05 DIIS
   @DF-RHF iter   5:  -208.06109581961448   -5.02831e-04   1.40733e-05 DIIS
   @DF-RHF iter   6:  -208.06112648424897   -3.06646e-05   6.63506e-06 DIIS
   @DF-RHF iter   7:  -208.06113205561422   -5.57137e-06   2.50639e-06 DIIS
   @DF-RHF iter   8:  -208.06113326313721   -1.20752e-06   8.32240e-07 DIIS
   @DF-RHF iter   9:  -208.06113341876028   -1.55623e-07   2.17346e-07 DIIS
   @DF-RHF iter  10:  -208.06113342687956   -8.11929e-09   7.13989e-08 DIIS
   @DF-RHF iter  11:  -208.06113342763834   -7.58774e-10   1.83954e-08 DIIS
   @DF-RHF iter  12:  -208.06113342768808   -4.97380e-11   3.78232e-09 DIIS
  Energy and wave function converged.


  ==> Post-Iterations <==

    Orbital Energies [Eh]
    ---------------------

    Doubly Occupied:                                                      

       1A    -20.512480     2A    -15.592025     3A    -11.353740  
       4A    -11.238345     5A     -1.369276     6A     -1.216875  
       7A     -1.007296     8A     -0.803077     9A     -0.731929  
      10A     -0.663301    11A     -0.615802    12A     -0.580456  
      13A     -0.564766    14A     -0.524033    15A     -0.422362  
      16A     -0.413893  

    Virtual:                                                              

      17A      0.038806    18A      0.047788    19A      0.064152  
      20A      0.070984    21A      0.080915    22A      0.083713  
      23A      0.085408    24A      0.105501    25A      0.113540  
      26A      0.119351    27A      0.130408    28A      0.145504  
      29A      0.152127    30A      0.159407    31A      0.170777  
      32A      0.187584    33A      0.194822    34A      0.203628  
      35A      0.215050    36A      0.233122    37A      0.243644  
      38A      0.256968    39A      0.259527    40A      0.265238  
      41A      0.277122    42A      0.281234    43A      0.283782  
      44A      0.295071    45A      0.301993    46A      0.309900  
      47A      0.315417    48A      0.322043    49A      0.330084  
      50A      0.342141    51A      0.355081    52A      0.370760  
      53A      0.385581    54A      0.402411    55A      0.403502  
      56A      0.416752    57A      0.425488    58A      0.440064  
      59A      0.452625    60A      0.465559    61A      0.484307  
      62A      0.493363    63A      0.503177    64A      0.510792  
      65A      0.526029    66A      0.531080    67A      0.538272  
      68A      0.544457    69A      0.578527    70A      0.585400  
      71A      0.597374    72A      0.602381    73A      0.608954  
      74A      0.613500    75A      0.624824    76A      0.655059  
      77A      0.661490    78A      0.684075    79A      0.700239  
      80A      0.709467    81A      0.736150    82A      0.746618  
      83A      0.769637    84A      0.799905    85A      0.808557  
      86A      0.820315    87A      0.826093    88A      0.844860  
      89A      0.854077    90A      0.863689    91A      0.881530  
      92A      0.899828    93A      0.916034    94A      0.927280  
      95A      0.931931    96A      0.958423    97A      0.981250  
      98A      0.992238    99A      1.011536   100A      1.028193  
     101A      1.037080   102A      1.046677   103A      1.061573  
     104A      1.072102   105A      1.087806   106A      1.093101  
     107A      1.105457   108A      1.118073   109A      1.132059  
     110A      1.152289   111A      1.156487   112A      1.179232  
     113A      1.202015   114A      1.211843   115A      1.220470  
     116A      1.235434   117A      1.246296   118A      1.271701  
     119A      1.290404   120A      1.311270   121A      1.314121  
     122A      1.334072   123A      1.346363   124A      1.359912  
     125A      1.365647   126A      1.393821   127A      1.396860  
     128A      1.405461   129A      1.421770   130A      1.437493  
     131A      1.466172   132A      1.471579   133A      1.488780  
     134A      1.496848   135A      1.524147   136A      1.543863  
     137A      1.565907   138A      1.572701   139A      1.577656  
     140A      1.608462   141A      1.626764   142A      1.643554  
     143A      1.655313   144A      1.663645   145A      1.691962  
     146A      1.701849   147A      1.745071   148A      1.771653  
     149A      1.828486   150A      1.839462   151A      1.866490  
     152A      1.892511   153A      1.894465   154A      1.905628  
     155A      1.932812   156A      1.965545   157A      1.980591  
     158A      2.010147   159A      2.089355   160A      2.143335  
     161A      2.198564   162A      2.257471   163A      2.266553  
     164A      2.285473   165A      2.299873   166A      2.356476  
     167A      2.383106   168A      2.434451   169A      2.469223  
     170A      2.580720   171A      2.589468   172A      2.634360  
     173A      2.711721   174A      2.727996   175A      2.752255  
     176A      2.778328   177A      2.827263   178A      2.842226  
     179A      2.863405   180A      2.894598   181A      2.952874  
     182A      2.979773   183A      2.988704   184A      3.046611  
     185A      3.068524   186A      3.089456   187A      3.106641  
     188A      3.151170   189A      3.200439   190A      3.215052  
     191A      3.248165   192A      3.252459   193A      3.297939  
     194A      3.331234   195A      3.352582   196A      3.386822  
     197A      3.408178   198A      3.428290   199A      3.430960  
     200A      3.451503   201A      3.489201   202A      3.501344  
     203A      3.528139   204A      3.533555   205A      3.543178  
     206A      3.552805   207A      3.608511   208A      3.614547  
     209A      3.631830   210A      3.636208   211A      3.649308  
     212A      3.651635   213A      3.680949   214A      3.686214  
     215A      3.722507   216A      3.745578   217A      3.765208  
     218A      3.775507   219A      3.799291   220A      3.834057  
     221A      3.862839   222A      3.874004   223A      3.939964  
     224A      3.956113   225A      3.968138   226A      3.982044  
     227A      3.992176   228A      3.994423   229A      4.046992  
     230A      4.064163   231A      4.119516   232A      4.129265  
     233A      4.155596   234A      4.177769   235A      4.187499  
     236A      4.208980   237A      4.222498   238A      4.249473  
     239A      4.287319   240A      4.293096   241A      4.300529  
     242A      4.308785   243A      4.343800   244A      4.349934  
     245A      4.372460   246A      4.385433   247A      4.394460  
     248A      4.408503   249A      4.434066   250A      4.447364  
     251A      4.506614   252A      4.516955   253A      4.521212  
     254A      4.542855   255A      4.582953   256A      4.613864  
     257A      4.619542   258A      4.625616   259A      4.658160  
     260A      4.667421   261A      4.695389   262A      4.711005  
     263A      4.739375   264A      4.742504   265A      4.754605  
     266A      4.771088   267A      4.780874   268A      4.782821  
     269A      4.810224   270A      4.853871   271A      4.861813  
     272A      4.884977   273A      4.910941   274A      4.924366  
     275A      4.932388   276A      4.955282   277A      5.035825  
     278A      5.075713   279A      5.130338   280A      5.160315  
     281A      5.180253   282A      5.205775   283A      5.212339  
     284A      5.215510   285A      5.237963   286A      5.269138  
     287A      5.351193   288A      5.394543   289A      5.403588  
     290A      5.423857   291A      5.440213   292A      5.448674  
     293A      5.490513   294A      5.537327   295A      5.591705  
     296A      5.644570   297A      5.673736   298A      5.682880  
     299A      5.717757   300A      5.732724   301A      5.779741  
     302A      5.813101   303A      5.845634   304A      5.881497  
     305A      5.897723   306A      5.938285   307A      5.986313  
     308A      5.992359   309A      6.032857   310A      6.079761  
     311A      6.124759   312A      6.185977   313A      6.226623  
     314A      6.239636   315A      6.300761   316A      6.312663  
     317A      6.347318   318A      6.426755   319A      6.441875  
     320A      6.605373   321A      6.641201   322A      6.698441  
     323A      6.776972   324A      6.805170   325A      6.944910  
     326A      7.113627   327A      7.214843   328A      7.264524  
     329A      7.355441   330A      7.369969   331A      7.409939  
     332A      7.466166   333A      7.475978   334A      7.490839  
     335A      7.509463   336A      7.576753   337A      7.702284  
     338A      7.745948   339A      7.797720   340A      7.819207  
     341A      7.845363   342A      8.017524   343A      8.379376  
     344A      8.458823   345A      9.609574   346A      9.685839  
     347A      9.845727   348A     10.047129   349A     10.120472  
     350A     10.339394   351A     11.130397   352A     11.586068  
     353A     12.139682   354A     12.702237   355A     13.543751  
     356A     13.837488   357A     14.803297   358A     15.741366  
     359A     45.176219   360A     60.293152  

    Final Occupation by Irrep:
              A 
    DOCC [    16 ]

  @DF-RHF Final Energy:  -208.06113342768808

   => Energetics <=

    Nuclear Repulsion Energy =            121.7795766971350560
    One-Electron Energy =                -524.4621023373821345
    Two-Electron Energy =                 194.6213922125590159
    Total Energy =                       -208.0611334276880768

Computation Completed


Properties will be evaluated at   0.000000,   0.000000,   0.000000 [a0]

Properties computed using the SCF density matrix

  Nuclear Dipole Moment: [e a0]
     X:   -84.1366      Y:     1.3483      Z:     1.7310

  Electronic Dipole Moment: [e a0]
     X:    83.3147      Y:     0.1618      Z:    -1.5971

  Dipole Moment: [e a0]
     X:    -0.8220      Y:     1.5102      Z:     0.1339     Total:     1.7246

  Dipole Moment: [D]
     X:    -2.0893      Y:     3.8384      Z:     0.3403     Total:     4.3834


*** tstop() called on r282 at Fri Sep 10 11:31:17 2021
Module time:
	user time   =      11.06 seconds =       0.18 minutes
	system time =       0.30 seconds =       0.00 minutes
	total time  =         11 seconds =       0.18 minutes
Total time:
	user time   =      30.32 seconds =       0.51 minutes
	system time =       0.84 seconds =       0.01 minutes
	total time  =         31 seconds =       0.52 minutes

  //>>>>>>>>>>>>>>>>>>>>>>>>>>>>>>>>>>>//
  //            Monomer B HF           //
  //<<<<<<<<<<<<<<<<<<<<<<<<<<<<<<<<<<<//


*** tstart() called on r282
*** at Fri Sep 10 11:31:17 2021

   => Loading Basis Set <=

    Name: JUN-CC-PVTZ
    Role: ORBITAL
    Keyword: BASIS
    atoms 1-2, 10    entry C          line   217 file /home/r08543048/miniconda3/share/psi4/basis/jun-cc-pvtz.gbs 
    atoms 3, 11      entry O          line   305 file /home/r08543048/miniconda3/share/psi4/basis/jun-cc-pvtz.gbs 
    atoms 4          entry N          line   261 file /home/r08543048/miniconda3/share/psi4/basis/jun-cc-pvtz.gbs 
    atoms 5-9, 12-15 entry H          line    36 file /home/r08543048/miniconda3/share/psi4/basis/jun-cc-pvtz.gbs 


         ---------------------------------------------------------
                                   SCF
               by Justin Turney, Rob Parrish, Andy Simmonett
                          and Daniel G. A. Smith
                              RHF Reference
                        1 Threads,  20980 MiB Core
         ---------------------------------------------------------

  ==> Geometry <==

    Molecular point group: c1
    Full point group: C1

    Geometry (in Angstrom), charge = 0, multiplicity = 1:

       Center              X                  Y                   Z               Mass       
    ------------   -----------------  -----------------  -----------------  -----------------
      Gh(C)          -2.761156899309    -0.226391158661     0.128412344074    12.000000000000
      Gh(C)          -1.267077899309    -0.065474158661     0.014291344074    12.000000000000
      Gh(O)          -0.528871899309    -1.046954158661    -0.103110655926    15.994914619570
      Gh(N)          -0.791171899309     1.199482841339     0.048162344074    14.003074004430
      Gh(H)          -3.121180899309    -0.731532158661    -0.765361655926     1.007825032230
      Gh(H)          -2.973811899309    -0.868536158661     0.980247344074     1.007825032230
      Gh(H)          -3.286335899309     0.718408841339     0.246460344074     1.007825032230
      Gh(H)           0.209020100691     1.343228841339    -0.036960655926     1.007825032230
      Gh(H)          -1.412294899309     1.982371841339     0.123160344074     1.007825032230
         C            3.066900100691    -0.171191158661     0.296080344074    12.000000000000
         O            1.892933100691     0.268880841339    -0.371748655926    15.994914619570
         H            3.785942100691     0.643062841339     0.259092344074     1.007825032230
         H            3.503677100691    -1.042556158661    -0.194645655926     1.007825032230
         H            2.870281100691    -0.416335158661     1.341776344074     1.007825032230
         H            1.215329100691    -0.432025158661    -0.311117655926     1.007825032230

  Running in c1 symmetry.

  Rotational constants: A =      0.29781  B =      0.04559  C =      0.04094 [cm^-1]
  Rotational constants: A =   8928.01911  B =   1366.62130  C =   1227.25579 [MHz]
  Nuclear repulsion =   40.243758056915347

  Charge       = 0
  Multiplicity = 1
  Electrons    = 18
  Nalpha       = 9
  Nbeta        = 9

  ==> Algorithm <==

  SCF Algorithm Type is DF.
  DIIS enabled.
  MOM disabled.
  Fractional occupation disabled.
  Guess Type is SAD.
  Energy threshold   = 1.00e-08
  Density threshold  = 1.00e-08
  Integral threshold = 0.00e+00

  ==> Primary Basis <==

  Basis Set: JUN-CC-PVTZ
    Blend: JUN-CC-PVTZ
    Number of shells: 132
    Number of basis function: 360
    Number of Cartesian functions: 405
    Spherical Harmonics?: true
    Max angular momentum: 3

   => Loading Basis Set <=

    Name: (JUN-CC-PVTZ AUX)
    Role: JKFIT
    Keyword: DF_BASIS_SCF
    atoms 1-2, 10    entry C          line   152 file /home/r08543048/miniconda3/share/psi4/basis/jun-cc-pvtz-jkfit.gbs 
    atoms 3, 11      entry O          line   272 file /home/r08543048/miniconda3/share/psi4/basis/jun-cc-pvtz-jkfit.gbs 
    atoms 4          entry N          line   212 file /home/r08543048/miniconda3/share/psi4/basis/jun-cc-pvtz-jkfit.gbs 
    atoms 5-9, 12-15 entry H          line    70 file /home/r08543048/miniconda3/share/psi4/basis/jun-cc-pvtz-jkfit.gbs 

  ==> Pre-Iterations <==

   -------------------------------------------------------
    Irrep   Nso     Nmo     Nalpha   Nbeta   Ndocc  Nsocc
   -------------------------------------------------------
     A        360     360       0       0       0       0
   -------------------------------------------------------
    Total     360     360       9       9       9       0
   -------------------------------------------------------

  ==> Integral Setup <==

  ==> DiskDFJK: Density-Fitted J/K Matrices <==

    J tasked:                  Yes
    K tasked:                  Yes
    wK tasked:                  No
    OpenMP threads:              1
    Integrals threads:           1
    Memory [MiB]:            15735
    Algorithm:                Core
    Integral Cache:           LOAD
    Schwarz Cutoff:          1E-12
    Fitting Condition:       1E-10

   => Auxiliary Basis Set <=

  Basis Set: (JUN-CC-PVTZ AUX)
    Blend: JUN-CC-PVTZ-JKFIT
    Number of shells: 264
    Number of basis function: 840
    Number of Cartesian functions: 1011
    Spherical Harmonics?: true
    Max angular momentum: 4

  Minimum eigenvalue in the overlap matrix is 5.6034195519E-05.
  Using Symmetric Orthogonalization.

  SCF Guess: Superposition of Atomic Densities via on-the-fly atomic UHF.

  ==> Iterations <==

                           Total Energy        Delta E     RMS |[F,P]|

   @DF-RHF iter SAD:  -114.39053588695879   -1.14391e+02   0.00000e+00 
   @DF-RHF iter   1:  -115.00872306569349   -6.18187e-01   1.15204e-03 DIIS
   @DF-RHF iter   2:  -115.06925578826271   -6.05327e-02   6.91156e-04 DIIS
   @DF-RHF iter   3:  -115.08986955494973   -2.06138e-02   1.01529e-04 DIIS
   @DF-RHF iter   4:  -115.09082695102182   -9.57396e-04   3.11407e-05 DIIS
   @DF-RHF iter   5:  -115.09091602587253   -8.90749e-05   7.28992e-06 DIIS
   @DF-RHF iter   6:  -115.09092210548565   -6.07961e-06   1.72917e-06 DIIS
   @DF-RHF iter   7:  -115.09092264006006   -5.34574e-07   4.18252e-07 DIIS
   @DF-RHF iter   8:  -115.09092267431494   -3.42549e-08   8.78817e-08 DIIS
   @DF-RHF iter   9:  -115.09092267571017   -1.39524e-09   1.64092e-08 DIIS
   @DF-RHF iter  10:  -115.09092267575497   -4.47926e-11   4.06003e-09 DIIS
  Energy and wave function converged.


  ==> Post-Iterations <==

    Orbital Energies [Eh]
    ---------------------

    Doubly Occupied:                                                      

       1A    -20.560238     2A    -11.270802     3A     -1.353465  
       4A     -0.924842     5A     -0.687654     6A     -0.620288  
       7A     -0.593955     8A     -0.502635     9A     -0.450817  

    Virtual:                                                              

      10A      0.031992    11A      0.052121    12A      0.061653  
      13A      0.065760    14A      0.070449    15A      0.082388  
      16A      0.084018    17A      0.104677    18A      0.110798  
      19A      0.116817    20A      0.128880    21A      0.144675  
      22A      0.151256    23A      0.154795    24A      0.172005  
      25A      0.183511    26A      0.189209    27A      0.202176  
      28A      0.209466    29A      0.215850    30A      0.229528  
      31A      0.241297    32A      0.252275    33A      0.272664  
      34A      0.274341    35A      0.277395    36A      0.293743  
      37A      0.303789    38A      0.316141    39A      0.317106  
      40A      0.331594    41A      0.339659    42A      0.353903  
      43A      0.355805    44A      0.356205    45A      0.378349  
      46A      0.385003    47A      0.392042    48A      0.406473  
      49A      0.414702    50A      0.420447    51A      0.426733  
      52A      0.433522    53A      0.456725    54A      0.470995  
      55A      0.474526    56A      0.495229    57A      0.505508  
      58A      0.512170    59A      0.529263    60A      0.530605  
      61A      0.565514    62A      0.579717    63A      0.614330  
      64A      0.633155    65A      0.633602    66A      0.645969  
      67A      0.652525    68A      0.664591    69A      0.673725  
      70A      0.679571    71A      0.697644    72A      0.723891  
      73A      0.733622    74A      0.743870    75A      0.764813  
      76A      0.768474    77A      0.772181    78A      0.797664  
      79A      0.806349    80A      0.821799    81A      0.829714  
      82A      0.841540    83A      0.848859    84A      0.857605  
      85A      0.889938    86A      0.901939    87A      0.924554  
      88A      0.939990    89A      0.948406    90A      0.974524  
      91A      1.002220    92A      1.005354    93A      1.028701  
      94A      1.044566    95A      1.054803    96A      1.068132  
      97A      1.070877    98A      1.079835    99A      1.104814  
     100A      1.134466   101A      1.152830   102A      1.184965  
     103A      1.196392   104A      1.199567   105A      1.214895  
     106A      1.226325   107A      1.255231   108A      1.261225  
     109A      1.287579   110A      1.295366   111A      1.308722  
     112A      1.323376   113A      1.325445   114A      1.352112  
     115A      1.376168   116A      1.385741   117A      1.390976  
     118A      1.414289   119A      1.422495   120A      1.456851  
     121A      1.464228   122A      1.475060   123A      1.497384  
     124A      1.513032   125A      1.523189   126A      1.526984  
     127A      1.535760   128A      1.559507   129A      1.567347  
     130A      1.602432   131A      1.608880   132A      1.635300  
     133A      1.642153   134A      1.671101   135A      1.680888  
     136A      1.695452   137A      1.726781   138A      1.749472  
     139A      1.765457   140A      1.789798   141A      1.824704  
     142A      1.843245   143A      1.856858   144A      1.885008  
     145A      1.903918   146A      1.951332   147A      1.973393  
     148A      1.981324   149A      2.004929   150A      2.038171  
     151A      2.099561   152A      2.145552   153A      2.158638  
     154A      2.217294   155A      2.305719   156A      2.312384  
     157A      2.347662   158A      2.355693   159A      2.368480  
     160A      2.409242   161A      2.423619   162A      2.463161  
     163A      2.513320   164A      2.565249   165A      2.587229  
     166A      2.619239   167A      2.638969   168A      2.692898  
     169A      2.733750   170A      2.751359   171A      2.797646  
     172A      2.820205   173A      2.830623   174A      2.857181  
     175A      2.868878   176A      2.985584   177A      3.013145  
     178A      3.025320   179A      3.114047   180A      3.126053  
     181A      3.166571   182A      3.192185   183A      3.223931  
     184A      3.281154   185A      3.311781   186A      3.317546  
     187A      3.343199   188A      3.367383   189A      3.434712  
     190A      3.445371   191A      3.487662   192A      3.514143  
     193A      3.561177   194A      3.575923   195A      3.584699  
     196A      3.594924   197A      3.617239   198A      3.618344  
     199A      3.674400   200A      3.685481   201A      3.721145  
     202A      3.753498   203A      3.787444   204A      3.802253  
     205A      3.806461   206A      3.836661   207A      3.853479  
     208A      3.863528   209A      3.875685   210A      3.900554  
     211A      3.923034   212A      3.949884   213A      3.976851  
     214A      4.004418   215A      4.035199   216A      4.072208  
     217A      4.086165   218A      4.132034   219A      4.148216  
     220A      4.157782   221A      4.213465   222A      4.233894  
     223A      4.255903   224A      4.266664   225A      4.281612  
     226A      4.283693   227A      4.303786   228A      4.316029  
     229A      4.324156   230A      4.333090   231A      4.357368  
     232A      4.383496   233A      4.411733   234A      4.425330  
     235A      4.475333   236A      4.492916   237A      4.501431  
     238A      4.509021   239A      4.549398   240A      4.572186  
     241A      4.608224   242A      4.610784   243A      4.627460  
     244A      4.674779   245A      4.697343   246A      4.702396  
     247A      4.715819   248A      4.737697   249A      4.757881  
     250A      4.765579   251A      4.773345   252A      4.797922  
     253A      4.809180   254A      4.820152   255A      4.831232  
     256A      4.850654   257A      4.863198   258A      4.881398  
     259A      4.896930   260A      4.920300   261A      4.924882  
     262A      4.967194   263A      4.984117   264A      5.007682  
     265A      5.035070   266A      5.041510   267A      5.053053  
     268A      5.103519   269A      5.113957   270A      5.127819  
     271A      5.145905   272A      5.157131   273A      5.168784  
     274A      5.194709   275A      5.272543   276A      5.308889  
     277A      5.355847   278A      5.387949   279A      5.420878  
     280A      5.456594   281A      5.478495   282A      5.656453  
     283A      5.665681   284A      5.689908   285A      5.692803  
     286A      5.703974   287A      5.741824   288A      5.849410  
     289A      5.907284   290A      5.921274   291A      5.974723  
     292A      6.022478   293A      6.060248   294A      6.080240  
     295A      6.143144   296A      6.204895   297A      6.255194  
     298A      6.284894   299A      6.293821   300A      6.347148  
     301A      6.366937   302A      6.375471   303A      6.429874  
     304A      6.442356   305A      6.472970   306A      6.508703  
     307A      6.558810   308A      6.569210   309A      6.660660  
     310A      6.707099   311A      6.735431   312A      6.849462  
     313A      6.893830   314A      6.928895   315A      7.035261  
     316A      7.077198   317A      7.211551   318A      7.276394  
     319A      7.323023   320A      7.337092   321A      7.344950  
     322A      7.438255   323A      7.447677   324A      7.502714  
     325A      7.534690   326A      7.554426   327A      7.648232  
     328A      7.728628   329A      7.799198   330A      7.833503  
     331A      7.845661   332A      7.851674   333A      7.900940  
     334A      8.030903   335A      8.096847   336A      8.252828  
     337A      8.485643   338A      8.811963   339A      9.071507  
     340A      9.091330   341A      9.117597   342A      9.414418  
     343A      9.789017   344A      9.840547   345A      9.874786  
     346A      9.981659   347A     10.168860   348A     10.542010  
     349A     10.889186   350A     11.424287   351A     11.559418  
     352A     11.644928   353A     11.958510   354A     13.392894  
     355A     13.783911   356A     14.279159   357A     42.530162  
     358A     46.202679   359A     55.378287   360A     60.610911  

    Final Occupation by Irrep:
              A 
    DOCC [     9 ]

  @DF-RHF Final Energy:  -115.09092267575497

   => Energetics <=

    Nuclear Repulsion Energy =             40.2437580569153468
    One-Electron Energy =                -236.7399707343001580
    Two-Electron Energy =                  81.4052900016298508
    Total Energy =                       -115.0909226757549675

Computation Completed


Properties will be evaluated at   0.000000,   0.000000,   0.000000 [a0]

Properties computed using the SCF density matrix

  Nuclear Dipole Moment: [e a0]
     X:    84.8867      Y:    -0.2342      Z:    -0.1935

  Electronic Dipole Moment: [e a0]
     X:   -84.8004      Y:    -0.3908      Z:     0.5214

  Dipole Moment: [e a0]
     X:     0.0863      Y:    -0.6250      Z:     0.3279     Total:     0.7110

  Dipole Moment: [D]
     X:     0.2194      Y:    -1.5886      Z:     0.8333     Total:     1.8072


*** tstop() called on r282 at Fri Sep 10 11:31:27 2021
Module time:
	user time   =       8.88 seconds =       0.15 minutes
	system time =       0.21 seconds =       0.00 minutes
	total time  =         10 seconds =       0.17 minutes
Total time:
	user time   =      39.21 seconds =       0.65 minutes
	system time =       1.05 seconds =       0.02 minutes
	total time  =         41 seconds =       0.68 minutes
  Constructing Basis Sets for SAPT...

   => Loading Basis Set <=

    Name: (JUN-CC-PVTZ AUX)
    Role: RIFIT
    Keyword: DF_BASIS_SAPT
    atoms 1-2, 10    entry C          line   132 file /home/r08543048/miniconda3/share/psi4/basis/jun-cc-pvtz-ri.gbs 
    atoms 3, 11      entry O          line   244 file /home/r08543048/miniconda3/share/psi4/basis/jun-cc-pvtz-ri.gbs 
    atoms 4          entry N          line   188 file /home/r08543048/miniconda3/share/psi4/basis/jun-cc-pvtz-ri.gbs 
    atoms 5-9, 12-15 entry H          line    30 file /home/r08543048/miniconda3/share/psi4/basis/jun-cc-pvtz-ri.gbs 


  //>>>>>>>>>>>>>>>>>>>>>>>>>>>>>>>>>>>//
  //               SAPT0               //
  //<<<<<<<<<<<<<<<<<<<<<<<<<<<<<<<<<<<//


*** tstart() called on r282
*** at Fri Sep 10 11:31:27 2021

        SAPT0  
    Ed Hohenstein
     6 June 2009

      Orbital Information
  --------------------------
    NSO        =       360
    NMO        =       360
    NRI        =       852
    NOCC A     =        16
    NOCC B     =         9
    FOCC A     =         0
    FOCC B     =         0
    NVIR A     =       344
    NVIR B     =       351

    Elst10,r            =    -0.030526503448 [Eh]
    Exch10              =     0.028962995417 [Eh]
    Exch10 (S^2)        =     0.028689458892 [Eh]

    Iter     Energy [mEh]          dE [mEh]         Residual      Time [s]
       1      -6.42657939       6.426579385      15.903316704             1
       2      -8.02953000       1.602950611       8.771268948             1
       3      -8.36824666       0.338716663       2.505267056             1
       4      -8.29594287      -0.072303790       0.929313818             2
       5      -8.28938919      -0.006553677       0.290397838             2
       6      -8.29680677       0.007417582       0.091304798             2
       7      -8.29700543       0.000198652       0.024433891             3
       8      -8.29651402      -0.000491402       0.007144700             3
       9      -8.29650011      -0.000013913       0.002135381             3
      10      -8.29653311       0.000032999       0.000484755             4
      11      -8.29653303      -0.000000078       0.000152725             4
      12      -8.29653129      -0.000001744       0.000070026             4
      13      -8.29653149       0.000000198       0.000026453             5
      14      -8.29653179       0.000000309       0.000006254             5
      15      -8.29653174      -0.000000059       0.000001583             6
      16      -8.29653173      -0.000000007       0.000000393             6

    CHF Iterations converged


    Iter     Energy [mEh]          dE [mEh]         Residual      Time [s]
       1      -5.28903393       5.289033931      12.988939027             0
       2      -6.27464980       0.985615865       5.961437021             1
       3      -6.45345503       0.178805238       1.762383906             1
       4      -6.43835416      -0.015100872       0.552504613             1
       5      -6.42166827      -0.016685893       0.099585022             2
       6      -6.42432922       0.002660948       0.037293651             2
       7      -6.42466283       0.000333612       0.010286120             2
       8      -6.42439697      -0.000265859       0.002352621             2
       9      -6.42442959       0.000032616       0.000627894             3
      10      -6.42442930      -0.000000284       0.000135968             3
      11      -6.42442783      -0.000001474       0.000029318             3
      12      -6.42442811       0.000000275       0.000005467             4
      13      -6.42442809      -0.000000012       0.000001191             4
      14      -6.42442809      -0.000000007       0.000000240             4

    CHF Iterations converged

    Ind20,r (A<-B)      =    -0.008296531728 [Eh]
    Ind20,r (B<-A)      =    -0.006424428086 [Eh]
    Ind20,r             =    -0.014720959815 [Eh]
    Exch-Ind20,r (A<-B) =     0.005073165492 [Eh]
    Exch-Ind20,r (B<-A) =     0.003700315056 [Eh]
    Exch-Ind20,r        =     0.008773480548 [Eh]
    Disp20              =    -0.010964762905 [Eh]
    Disp20 (SS)         =    -0.005482381453 [Eh]
    Disp20 (OS)         =    -0.005482381453 [Eh]
    Exch-Disp20         =     0.002149236611 [Eh]
    Exch-Disp20 (SS)    =     0.001342250469 [Eh]
    Exch-Disp20 (OS)    =     0.000806986143 [Eh]

    SAPT Results 
  --------------------------------------------------------------------------------------------------------
    Electrostatics                -30.52650345 [mEh]     -19.15567012 [kcal/mol]     -80.14732376 [kJ/mol]
      Elst10,r                    -30.52650345 [mEh]     -19.15567012 [kcal/mol]     -80.14732376 [kJ/mol]

    Exchange                       28.96299542 [mEh]      18.17455401 [kcal/mol]      76.04233399 [kJ/mol]
      Exch10                       28.96299542 [mEh]      18.17455401 [kcal/mol]      76.04233399 [kJ/mol]
      Exch10(S^2)                  28.68945889 [mEh]      18.00290725 [kcal/mol]      75.32416394 [kJ/mol]

    Induction                      -9.96027395 [mEh]      -6.25016627 [kcal/mol]     -26.15069566 [kJ/mol]
      Ind20,r                     -14.72095981 [mEh]      -9.23754175 [kcal/mol]     -38.64987467 [kJ/mol]
      Exch-Ind20,r                  8.77348055 [mEh]       5.50544216 [kcal/mol]      23.03477001 [kJ/mol]
      delta HF,r (2)               -4.01279469 [mEh]      -2.51806668 [kcal/mol]     -10.53559100 [kJ/mol]

    Dispersion                     -8.81552629 [mEh]      -5.53182627 [kcal/mol]     -23.14516110 [kJ/mol]
      Disp20                      -10.96476291 [mEh]      -6.88049260 [kcal/mol]     -28.78798104 [kJ/mol]
      Exch-Disp20                   2.14923661 [mEh]       1.34866634 [kcal/mol]       5.64281995 [kJ/mol]
      Disp20 (SS)                  -5.48238145 [mEh]      -3.44024630 [kcal/mol]     -14.39399052 [kJ/mol]
      Disp20 (OS)                  -5.48238145 [mEh]      -3.44024630 [kcal/mol]     -14.39399052 [kJ/mol]
      Exch-Disp20 (SS)              1.34225047 [mEh]       0.84227489 [kcal/mol]       3.52407812 [kJ/mol]
      Exch-Disp20 (OS)              0.80698614 [mEh]       0.50639145 [kcal/mol]       2.11874183 [kJ/mol]

  Total HF                        -11.52378199 [mEh]      -7.23128237 [kcal/mol]     -30.25568544 [kJ/mol]
  Total SAPT0                     -20.33930828 [mEh]     -12.76310864 [kcal/mol]     -53.40084653 [kJ/mol]

  Special recipe for scaled SAPT0 (see Manual):
    Electrostatics sSAPT0         -30.52650345 [mEh]     -19.15567012 [kcal/mol]     -80.14732376 [kJ/mol]
    Exchange sSAPT0                28.96299542 [mEh]      18.17455401 [kcal/mol]      76.04233399 [kJ/mol]
    Induction sSAPT0               -9.70692431 [mEh]      -6.09118697 [kcal/mol]     -25.48552627 [kJ/mol]
    Dispersion sSAPT0              -8.75346332 [mEh]      -5.49288116 [kcal/mol]     -22.98221477 [kJ/mol]
  Total sSAPT0                    -20.02389566 [mEh]     -12.56518423 [kcal/mol]     -52.57273082 [kJ/mol]
  --------------------------------------------------------------------------------------------------------

*** tstop() called on r282 at Fri Sep 10 11:32:04 2021
Module time:
	user time   =      30.19 seconds =       0.50 minutes
	system time =       6.64 seconds =       0.11 minutes
	total time  =         37 seconds =       0.62 minutes
Total time:
	user time   =      69.50 seconds =       1.16 minutes
	system time =       7.69 seconds =       0.13 minutes
	total time  =         78 seconds =       1.30 minutes

    Psi4 stopped on: Friday, 10 September 2021 11:32AM
    Psi4 wall time for execution: 0:01:17.32

*** Psi4 exiting successfully. Buy a developer a beer!
