
    -----------------------------------------------------------------------
          Psi4: An Open-Source Ab Initio Electronic Structure Package
                               Psi4 1.3.2 release

                         Git: Rev {HEAD} ecbda83 


    R. M. Parrish, L. A. Burns, D. G. A. Smith, A. C. Simmonett,
    A. E. DePrince III, E. G. Hohenstein, U. Bozkaya, A. Yu. Sokolov,
    R. Di Remigio, R. M. Richard, J. F. Gonthier, A. M. James,
    H. R. McAlexander, A. Kumar, M. Saitow, X. Wang, B. P. Pritchard,
    P. Verma, H. F. Schaefer III, K. Patkowski, R. A. King, E. F. Valeev,
    F. A. Evangelista, J. M. Turney, T. D. Crawford, and C. D. Sherrill,
    J. Chem. Theory Comput. 13(7) pp 3185--3197 (2017).
    (doi: 10.1021/acs.jctc.7b00174)


                         Additional Contributions by
    P. Kraus, H. Kruse, M. H. Lechner, M. C. Schieber, R. A. Shaw,
    A. Alenaizan, R. Galvelis, Z. L. Glick, S. Lehtola, and J. P. Misiewicz

    -----------------------------------------------------------------------


    Psi4 started on: Friday, 10 September 2021 11:13AM

    Process ID: 56533
    Host:       r282
    PSIDATADIR: /home/r08543048/miniconda3/share/psi4
    Memory:     500.0 MiB
    Threads:    1
    
  ==> Input File <==

--------------------------------------------------------------------------
# Any line starting with the # character is a comment line
#! Sample  computation

memory 22 gb

molecule Dimer {
0 1
 C  2.200141    0.644872    0.059924
 C  0.727926    0.307851   -0.046263
 O -0.112836    1.210532   -0.109301
 N  0.386320   -0.998514   -0.065832
 H -0.596736   -1.236159   -0.142294
 H  1.082039   -1.718967   -0.032425
 C  3.176378   -0.521189    0.124015
 H  3.120147   -1.141495   -0.770846
 H  4.197757   -0.152216    0.197803
 H  2.995070   -1.149459    0.996397 
 H  2.419449    1.286729   -0.794103
 H  2.296473    1.278874    0.942213

 



    
    
    
 --
0 1
 C -3.566985   -0.046016    0.339486 
 O -2.387812   -0.330433   -0.399547
 H -4.206609   -0.922947    0.281205
 H -4.106279    0.805321   -0.079259
 H -3.347759    0.157227    1.389751
 H -1.777359    0.428788   -0.319806









 
 







units angstrom

no_reorient
symmetry c1
}

set globals{
  basis jun-cc-pvtz
}

energy('sapt0')


--------------------------------------------------------------------------

  Memory set to  20.489 GiB by Python driver.

  //>>>>>>>>>>>>>>>>>>>>>>>>>>>>>>>>>>>//
  //              Dimer HF             //
  //<<<<<<<<<<<<<<<<<<<<<<<<<<<<<<<<<<<//


*** tstart() called on r282
*** at Fri Sep 10 11:13:20 2021

   => Loading Basis Set <=

    Name: JUN-CC-PVTZ
    Role: ORBITAL
    Keyword: BASIS
    atoms 1-2, 7, 13       entry C          line   217 file /home/r08543048/miniconda3/share/psi4/basis/jun-cc-pvtz.gbs 
    atoms 3, 14            entry O          line   305 file /home/r08543048/miniconda3/share/psi4/basis/jun-cc-pvtz.gbs 
    atoms 4                entry N          line   261 file /home/r08543048/miniconda3/share/psi4/basis/jun-cc-pvtz.gbs 
    atoms 5-6, 8-12, 15-18 entry H          line    36 file /home/r08543048/miniconda3/share/psi4/basis/jun-cc-pvtz.gbs 


         ---------------------------------------------------------
                                   SCF
               by Justin Turney, Rob Parrish, Andy Simmonett
                          and Daniel G. A. Smith
                              RHF Reference
                        1 Threads,  20980 MiB Core
         ---------------------------------------------------------

  ==> Geometry <==

    Molecular point group: c1
    Full point group: C1

    Geometry (in Angstrom), charge = 0, multiplicity = 1:

       Center              X                  Y                   Z               Mass       
    ------------   -----------------  -----------------  -----------------  -----------------
         C            2.219612301057     0.622619650372     0.075656866590    12.000000000000
         C            0.747397301057     0.285598650372    -0.030530133410    12.000000000000
         O           -0.093364698943     1.188279650372    -0.093568133410    15.994914619570
         N            0.405791301057    -1.020766349628    -0.050099133410    14.003074004430
         H           -0.577264698943    -1.258411349628    -0.126561133410     1.007825032230
         H            1.101510301057    -1.741219349628    -0.016692133410     1.007825032230
         C            3.195849301057    -0.543441349628     0.139747866590    12.000000000000
         H            3.139618301057    -1.163747349628    -0.755113133410     1.007825032230
         H            4.217228301057    -0.174468349628     0.213535866590     1.007825032230
         H            3.014541301057    -1.171711349628     1.012129866590     1.007825032230
         H            2.438920301057     1.264476650372    -0.778370133410     1.007825032230
         H            2.315944301057     1.256621650372     0.957945866590     1.007825032230
         C           -3.547513698943    -0.068268349628     0.355218866590    12.000000000000
         O           -2.368340698943    -0.352685349628    -0.383814133410    15.994914619570
         H           -4.187137698943    -0.945199349628     0.296937866590     1.007825032230
         H           -4.086807698943     0.783068650372    -0.063526133410     1.007825032230
         H           -3.328287698943     0.134974650372     1.405483866590     1.007825032230
         H           -1.757887698943     0.406535650372    -0.304073133410     1.007825032230

  Running in c1 symmetry.

  Rotational constants: A =      0.23935  B =      0.03121  C =      0.02852 [cm^-1]
  Rotational constants: A =   7175.64484  B =    935.73509  C =    855.01874 [MHz]
  Nuclear repulsion =  313.325340993095040

  Charge       = 0
  Multiplicity = 1
  Electrons    = 58
  Nalpha       = 29
  Nbeta        = 29

  ==> Algorithm <==

  SCF Algorithm Type is DF.
  DIIS enabled.
  MOM disabled.
  Fractional occupation disabled.
  Guess Type is SAD.
  Energy threshold   = 1.00e-08
  Density threshold  = 1.00e-08
  Integral threshold = 0.00e+00

  ==> Primary Basis <==

  Basis Set: JUN-CC-PVTZ
    Blend: JUN-CC-PVTZ
    Number of shells: 157
    Number of basis function: 427
    Number of Cartesian functions: 480
    Spherical Harmonics?: true
    Max angular momentum: 3

   => Loading Basis Set <=

    Name: (JUN-CC-PVTZ AUX)
    Role: JKFIT
    Keyword: DF_BASIS_SCF
    atoms 1-2, 7, 13       entry C          line   152 file /home/r08543048/miniconda3/share/psi4/basis/jun-cc-pvtz-jkfit.gbs 
    atoms 3, 14            entry O          line   272 file /home/r08543048/miniconda3/share/psi4/basis/jun-cc-pvtz-jkfit.gbs 
    atoms 4                entry N          line   212 file /home/r08543048/miniconda3/share/psi4/basis/jun-cc-pvtz-jkfit.gbs 
    atoms 5-6, 8-12, 15-18 entry H          line    70 file /home/r08543048/miniconda3/share/psi4/basis/jun-cc-pvtz-jkfit.gbs 

  ==> Pre-Iterations <==

   -------------------------------------------------------
    Irrep   Nso     Nmo     Nalpha   Nbeta   Ndocc  Nsocc
   -------------------------------------------------------
     A        427     427       0       0       0       0
   -------------------------------------------------------
    Total     427     427      29      29      29       0
   -------------------------------------------------------

  ==> Integral Setup <==

  ==> DiskDFJK: Density-Fitted J/K Matrices <==

    J tasked:                  Yes
    K tasked:                  Yes
    wK tasked:                  No
    OpenMP threads:              1
    Integrals threads:           1
    Memory [MiB]:            15735
    Algorithm:                Core
    Integral Cache:           SAVE
    Schwarz Cutoff:          1E-12
    Fitting Condition:       1E-10

   => Auxiliary Basis Set <=

  Basis Set: (JUN-CC-PVTZ AUX)
    Blend: JUN-CC-PVTZ-JKFIT
    Number of shells: 313
    Number of basis function: 995
    Number of Cartesian functions: 1197
    Spherical Harmonics?: true
    Max angular momentum: 4

  Minimum eigenvalue in the overlap matrix is 3.7604760451E-05.
  Using Symmetric Orthogonalization.

  SCF Guess: Superposition of Atomic Densities via on-the-fly atomic UHF.

  ==> Iterations <==

                           Total Energy        Delta E     RMS |[F,P]|

   @DF-RHF iter SAD:  -360.93322575288499   -3.60933e+02   0.00000e+00 
   @DF-RHF iter   1:  -361.94157311601282   -1.00835e+00   1.72472e-03 DIIS
   @DF-RHF iter   2:  -362.15197890096795   -2.10406e-01   9.16011e-04 DIIS
   @DF-RHF iter   3:  -362.20523677503837   -5.32579e-02   1.71686e-04 DIIS
   @DF-RHF iter   4:  -362.20866344371387   -3.42667e-03   7.34216e-05 DIIS
   @DF-RHF iter   5:  -362.20923147027889   -5.68027e-04   1.61252e-05 DIIS
   @DF-RHF iter   6:  -362.20927437523449   -4.29050e-05   7.25689e-06 DIIS
   @DF-RHF iter   7:  -362.20928153855345   -7.16332e-06   2.40160e-06 DIIS
   @DF-RHF iter   8:  -362.20928308391734   -1.54536e-06   9.15057e-07 DIIS
   @DF-RHF iter   9:  -362.20928332623839   -2.42321e-07   3.15482e-07 DIIS
   @DF-RHF iter  10:  -362.20928334968607   -2.34477e-08   1.04385e-07 DIIS
   @DF-RHF iter  11:  -362.20928335189041   -2.20433e-09   2.63954e-08 DIIS
   @DF-RHF iter  12:  -362.20928335203712   -1.46713e-10   7.95411e-09 DIIS
  Energy and wave function converged.


  ==> Post-Iterations <==

    Orbital Energies [Eh]
    ---------------------

    Doubly Occupied:                                                      

       1A    -20.534863     2A    -20.520151     3A    -15.582840  
       4A    -11.357481     5A    -11.256636     6A    -11.245229  
       7A    -11.238228     8A     -1.380979     9A     -1.334994  
      10A     -1.215254    11A     -1.062171    12A     -0.914296  
      13A     -0.904899    14A     -0.793913    15A     -0.737289  
      16A     -0.685366    17A     -0.648318    18A     -0.647084  
      19A     -0.608456    20A     -0.598819    21A     -0.575927  
      22A     -0.563424    23A     -0.560314    24A     -0.528027  
      25A     -0.505434    26A     -0.489087    27A     -0.436589  
      28A     -0.423426    29A     -0.415893  

    Virtual:                                                              

      30A      0.041640    31A      0.058129    32A      0.065346  
      33A      0.069191    34A      0.074173    35A      0.084640  
      36A      0.086227    37A      0.098950    38A      0.106350  
      39A      0.106989    40A      0.114508    41A      0.120320  
      42A      0.140270    43A      0.150242    44A      0.161194  
      45A      0.165958    46A      0.180018    47A      0.181779  
      48A      0.199735    49A      0.214300    50A      0.217162  
      51A      0.231574    52A      0.235960    53A      0.250608  
      54A      0.251638    55A      0.259674    56A      0.264648  
      57A      0.273165    58A      0.289071    59A      0.291052  
      60A      0.294960    61A      0.297445    62A      0.302931  
      63A      0.311658    64A      0.315044    65A      0.317454  
      66A      0.328839    67A      0.340203    68A      0.343690  
      69A      0.345351    70A      0.361864    71A      0.368718  
      72A      0.370754    73A      0.378410    74A      0.388572  
      75A      0.397625    76A      0.417924    77A      0.421922  
      78A      0.434414    79A      0.438093    80A      0.450381  
      81A      0.469140    82A      0.478896    83A      0.488974  
      84A      0.497842    85A      0.503289    86A      0.509484  
      87A      0.526467    88A      0.530245    89A      0.539853  
      90A      0.547410    91A      0.569981    92A      0.581504  
      93A      0.594800    94A      0.605699    95A      0.615865  
      96A      0.618663    97A      0.623208    98A      0.644647  
      99A      0.652185   100A      0.661073   101A      0.673965  
     102A      0.694135   103A      0.702173   104A      0.704466  
     105A      0.720928   106A      0.734396   107A      0.749354  
     108A      0.753527   109A      0.762597   110A      0.769748  
     111A      0.774103   112A      0.781943   113A      0.790802  
     114A      0.801951   115A      0.817747   116A      0.833301  
     117A      0.837103   118A      0.847094   119A      0.868231  
     120A      0.882831   121A      0.884957   122A      0.890355  
     123A      0.906283   124A      0.916267   125A      0.927313  
     126A      0.937681   127A      0.951003   128A      0.965857  
     129A      0.980381   130A      0.987009   131A      1.007005  
     132A      1.023502   133A      1.038373   134A      1.049274  
     135A      1.065539   136A      1.083478   137A      1.085319  
     138A      1.102765   139A      1.105472   140A      1.124087  
     141A      1.137494   142A      1.172116   143A      1.184237  
     144A      1.200438   145A      1.215367   146A      1.223307  
     147A      1.264355   148A      1.275953   149A      1.287963  
     150A      1.296776   151A      1.305057   152A      1.317037  
     153A      1.321841   154A      1.329748   155A      1.346608  
     156A      1.355436   157A      1.358482   158A      1.378589  
     159A      1.379499   160A      1.387808   161A      1.401433  
     162A      1.418865   163A      1.423749   164A      1.436776  
     165A      1.442086   166A      1.452470   167A      1.466228  
     168A      1.489842   169A      1.494860   170A      1.498551  
     171A      1.505207   172A      1.524685   173A      1.542489  
     174A      1.568157   175A      1.579422   176A      1.581103  
     177A      1.599951   178A      1.609266   179A      1.627200  
     180A      1.637921   181A      1.661563   182A      1.683110  
     183A      1.699117   184A      1.715021   185A      1.733638  
     186A      1.757459   187A      1.769794   188A      1.801214  
     189A      1.814245   190A      1.833404   191A      1.841504  
     192A      1.871402   193A      1.878297   194A      1.908177  
     195A      1.923063   196A      1.943158   197A      1.969322  
     198A      1.977788   199A      2.040575   200A      2.076742  
     201A      2.139424   202A      2.153092   203A      2.234910  
     204A      2.274661   205A      2.315067   206A      2.333249  
     207A      2.369702   208A      2.398963   209A      2.427567  
     210A      2.462818   211A      2.472559   212A      2.516777  
     213A      2.591642   214A      2.639284   215A      2.671575  
     216A      2.741009   217A      2.768793   218A      2.793730  
     219A      2.800466   220A      2.804221   221A      2.848885  
     222A      2.869353   223A      2.888461   224A      2.928183  
     225A      2.941993   226A      2.977177   227A      2.997038  
     228A      3.036106   229A      3.064444   230A      3.095309  
     231A      3.113052   232A      3.119872   233A      3.128618  
     234A      3.140071   235A      3.166877   236A      3.189793  
     237A      3.193814   238A      3.203422   239A      3.227922  
     240A      3.236518   241A      3.266453   242A      3.301901  
     243A      3.307448   244A      3.318268   245A      3.327659  
     246A      3.340337   247A      3.370067   248A      3.375805  
     249A      3.381866   250A      3.393788   251A      3.416388  
     252A      3.428796   253A      3.449059   254A      3.464006  
     255A      3.472935   256A      3.481102   257A      3.487950  
     258A      3.500225   259A      3.512297   260A      3.532816  
     261A      3.537376   262A      3.552107   263A      3.557001  
     264A      3.569058   265A      3.575692   266A      3.581868  
     267A      3.608171   268A      3.613410   269A      3.636601  
     270A      3.647653   271A      3.676229   272A      3.684863  
     273A      3.701341   274A      3.732005   275A      3.735551  
     276A      3.762017   277A      3.770920   278A      3.797794  
     279A      3.819024   280A      3.830293   281A      3.859747  
     282A      3.870092   283A      3.879997   284A      3.886186  
     285A      3.912533   286A      3.922274   287A      3.932772  
     288A      3.971982   289A      3.982907   290A      3.985439  
     291A      4.015795   292A      4.038562   293A      4.074900  
     294A      4.082583   295A      4.100106   296A      4.153461  
     297A      4.161194   298A      4.175195   299A      4.186604  
     300A      4.189495   301A      4.197812   302A      4.243160  
     303A      4.245833   304A      4.265696   305A      4.277568  
     306A      4.303109   307A      4.309468   308A      4.317610  
     309A      4.327124   310A      4.339299   311A      4.365204  
     312A      4.368052   313A      4.380724   314A      4.397658  
     315A      4.398864   316A      4.414354   317A      4.427782  
     318A      4.437541   319A      4.453799   320A      4.491502  
     321A      4.494353   322A      4.509387   323A      4.538254  
     324A      4.557942   325A      4.579274   326A      4.581028  
     327A      4.617648   328A      4.622289   329A      4.625362  
     330A      4.644181   331A      4.648749   332A      4.677297  
     333A      4.703772   334A      4.733921   335A      4.758629  
     336A      4.774744   337A      4.785033   338A      4.820293  
     339A      4.849236   340A      4.872569   341A      4.894319  
     342A      4.911839   343A      4.927052   344A      4.966894  
     345A      4.998982   346A      5.024786   347A      5.052804  
     348A      5.109752   349A      5.117993   350A      5.171550  
     351A      5.190297   352A      5.196403   353A      5.212136  
     354A      5.233094   355A      5.254809   356A      5.262811  
     357A      5.322148   358A      5.343985   359A      5.349293  
     360A      5.363730   361A      5.383961   362A      5.401282  
     363A      5.436937   364A      5.447822   365A      5.473987  
     366A      5.499211   367A      5.507742   368A      5.540826  
     369A      5.592747   370A      5.632698   371A      5.640567  
     372A      5.704096   373A      5.711964   374A      5.733601  
     375A      5.739097   376A      5.742919   377A      5.754425  
     378A      5.776136   379A      5.837952   380A      5.864006  
     381A      5.888888   382A      5.898738   383A      5.940336  
     384A      5.964313   385A      5.999579   386A      6.007191  
     387A      6.075312   388A      6.091675   389A      6.128035  
     390A      6.222668   391A      6.227695   392A      6.309588  
     393A      6.348075   394A      6.384604   395A      6.395222  
     396A      6.470633   397A      6.490426   398A      6.531585  
     399A      6.536040   400A      6.644258   401A      6.712338  
     402A      6.763907   403A      6.815775   404A      6.907311  
     405A      7.034925   406A      7.177732   407A      7.216900  
     408A      7.261080   409A      7.320600   410A      7.368702  
     411A      7.415067   412A      7.461113   413A      7.482005  
     414A      7.535804   415A      7.616576   416A      7.673736  
     417A      7.752558   418A      7.801922   419A      7.922009  
     420A      8.165958   421A     12.331748   422A     13.422659  
     423A     13.765583   424A     14.293472   425A     14.358287  
     426A     14.713679   427A     15.955561  

    Final Occupation by Irrep:
              A 
    DOCC [    29 ]

  @DF-RHF Final Energy:  -362.20928335203712

   => Energetics <=

    Nuclear Repulsion Energy =            313.3253409930950397
    One-Electron Energy =               -1115.5384734309222949
    Two-Electron Energy =                 440.0038490857900797
    Total Energy =                       -362.2092833520371187

Computation Completed


Properties will be evaluated at   0.000000,   0.000000,   0.000000 [a0]

Properties computed using the SCF density matrix

  Nuclear Dipole Moment: [e a0]
     X:     2.1342      Y:    -2.4390      Z:     1.7244

  Electronic Dipole Moment: [e a0]
     X:    -1.0367      Y:     1.6490      Z:    -1.3014

  Dipole Moment: [e a0]
     X:     1.0974      Y:    -0.7900      Z:     0.4230     Total:     1.4168

  Dipole Moment: [D]
     X:     2.7894      Y:    -2.0079      Z:     1.0752     Total:     3.6012


*** tstop() called on r282 at Fri Sep 10 11:13:59 2021
Module time:
	user time   =      36.76 seconds =       0.61 minutes
	system time =       0.89 seconds =       0.01 minutes
	total time  =         39 seconds =       0.65 minutes
Total time:
	user time   =      36.76 seconds =       0.61 minutes
	system time =       0.89 seconds =       0.01 minutes
	total time  =         39 seconds =       0.65 minutes

  //>>>>>>>>>>>>>>>>>>>>>>>>>>>>>>>>>>>//
  //            Monomer A HF           //
  //<<<<<<<<<<<<<<<<<<<<<<<<<<<<<<<<<<<//


*** tstart() called on r282
*** at Fri Sep 10 11:13:59 2021

   => Loading Basis Set <=

    Name: JUN-CC-PVTZ
    Role: ORBITAL
    Keyword: BASIS
    atoms 1-2, 7, 13       entry C          line   217 file /home/r08543048/miniconda3/share/psi4/basis/jun-cc-pvtz.gbs 
    atoms 3, 14            entry O          line   305 file /home/r08543048/miniconda3/share/psi4/basis/jun-cc-pvtz.gbs 
    atoms 4                entry N          line   261 file /home/r08543048/miniconda3/share/psi4/basis/jun-cc-pvtz.gbs 
    atoms 5-6, 8-12, 15-18 entry H          line    36 file /home/r08543048/miniconda3/share/psi4/basis/jun-cc-pvtz.gbs 


         ---------------------------------------------------------
                                   SCF
               by Justin Turney, Rob Parrish, Andy Simmonett
                          and Daniel G. A. Smith
                              RHF Reference
                        1 Threads,  20980 MiB Core
         ---------------------------------------------------------

  ==> Geometry <==

    Molecular point group: c1
    Full point group: C1

    Geometry (in Angstrom), charge = 0, multiplicity = 1:

       Center              X                  Y                   Z               Mass       
    ------------   -----------------  -----------------  -----------------  -----------------
         C            2.219612301057     0.622619650372     0.075656866590    12.000000000000
         C            0.747397301057     0.285598650372    -0.030530133410    12.000000000000
         O           -0.093364698943     1.188279650372    -0.093568133410    15.994914619570
         N            0.405791301057    -1.020766349628    -0.050099133410    14.003074004430
         H           -0.577264698943    -1.258411349628    -0.126561133410     1.007825032230
         H            1.101510301057    -1.741219349628    -0.016692133410     1.007825032230
         C            3.195849301057    -0.543441349628     0.139747866590    12.000000000000
         H            3.139618301057    -1.163747349628    -0.755113133410     1.007825032230
         H            4.217228301057    -0.174468349628     0.213535866590     1.007825032230
         H            3.014541301057    -1.171711349628     1.012129866590     1.007825032230
         H            2.438920301057     1.264476650372    -0.778370133410     1.007825032230
         H            2.315944301057     1.256621650372     0.957945866590     1.007825032230
      Gh(C)          -3.547513698943    -0.068268349628     0.355218866590    12.000000000000
      Gh(O)          -2.368340698943    -0.352685349628    -0.383814133410    15.994914619570
      Gh(H)          -4.187137698943    -0.945199349628     0.296937866590     1.007825032230
      Gh(H)          -4.086807698943     0.783068650372    -0.063526133410     1.007825032230
      Gh(H)          -3.328287698943     0.134974650372     1.405483866590     1.007825032230
      Gh(H)          -1.757887698943     0.406535650372    -0.304073133410     1.007825032230

  Running in c1 symmetry.

  Rotational constants: A =      0.23935  B =      0.03121  C =      0.02852 [cm^-1]
  Rotational constants: A =   7175.64484  B =    935.73509  C =    855.01874 [MHz]
  Nuclear repulsion =  179.184804534263321

  Charge       = 0
  Multiplicity = 1
  Electrons    = 40
  Nalpha       = 20
  Nbeta        = 20

  ==> Algorithm <==

  SCF Algorithm Type is DF.
  DIIS enabled.
  MOM disabled.
  Fractional occupation disabled.
  Guess Type is SAD.
  Energy threshold   = 1.00e-08
  Density threshold  = 1.00e-08
  Integral threshold = 0.00e+00

  ==> Primary Basis <==

  Basis Set: JUN-CC-PVTZ
    Blend: JUN-CC-PVTZ
    Number of shells: 157
    Number of basis function: 427
    Number of Cartesian functions: 480
    Spherical Harmonics?: true
    Max angular momentum: 3

   => Loading Basis Set <=

    Name: (JUN-CC-PVTZ AUX)
    Role: JKFIT
    Keyword: DF_BASIS_SCF
    atoms 1-2, 7, 13       entry C          line   152 file /home/r08543048/miniconda3/share/psi4/basis/jun-cc-pvtz-jkfit.gbs 
    atoms 3, 14            entry O          line   272 file /home/r08543048/miniconda3/share/psi4/basis/jun-cc-pvtz-jkfit.gbs 
    atoms 4                entry N          line   212 file /home/r08543048/miniconda3/share/psi4/basis/jun-cc-pvtz-jkfit.gbs 
    atoms 5-6, 8-12, 15-18 entry H          line    70 file /home/r08543048/miniconda3/share/psi4/basis/jun-cc-pvtz-jkfit.gbs 

  ==> Pre-Iterations <==

   -------------------------------------------------------
    Irrep   Nso     Nmo     Nalpha   Nbeta   Ndocc  Nsocc
   -------------------------------------------------------
     A        427     427       0       0       0       0
   -------------------------------------------------------
    Total     427     427      20      20      20       0
   -------------------------------------------------------

  ==> Integral Setup <==

  ==> DiskDFJK: Density-Fitted J/K Matrices <==

    J tasked:                  Yes
    K tasked:                  Yes
    wK tasked:                  No
    OpenMP threads:              1
    Integrals threads:           1
    Memory [MiB]:            15735
    Algorithm:                Core
    Integral Cache:           LOAD
    Schwarz Cutoff:          1E-12
    Fitting Condition:       1E-10

   => Auxiliary Basis Set <=

  Basis Set: (JUN-CC-PVTZ AUX)
    Blend: JUN-CC-PVTZ-JKFIT
    Number of shells: 313
    Number of basis function: 995
    Number of Cartesian functions: 1197
    Spherical Harmonics?: true
    Max angular momentum: 4

  Minimum eigenvalue in the overlap matrix is 3.7604760451E-05.
  Using Symmetric Orthogonalization.

  SCF Guess: Superposition of Atomic Densities via on-the-fly atomic UHF.

  ==> Iterations <==

                           Total Energy        Delta E     RMS |[F,P]|

   @DF-RHF iter SAD:  -246.33517904432944   -2.46335e+02   0.00000e+00 
   @DF-RHF iter   1:  -246.89458284943444   -5.59404e-01   1.52135e-03 DIIS
   @DF-RHF iter   2:  -247.05579674674942   -1.61214e-01   8.67496e-04 DIIS
   @DF-RHF iter   3:  -247.10312326718588   -4.73265e-02   1.67055e-04 DIIS
   @DF-RHF iter   4:  -247.10603839735668   -2.91513e-03   7.48994e-05 DIIS
   @DF-RHF iter   5:  -247.10666367741436   -6.25280e-04   1.27228e-05 DIIS
   @DF-RHF iter   6:  -247.10670180323183   -3.81258e-05   5.30126e-06 DIIS
   @DF-RHF iter   7:  -247.10670693095830   -5.12773e-06   2.20781e-06 DIIS
   @DF-RHF iter   8:  -247.10670820031137   -1.26935e-06   8.09782e-07 DIIS
   @DF-RHF iter   9:  -247.10670840542011   -2.05109e-07   1.78182e-07 DIIS
   @DF-RHF iter  10:  -247.10670841496511   -9.54500e-09   4.88945e-08 DIIS
   @DF-RHF iter  11:  -247.10670841546909   -5.03974e-10   1.45259e-08 DIIS
   @DF-RHF iter  12:  -247.10670841550899   -3.99041e-11   4.30287e-09 DIIS
  Energy and wave function converged.


  ==> Post-Iterations <==

    Orbital Energies [Eh]
    ---------------------

    Doubly Occupied:                                                      

       1A    -20.508268     2A    -15.589053     3A    -11.349006  
       4A    -11.241479     5A    -11.236683     6A     -1.365514  
       7A     -1.215217     8A     -1.059439     9A     -0.904156  
      10A     -0.793685    11A     -0.737150    12A     -0.645543  
      13A     -0.644638    14A     -0.595984    15A     -0.558602  
      16A     -0.553699    17A     -0.524695    18A     -0.502674  
      19A     -0.415171    20A     -0.409652  

    Virtual:                                                              

      21A      0.039457    22A      0.047779    23A      0.060335  
      24A      0.067413    25A      0.068522    26A      0.079065  
      27A      0.081826    28A      0.096116    29A      0.107185  
      30A      0.107438    31A      0.113446    32A      0.119018  
      33A      0.131740    34A      0.148009    35A      0.154398  
      36A      0.160950    37A      0.178598    38A      0.183714  
      39A      0.187354    40A      0.190648    41A      0.207836  
      42A      0.215113    43A      0.225696    44A      0.234106  
      45A      0.244721    46A      0.249670    47A      0.270998  
      48A      0.271965    49A      0.280787    50A      0.285589  
      51A      0.287579    52A      0.295826    53A      0.300784  
      54A      0.303524    55A      0.310000    56A      0.313550  
      57A      0.331747    58A      0.337067    59A      0.341993  
      60A      0.353540    61A      0.354802    62A      0.360410  
      63A      0.378928    64A      0.387950    65A      0.399700  
      66A      0.406342    67A      0.415767    68A      0.431423  
      69A      0.435967    70A      0.446024    71A      0.452888  
      72A      0.462878    73A      0.471101    74A      0.482387  
      75A      0.498550    76A      0.503510    77A      0.509522  
      78A      0.517104    79A      0.528857    80A      0.531907  
      81A      0.541922    82A      0.553290    83A      0.560773  
      84A      0.583965    85A      0.588220    86A      0.603434  
      87A      0.609265    88A      0.619714    89A      0.622722  
      90A      0.625737    91A      0.638921    92A      0.649048  
      93A      0.669100    94A      0.698050    95A      0.716776  
      96A      0.733036    97A      0.747403    98A      0.755836  
      99A      0.765315   100A      0.777600   101A      0.783078  
     102A      0.787047   103A      0.812017   104A      0.830672  
     105A      0.848279   106A      0.856715   107A      0.858015  
     108A      0.877605   109A      0.888706   110A      0.892125  
     111A      0.897743   112A      0.915091   113A      0.919130  
     114A      0.934097   115A      0.948990   116A      0.971398  
     117A      0.974140   118A      0.984568   119A      1.006408  
     120A      1.011774   121A      1.042405   122A      1.047188  
     123A      1.053732   124A      1.056998   125A      1.064233  
     126A      1.088695   127A      1.091668   128A      1.101588  
     129A      1.116850   130A      1.126932   131A      1.135074  
     132A      1.152090   133A      1.162983   134A      1.178998  
     135A      1.197628   136A      1.213861   137A      1.222680  
     138A      1.227885   139A      1.244802   140A      1.271833  
     141A      1.291855   142A      1.303788   143A      1.308249  
     144A      1.328747   145A      1.329917   146A      1.355740  
     147A      1.360920   148A      1.373216   149A      1.380808  
     150A      1.381941   151A      1.399779   152A      1.416136  
     153A      1.427654   154A      1.441388   155A      1.448492  
     156A      1.465853   157A      1.479871   158A      1.490342  
     159A      1.499001   160A      1.501484   161A      1.509230  
     162A      1.530988   163A      1.553234   164A      1.560438  
     165A      1.577631   166A      1.586027   167A      1.597151  
     168A      1.610406   169A      1.622412   170A      1.661951  
     171A      1.663831   172A      1.696068   173A      1.700963  
     174A      1.727485   175A      1.736552   176A      1.744360  
     177A      1.790988   178A      1.812724   179A      1.818628  
     180A      1.833639   181A      1.848751   182A      1.866097  
     183A      1.891394   184A      1.914930   185A      1.932015  
     186A      1.947458   187A      1.977069   188A      1.982623  
     189A      1.998344   190A      2.020268   191A      2.023414  
     192A      2.129798   193A      2.174456   194A      2.219029  
     195A      2.265193   196A      2.271551   197A      2.299210  
     198A      2.329989   199A      2.381757   200A      2.402395  
     201A      2.450701   202A      2.476517   203A      2.594367  
     204A      2.615501   205A      2.648502   206A      2.725453  
     207A      2.742393   208A      2.777239   209A      2.800372  
     210A      2.807851   211A      2.845132   212A      2.870335  
     213A      2.886694   214A      2.898168   215A      2.925410  
     216A      2.959532   217A      2.982001   218A      2.999514  
     219A      3.040349   220A      3.047638   221A      3.066270  
     222A      3.078612   223A      3.100981   224A      3.116377  
     225A      3.161152   226A      3.174079   227A      3.193865  
     228A      3.227836   229A      3.232393   230A      3.281650  
     231A      3.299622   232A      3.336074   233A      3.346460  
     234A      3.364413   235A      3.374708   236A      3.386084  
     237A      3.422364   238A      3.435389   239A      3.449810  
     240A      3.470351   241A      3.472128   242A      3.479378  
     243A      3.499856   244A      3.515350   245A      3.524788  
     246A      3.538334   247A      3.558333   248A      3.560378  
     249A      3.570336   250A      3.580196   251A      3.600631  
     252A      3.605983   253A      3.613068   254A      3.648534  
     255A      3.651077   256A      3.672347   257A      3.687664  
     258A      3.696669   259A      3.702966   260A      3.734877  
     261A      3.759024   262A      3.762431   263A      3.784479  
     264A      3.832979   265A      3.868409   266A      3.872049  
     267A      3.887308   268A      3.891025   269A      3.942005  
     270A      3.961656   271A      3.972442   272A      3.975622  
     273A      3.987912   274A      3.995093   275A      4.021064  
     276A      4.037494   277A      4.070742   278A      4.097721  
     279A      4.136981   280A      4.170385   281A      4.178405  
     282A      4.190848   283A      4.195671   284A      4.213472  
     285A      4.223158   286A      4.241017   287A      4.249537  
     288A      4.271820   289A      4.300142   290A      4.308540  
     291A      4.315609   292A      4.323956   293A      4.335957  
     294A      4.363735   295A      4.369310   296A      4.371570  
     297A      4.401587   298A      4.412579   299A      4.423456  
     300A      4.439516   301A      4.479336   302A      4.491793  
     303A      4.497673   304A      4.530034   305A      4.557552  
     306A      4.578072   307A      4.580500   308A      4.615764  
     309A      4.622441   310A      4.628175   311A      4.640088  
     312A      4.655932   313A      4.662605   314A      4.679234  
     315A      4.694153   316A      4.698589   317A      4.713294  
     318A      4.726982   319A      4.745820   320A      4.758146  
     321A      4.772216   322A      4.789237   323A      4.813256  
     324A      4.842117   325A      4.853583   326A      4.858789  
     327A      4.877343   328A      4.897416   329A      4.906104  
     330A      4.926114   331A      4.937681   332A      4.955411  
     333A      4.973406   334A      5.003394   335A      5.041705  
     336A      5.084724   337A      5.112620   338A      5.171757  
     339A      5.193708   340A      5.206323   341A      5.208678  
     342A      5.232696   343A      5.243131   344A      5.255041  
     345A      5.266744   346A      5.338370   347A      5.344644  
     348A      5.376086   349A      5.392132   350A      5.425204  
     351A      5.438556   352A      5.447010   353A      5.459262  
     354A      5.516281   355A      5.546451   356A      5.602698  
     357A      5.636285   358A      5.645655   359A      5.697282  
     360A      5.736106   361A      5.744375   362A      5.761196  
     363A      5.789271   364A      5.816944   365A      5.859419  
     366A      5.867662   367A      5.882231   368A      5.893233  
     369A      5.912680   370A      5.969495   371A      5.993359  
     372A      5.995977   373A      6.018994   374A      6.056649  
     375A      6.091027   376A      6.142397   377A      6.224125  
     378A      6.236316   379A      6.239002   380A      6.313790  
     381A      6.327795   382A      6.379878   383A      6.471933  
     384A      6.532681   385A      6.539551   386A      6.638487  
     387A      6.646657   388A      6.712484   389A      6.776785  
     390A      6.823896   391A      6.948876   392A      7.118156  
     393A      7.231956   394A      7.276805   395A      7.371915  
     396A      7.389420   397A      7.416490   398A      7.470305  
     399A      7.489543   400A      7.495732   401A      7.551183  
     402A      7.582092   403A      7.710334   404A      7.752244  
     405A      7.800401   406A      7.827334   407A      7.849586  
     408A      8.025342   409A      8.380308   410A      8.466698  
     411A      9.613949   412A      9.688353   413A      9.852848  
     414A     10.054746   415A     10.124023   416A     10.340230  
     417A     11.132700   418A     11.596932   419A     12.340569  
     420A     12.708411   421A     13.560504   422A     13.791382  
     423A     14.360840   424A     14.715176   425A     15.952417  
     426A     45.197653   427A     60.324901  

    Final Occupation by Irrep:
              A 
    DOCC [    20 ]

  @DF-RHF Final Energy:  -247.10670841550899

   => Energetics <=

    Nuclear Repulsion Energy =            179.1848045342633213
    One-Electron Energy =                -690.8824099619082517
    Two-Electron Energy =                 264.5908970121359403
    Total Energy =                       -247.1067084155089901

Computation Completed


Properties will be evaluated at   0.000000,   0.000000,   0.000000 [a0]

Properties computed using the SCF density matrix

  Nuclear Dipole Moment: [e a0]
     X:   103.4082      Y:     2.9500      Z:     0.9768

  Electronic Dipole Moment: [e a0]
     X:  -102.3377      Y:    -4.3645      Z:    -0.9103

  Dipole Moment: [e a0]
     X:     1.0706      Y:    -1.4145      Z:     0.0665     Total:     1.7752

  Dipole Moment: [D]
     X:     2.7211      Y:    -3.5953      Z:     0.1690     Total:     4.5121


*** tstop() called on r282 at Fri Sep 10 11:14:21 2021
Module time:
	user time   =      21.67 seconds =       0.36 minutes
	system time =       0.48 seconds =       0.01 minutes
	total time  =         22 seconds =       0.37 minutes
Total time:
	user time   =      58.43 seconds =       0.97 minutes
	system time =       1.37 seconds =       0.02 minutes
	total time  =         61 seconds =       1.02 minutes

  //>>>>>>>>>>>>>>>>>>>>>>>>>>>>>>>>>>>//
  //            Monomer B HF           //
  //<<<<<<<<<<<<<<<<<<<<<<<<<<<<<<<<<<<//


*** tstart() called on r282
*** at Fri Sep 10 11:14:21 2021

   => Loading Basis Set <=

    Name: JUN-CC-PVTZ
    Role: ORBITAL
    Keyword: BASIS
    atoms 1-2, 7, 13       entry C          line   217 file /home/r08543048/miniconda3/share/psi4/basis/jun-cc-pvtz.gbs 
    atoms 3, 14            entry O          line   305 file /home/r08543048/miniconda3/share/psi4/basis/jun-cc-pvtz.gbs 
    atoms 4                entry N          line   261 file /home/r08543048/miniconda3/share/psi4/basis/jun-cc-pvtz.gbs 
    atoms 5-6, 8-12, 15-18 entry H          line    36 file /home/r08543048/miniconda3/share/psi4/basis/jun-cc-pvtz.gbs 


         ---------------------------------------------------------
                                   SCF
               by Justin Turney, Rob Parrish, Andy Simmonett
                          and Daniel G. A. Smith
                              RHF Reference
                        1 Threads,  20980 MiB Core
         ---------------------------------------------------------

  ==> Geometry <==

    Molecular point group: c1
    Full point group: C1

    Geometry (in Angstrom), charge = 0, multiplicity = 1:

       Center              X                  Y                   Z               Mass       
    ------------   -----------------  -----------------  -----------------  -----------------
      Gh(C)           2.219612301057     0.622619650372     0.075656866590    12.000000000000
      Gh(C)           0.747397301057     0.285598650372    -0.030530133410    12.000000000000
      Gh(O)          -0.093364698943     1.188279650372    -0.093568133410    15.994914619570
      Gh(N)           0.405791301057    -1.020766349628    -0.050099133410    14.003074004430
      Gh(H)          -0.577264698943    -1.258411349628    -0.126561133410     1.007825032230
      Gh(H)           1.101510301057    -1.741219349628    -0.016692133410     1.007825032230
      Gh(C)           3.195849301057    -0.543441349628     0.139747866590    12.000000000000
      Gh(H)           3.139618301057    -1.163747349628    -0.755113133410     1.007825032230
      Gh(H)           4.217228301057    -0.174468349628     0.213535866590     1.007825032230
      Gh(H)           3.014541301057    -1.171711349628     1.012129866590     1.007825032230
      Gh(H)           2.438920301057     1.264476650372    -0.778370133410     1.007825032230
      Gh(H)           2.315944301057     1.256621650372     0.957945866590     1.007825032230
         C           -3.547513698943    -0.068268349628     0.355218866590    12.000000000000
         O           -2.368340698943    -0.352685349628    -0.383814133410    15.994914619570
         H           -4.187137698943    -0.945199349628     0.296937866590     1.007825032230
         H           -4.086807698943     0.783068650372    -0.063526133410     1.007825032230
         H           -3.328287698943     0.134974650372     1.405483866590     1.007825032230
         H           -1.757887698943     0.406535650372    -0.304073133410     1.007825032230

  Running in c1 symmetry.

  Rotational constants: A =      0.23935  B =      0.03121  C =      0.02852 [cm^-1]
  Rotational constants: A =   7175.64484  B =    935.73509  C =    855.01874 [MHz]
  Nuclear repulsion =   40.242128901531331

  Charge       = 0
  Multiplicity = 1
  Electrons    = 18
  Nalpha       = 9
  Nbeta        = 9

  ==> Algorithm <==

  SCF Algorithm Type is DF.
  DIIS enabled.
  MOM disabled.
  Fractional occupation disabled.
  Guess Type is SAD.
  Energy threshold   = 1.00e-08
  Density threshold  = 1.00e-08
  Integral threshold = 0.00e+00

  ==> Primary Basis <==

  Basis Set: JUN-CC-PVTZ
    Blend: JUN-CC-PVTZ
    Number of shells: 157
    Number of basis function: 427
    Number of Cartesian functions: 480
    Spherical Harmonics?: true
    Max angular momentum: 3

   => Loading Basis Set <=

    Name: (JUN-CC-PVTZ AUX)
    Role: JKFIT
    Keyword: DF_BASIS_SCF
    atoms 1-2, 7, 13       entry C          line   152 file /home/r08543048/miniconda3/share/psi4/basis/jun-cc-pvtz-jkfit.gbs 
    atoms 3, 14            entry O          line   272 file /home/r08543048/miniconda3/share/psi4/basis/jun-cc-pvtz-jkfit.gbs 
    atoms 4                entry N          line   212 file /home/r08543048/miniconda3/share/psi4/basis/jun-cc-pvtz-jkfit.gbs 
    atoms 5-6, 8-12, 15-18 entry H          line    70 file /home/r08543048/miniconda3/share/psi4/basis/jun-cc-pvtz-jkfit.gbs 

  ==> Pre-Iterations <==

   -------------------------------------------------------
    Irrep   Nso     Nmo     Nalpha   Nbeta   Ndocc  Nsocc
   -------------------------------------------------------
     A        427     427       0       0       0       0
   -------------------------------------------------------
    Total     427     427       9       9       9       0
   -------------------------------------------------------

  ==> Integral Setup <==

  ==> DiskDFJK: Density-Fitted J/K Matrices <==

    J tasked:                  Yes
    K tasked:                  Yes
    wK tasked:                  No
    OpenMP threads:              1
    Integrals threads:           1
    Memory [MiB]:            15735
    Algorithm:                Core
    Integral Cache:           LOAD
    Schwarz Cutoff:          1E-12
    Fitting Condition:       1E-10

   => Auxiliary Basis Set <=

  Basis Set: (JUN-CC-PVTZ AUX)
    Blend: JUN-CC-PVTZ-JKFIT
    Number of shells: 313
    Number of basis function: 995
    Number of Cartesian functions: 1197
    Spherical Harmonics?: true
    Max angular momentum: 4

  Minimum eigenvalue in the overlap matrix is 3.7604760451E-05.
  Using Symmetric Orthogonalization.

  SCF Guess: Superposition of Atomic Densities via on-the-fly atomic UHF.

  ==> Iterations <==

                           Total Energy        Delta E     RMS |[F,P]|

   @DF-RHF iter SAD:  -114.39040134142046   -1.14390e+02   0.00000e+00 
   @DF-RHF iter   1:  -115.00864438811064   -6.18243e-01   9.71227e-04 DIIS
   @DF-RHF iter   2:  -115.06918784010892   -6.05435e-02   5.82908e-04 DIIS
   @DF-RHF iter   3:  -115.08981874204073   -2.06309e-02   8.56311e-05 DIIS
   @DF-RHF iter   4:  -115.09077721460467   -9.58473e-04   2.62795e-05 DIIS
   @DF-RHF iter   5:  -115.09086651124353   -8.92966e-05   6.15599e-06 DIIS
   @DF-RHF iter   6:  -115.09087261616932   -6.10493e-06   1.46230e-06 DIIS
   @DF-RHF iter   7:  -115.09087315450661   -5.38337e-07   3.53820e-07 DIIS
   @DF-RHF iter   8:  -115.09087318900907   -3.45025e-08   7.42593e-08 DIIS
   @DF-RHF iter   9:  -115.09087319041028   -1.40120e-09   1.38734e-08 DIIS
   @DF-RHF iter  10:  -115.09087319045496   -4.46789e-11   3.43939e-09 DIIS
  Energy and wave function converged.


  ==> Post-Iterations <==

    Orbital Energies [Eh]
    ---------------------

    Doubly Occupied:                                                      

       1A    -20.560352     2A    -11.270802     3A     -1.353424  
       4A     -0.924728     5A     -0.687562     6A     -0.620274  
       7A     -0.593948     8A     -0.502661     9A     -0.450790  

    Virtual:                                                              

      10A      0.030584    11A      0.046502    12A      0.058466  
      13A      0.063038    14A      0.068153    15A      0.074193  
      16A      0.081173    17A      0.094499    18A      0.100794  
      19A      0.103977    20A      0.109601    21A      0.116180  
      22A      0.138928    23A      0.145116    24A      0.148709  
      25A      0.154345    26A      0.161946    27A      0.168112  
      28A      0.178007    29A      0.196660    30A      0.200154  
      31A      0.204755    32A      0.219751    33A      0.224913  
      34A      0.233376    35A      0.243764    36A      0.250661  
      37A      0.265107    38A      0.275565    39A      0.283410  
      40A      0.294825    41A      0.302709    42A      0.306110  
      43A      0.310683    44A      0.322644    45A      0.328352  
      46A      0.329156    47A      0.346607    48A      0.360574  
      49A      0.366473    50A      0.372323    51A      0.387016  
      52A      0.392478    53A      0.395544    54A      0.404148  
      55A      0.409595    56A      0.416682    57A      0.426903  
      58A      0.430576    59A      0.436657    60A      0.445188  
      61A      0.455890    62A      0.464144    63A      0.477752  
      64A      0.494164    65A      0.503782    66A      0.510710  
      67A      0.513527    68A      0.529938    69A      0.550371  
      70A      0.551590    71A      0.553444    72A      0.570169  
      73A      0.609384    74A      0.619903    75A      0.630006  
      76A      0.632924    77A      0.640377    78A      0.643211  
      79A      0.660013    80A      0.661849    81A      0.681199  
      82A      0.690143    83A      0.700766    84A      0.715576  
      85A      0.721141    86A      0.737719    87A      0.746096  
      88A      0.769757    89A      0.783345    90A      0.788081  
      91A      0.793596    92A      0.813397    93A      0.823393  
      94A      0.829850    95A      0.834348    96A      0.851962  
      97A      0.860691    98A      0.872222    99A      0.883609  
     100A      0.905109   101A      0.931676   102A      0.938819  
     103A      0.959106   104A      0.959684   105A      0.983714  
     106A      1.019339   107A      1.024127   108A      1.044666  
     109A      1.053996   110A      1.062843   111A      1.070020  
     112A      1.090520   113A      1.109929   114A      1.135692  
     115A      1.144615   116A      1.155213   117A      1.163345  
     118A      1.185209   119A      1.200716   120A      1.212594  
     121A      1.218010   122A      1.225534   123A      1.230170  
     124A      1.250226   125A      1.260933   126A      1.273487  
     127A      1.289992   128A      1.296006   129A      1.306818  
     130A      1.315285   131A      1.321797   132A      1.334737  
     133A      1.346743   134A      1.362560   135A      1.374775  
     136A      1.401174   137A      1.405356   138A      1.413155  
     139A      1.431737   140A      1.434194   141A      1.464999  
     142A      1.481448   143A      1.487040   144A      1.500682  
     145A      1.506147   146A      1.526721   147A      1.533212  
     148A      1.536221   149A      1.552065   150A      1.575464  
     151A      1.587800   152A      1.599534   153A      1.609659  
     154A      1.613326   155A      1.621887   156A      1.629264  
     157A      1.648645   158A      1.691306   159A      1.709044  
     160A      1.728165   161A      1.751497   162A      1.753981  
     163A      1.771561   164A      1.780398   165A      1.789306  
     166A      1.827321   167A      1.860965   168A      1.879227  
     169A      1.881648   170A      1.894913   171A      1.934788  
     172A      1.949956   173A      1.965193   174A      2.003658  
     175A      2.018591   176A      2.044840   177A      2.080884  
     178A      2.102762   179A      2.148760   180A      2.153845  
     181A      2.171824   182A      2.227296   183A      2.271043  
     184A      2.288217   185A      2.321257   186A      2.362979  
     187A      2.369103   188A      2.396565   189A      2.411414  
     190A      2.443192   191A      2.450099   192A      2.463015  
     193A      2.512080   194A      2.557665   195A      2.568602  
     196A      2.594853   197A      2.610658   198A      2.627087  
     199A      2.697327   200A      2.720770   201A      2.754363  
     202A      2.780895   203A      2.808220   204A      2.827462  
     205A      2.856493   206A      2.875555   207A      2.899060  
     208A      3.000398   209A      3.036231   210A      3.055405  
     211A      3.114761   212A      3.131811   213A      3.176021  
     214A      3.196287   215A      3.233539   216A      3.287546  
     217A      3.314512   218A      3.336515   219A      3.361898  
     220A      3.372178   221A      3.435524   222A      3.459967  
     223A      3.505666   224A      3.520101   225A      3.539971  
     226A      3.558275   227A      3.582948   228A      3.597352  
     229A      3.606144   230A      3.620616   231A      3.669984  
     232A      3.680635   233A      3.684752   234A      3.714485  
     235A      3.727124   236A      3.751203   237A      3.766667  
     238A      3.786300   239A      3.796167   240A      3.796828  
     241A      3.814103   242A      3.828119   243A      3.846649  
     244A      3.858780   245A      3.868255   246A      3.890705  
     247A      3.891374   248A      3.908264   249A      3.924262  
     250A      3.949139   251A      3.995957   252A      4.030671  
     253A      4.045777   254A      4.076997   255A      4.090614  
     256A      4.119291   257A      4.135720   258A      4.148062  
     259A      4.157922   260A      4.162280   261A      4.220797  
     262A      4.231347   263A      4.243966   264A      4.255540  
     265A      4.269501   266A      4.279234   267A      4.303614  
     268A      4.332710   269A      4.341022   270A      4.359267  
     271A      4.372483   272A      4.390894   273A      4.430722  
     274A      4.461043   275A      4.472876   276A      4.481892  
     277A      4.485825   278A      4.501242   279A      4.508839  
     280A      4.531559   281A      4.562570   282A      4.573146  
     283A      4.599095   284A      4.603019   285A      4.622528  
     286A      4.630716   287A      4.658026   288A      4.670050  
     289A      4.683634   290A      4.698900   291A      4.718147  
     292A      4.731811   293A      4.749071   294A      4.767920  
     295A      4.793982   296A      4.797101   297A      4.817333  
     298A      4.829225   299A      4.840703   300A      4.842527  
     301A      4.866798   302A      4.871716   303A      4.877752  
     304A      4.897274   305A      4.916868   306A      4.923607  
     307A      4.926826   308A      4.947069   309A      4.971096  
     310A      4.980535   311A      4.992114   312A      5.000189  
     313A      5.007731   314A      5.021398   315A      5.030549  
     316A      5.034395   317A      5.045510   318A      5.104473  
     319A      5.109372   320A      5.140862   321A      5.148804  
     322A      5.172585   323A      5.198032   324A      5.200436  
     325A      5.241060   326A      5.286433   327A      5.304043  
     328A      5.312494   329A      5.350949   330A      5.379888  
     331A      5.389936   332A      5.419318   333A      5.457025  
     334A      5.469475   335A      5.493362   336A      5.542970  
     337A      5.589426   338A      5.690094   339A      5.696948  
     340A      5.699536   341A      5.729497   342A      5.738687  
     343A      5.777529   344A      5.837686   345A      5.887605  
     346A      5.896981   347A      5.928759   348A      6.005683  
     349A      6.055527   350A      6.084797   351A      6.087426  
     352A      6.176550   353A      6.207623   354A      6.214296  
     355A      6.283512   356A      6.355628   357A      6.360993  
     358A      6.368212   359A      6.370306   360A      6.379512  
     361A      6.422463   362A      6.432425   363A      6.444970  
     364A      6.460232   365A      6.491030   366A      6.520572  
     367A      6.570633   368A      6.594500   369A      6.666415  
     370A      6.740393   371A      6.790024   372A      6.880648  
     373A      6.893254   374A      6.921891   375A      6.927238  
     376A      7.039777   377A      7.087762   378A      7.211796  
     379A      7.283481   380A      7.318427   381A      7.347199  
     382A      7.373256   383A      7.440181   384A      7.448981  
     385A      7.513516   386A      7.528266   387A      7.535687  
     388A      7.645640   389A      7.660112   390A      7.691074  
     391A      7.739517   392A      7.797948   393A      7.820705  
     394A      7.828519   395A      7.864794   396A      7.982304  
     397A      8.001386   398A      8.094928   399A      8.129153  
     400A      8.233731   401A      8.296268   402A      8.538038  
     403A      8.884714   404A      9.102641   405A      9.118395  
     406A      9.231192   407A      9.461702   408A      9.653921  
     409A      9.795163   410A      9.887498   411A      9.978716  
     412A     10.006369   413A     10.192953   414A     10.616637  
     415A     10.923426   416A     11.472227   417A     11.581980  
     418A     11.705529   419A     11.984472   420A     13.405580  
     421A     13.827570   422A     14.287929   423A     42.646854  
     424A     45.176271   425A     45.814615   426A     55.716127  
     427A     61.178946  

    Final Occupation by Irrep:
              A 
    DOCC [     9 ]

  @DF-RHF Final Energy:  -115.09087319045496

   => Energetics <=

    Nuclear Repulsion Energy =             40.2421289015313306
    One-Electron Energy =                -236.7369199899739556
    Two-Electron Energy =                  81.4039178979876823
    Total Energy =                       -115.0908731904549569

Computation Completed


Properties will be evaluated at   0.000000,   0.000000,   0.000000 [a0]

Properties computed using the SCF density matrix

  Nuclear Dipole Moment: [e a0]
     X:  -101.2741      Y:    -5.3890      Z:     0.7476

  Electronic Dipole Moment: [e a0]
     X:   101.1440      Y:     5.9824      Z:    -0.3773

  Dipole Moment: [e a0]
     X:    -0.1300      Y:     0.5934      Z:     0.3703     Total:     0.7115

  Dipole Moment: [D]
     X:    -0.3305      Y:     1.5084      Z:     0.9412     Total:     1.8084


*** tstop() called on r282 at Fri Sep 10 11:14:36 2021
Module time:
	user time   =      14.54 seconds =       0.24 minutes
	system time =       0.30 seconds =       0.01 minutes
	total time  =         15 seconds =       0.25 minutes
Total time:
	user time   =      72.98 seconds =       1.22 minutes
	system time =       1.67 seconds =       0.03 minutes
	total time  =         76 seconds =       1.27 minutes
  Constructing Basis Sets for SAPT...

   => Loading Basis Set <=

    Name: (JUN-CC-PVTZ AUX)
    Role: RIFIT
    Keyword: DF_BASIS_SAPT
    atoms 1-2, 7, 13       entry C          line   132 file /home/r08543048/miniconda3/share/psi4/basis/jun-cc-pvtz-ri.gbs 
    atoms 3, 14            entry O          line   244 file /home/r08543048/miniconda3/share/psi4/basis/jun-cc-pvtz-ri.gbs 
    atoms 4                entry N          line   188 file /home/r08543048/miniconda3/share/psi4/basis/jun-cc-pvtz-ri.gbs 
    atoms 5-6, 8-12, 15-18 entry H          line    30 file /home/r08543048/miniconda3/share/psi4/basis/jun-cc-pvtz-ri.gbs 


  //>>>>>>>>>>>>>>>>>>>>>>>>>>>>>>>>>>>//
  //               SAPT0               //
  //<<<<<<<<<<<<<<<<<<<<<<<<<<<<<<<<<<<//


*** tstart() called on r282
*** at Fri Sep 10 11:14:36 2021

        SAPT0  
    Ed Hohenstein
     6 June 2009

      Orbital Information
  --------------------------
    NSO        =       427
    NMO        =       427
    NRI        =      1009
    NOCC A     =        20
    NOCC B     =         9
    FOCC A     =         0
    FOCC B     =         0
    NVIR A     =       407
    NVIR B     =       418

    Elst10,r            =    -0.031207552049 [Eh]
    Exch10              =     0.029802072377 [Eh]
    Exch10 (S^2)        =     0.029509091796 [Eh]

    Iter     Energy [mEh]          dE [mEh]         Residual      Time [s]
       1      -6.65965456       6.659654556      16.192956338             1
       2      -8.33510083       1.675446271       8.900652722             1
       3      -8.68197912       0.346878290       2.567234523             2
       4      -8.60777726      -0.074201853       0.949846890             3
       5      -8.60026835      -0.007508914       0.296823528             3
       6      -8.60798903       0.007720678       0.096946557             4
       7      -8.60833054       0.000341513       0.025837432             5
       8      -8.60775324      -0.000577298       0.007046545             5
       9      -8.60775497       0.000001728       0.002234471             6
      10      -8.60778973       0.000034754       0.000494127             7
      11      -8.60778899      -0.000000739       0.000144309             7
      12      -8.60778727      -0.000001716       0.000063803             8
      13      -8.60778768       0.000000413       0.000023377             9
      14      -8.60778785       0.000000168       0.000006165             9
      15      -8.60778781      -0.000000042       0.000001848            10
      16      -8.60778780      -0.000000013       0.000000468            11

    CHF Iterations converged


    Iter     Energy [mEh]          dE [mEh]         Residual      Time [s]
       1      -5.45975740       5.459757405      13.137815951             1
       2      -6.48180899       1.022051584       5.965371022             1
       3      -6.65949177       0.177682782       1.791108140             2
       4      -6.64359032      -0.015901448       0.566925984             2
       5      -6.62619157      -0.017398753       0.101891828             3
       6      -6.62907196       0.002880391       0.037351751             3
       7      -6.62936359       0.000291630       0.010579283             4
       8      -6.62908776      -0.000275831       0.002416821             4
       9      -6.62912234       0.000034582       0.000640140             5
      10      -6.62912188      -0.000000459       0.000138596             6
      11      -6.62912037      -0.000001512       0.000030133             6
      12      -6.62912066       0.000000290       0.000005568             7
      13      -6.62912065      -0.000000014       0.000001207             7
      14      -6.62912064      -0.000000007       0.000000246             8

    CHF Iterations converged

    Ind20,r (A<-B)      =    -0.008607787797 [Eh]
    Ind20,r (B<-A)      =    -0.006629120641 [Eh]
    Ind20,r             =    -0.015236908438 [Eh]
    Exch-Ind20,r (A<-B) =     0.005272951294 [Eh]
    Exch-Ind20,r (B<-A) =     0.003827588191 [Eh]
    Exch-Ind20,r        =     0.009100539485 [Eh]
    Disp20              =    -0.011226693150 [Eh]
    Disp20 (SS)         =    -0.005613346575 [Eh]
    Disp20 (OS)         =    -0.005613346575 [Eh]
    Exch-Disp20         =     0.002218822720 [Eh]
    Exch-Disp20 (SS)    =     0.001385492095 [Eh]
    Exch-Disp20 (OS)    =     0.000833330624 [Eh]

    SAPT Results 
  --------------------------------------------------------------------------------------------------------
    Electrostatics                -31.20755205 [mEh]     -19.58303456 [kcal/mol]     -81.93541662 [kJ/mol]
      Elst10,r                    -31.20755205 [mEh]     -19.58303456 [kcal/mol]     -81.93541662 [kJ/mol]

    Exchange                       29.80207238 [mEh]      18.70108275 [kcal/mol]      78.24533025 [kJ/mol]
      Exch10                       29.80207238 [mEh]      18.70108275 [kcal/mol]      78.24533025 [kJ/mol]
      Exch10(S^2)                  29.50909180 [mEh]      18.51723466 [kcal/mol]      77.47610984 [kJ/mol]

    Induction                     -10.29626640 [mEh]      -6.46100471 [kcal/mol]     -27.03284371 [kJ/mol]
      Ind20,r                     -15.23690844 [mEh]      -9.56130440 [kcal/mol]     -40.00449759 [kJ/mol]
      Exch-Ind20,r                  9.10053948 [mEh]       5.71067474 [kcal/mol]      23.89346312 [kJ/mol]
      delta HF,r (2)               -4.15989745 [mEh]      -2.61037506 [kcal/mol]     -10.92180924 [kJ/mol]

    Dispersion                     -9.00787043 [mEh]      -5.65252403 [kcal/mol]     -23.65016056 [kJ/mol]
      Disp20                      -11.22669315 [mEh]      -7.04485631 [kcal/mol]     -29.47567880 [kJ/mol]
      Exch-Disp20                   2.21882272 [mEh]       1.39233228 [kcal/mol]       5.82551825 [kJ/mol]
      Disp20 (SS)                  -5.61334657 [mEh]      -3.52242816 [kcal/mol]     -14.73783940 [kJ/mol]
      Disp20 (OS)                  -5.61334657 [mEh]      -3.52242816 [kcal/mol]     -14.73783940 [kJ/mol]
      Exch-Disp20 (SS)              1.38549210 [mEh]       0.86940942 [kcal/mol]       3.63760900 [kJ/mol]
      Exch-Disp20 (OS)              0.83333062 [mEh]       0.52292286 [kcal/mol]       2.18790925 [kJ/mol]

  Total HF                        -11.70174607 [mEh]      -7.34295652 [kcal/mol]     -30.72293008 [kJ/mol]
  Total SAPT0                     -20.70961650 [mEh]     -12.99548055 [kcal/mol]     -54.37309064 [kJ/mol]

  Special recipe for scaled SAPT0 (see Manual):
    Electrostatics sSAPT0         -31.20755205 [mEh]     -19.58303456 [kcal/mol]     -81.93541662 [kJ/mol]
    Exchange sSAPT0                29.80207238 [mEh]      18.70108275 [kcal/mol]      78.24533025 [kJ/mol]
    Induction sSAPT0              -10.02250253 [mEh]      -6.28921529 [kcal/mol]     -26.31407676 [kJ/mol]
    Dispersion sSAPT0              -8.94112345 [mEh]      -5.61063967 [kcal/mol]     -23.47491639 [kJ/mol]
  Total sSAPT0                    -20.36910565 [mEh]     -12.78180677 [kcal/mol]     -53.47907952 [kJ/mol]
  --------------------------------------------------------------------------------------------------------

*** tstop() called on r282 at Fri Sep 10 11:15:46 2021
Module time:
	user time   =      58.79 seconds =       0.98 minutes
	system time =      11.20 seconds =       0.19 minutes
	total time  =         70 seconds =       1.17 minutes
Total time:
	user time   =     131.89 seconds =       2.20 minutes
	system time =      12.87 seconds =       0.21 minutes
	total time  =        146 seconds =       2.43 minutes

    Psi4 stopped on: Friday, 10 September 2021 11:15AM
    Psi4 wall time for execution: 0:02:26.11

*** Psi4 exiting successfully. Buy a developer a beer!
