
    -----------------------------------------------------------------------
          Psi4: An Open-Source Ab Initio Electronic Structure Package
                               Psi4 1.3.2 release

                         Git: Rev {HEAD} ecbda83 


    R. M. Parrish, L. A. Burns, D. G. A. Smith, A. C. Simmonett,
    A. E. DePrince III, E. G. Hohenstein, U. Bozkaya, A. Yu. Sokolov,
    R. Di Remigio, R. M. Richard, J. F. Gonthier, A. M. James,
    H. R. McAlexander, A. Kumar, M. Saitow, X. Wang, B. P. Pritchard,
    P. Verma, H. F. Schaefer III, K. Patkowski, R. A. King, E. F. Valeev,
    F. A. Evangelista, J. M. Turney, T. D. Crawford, and C. D. Sherrill,
    J. Chem. Theory Comput. 13(7) pp 3185--3197 (2017).
    (doi: 10.1021/acs.jctc.7b00174)


                         Additional Contributions by
    P. Kraus, H. Kruse, M. H. Lechner, M. C. Schieber, R. A. Shaw,
    A. Alenaizan, R. Galvelis, Z. L. Glick, S. Lehtola, and J. P. Misiewicz

    -----------------------------------------------------------------------


    Psi4 started on: Friday, 10 September 2021 11:22AM

    Process ID: 56545
    Host:       r282
    PSIDATADIR: /home/r08543048/miniconda3/share/psi4
    Memory:     500.0 MiB
    Threads:    1
    
  ==> Input File <==

--------------------------------------------------------------------------
# Any line starting with the # character is a comment line
#! Sample  computation

memory 22 gb

molecule Dimer {
0 1
 C 3.707361   -0.572285    0.019936
 C 2.260290   -0.155227   -0.034295
 O 1.354655   -0.978982    0.121398
 N 2.016090    1.154868   -0.260634
 H 4.397776    0.257589   -0.110544
 H 3.891775   -1.050460    0.979374
 H 3.880426   -1.312887   -0.758029 
 H 1.051265    1.464945   -0.309669
 H 2.767477    1.803166   -0.400406   
 
 
 
 
 
 
 
 
  

 
 
     

    
    
 --
0 1
 C -2.811897   -0.490465    0.540559 
 C -1.862172    0.681154    0.725366
 H -2.244512   -1.419036    0.644722
 H -3.541017   -0.473049    1.354958
 O -0.823923    0.694861   -0.250733
 H -2.401586    1.621858    0.603961
 H -1.435714    0.665209    1.733457
 H -0.259148   -0.090128   -0.100252 
 C -3.520908   -0.455501   -0.806586 
 H -2.796655   -0.458375   -1.618952
 H -4.179553   -1.314247   -0.930331 
 H -4.125055    0.448260   -0.899050 



 
 







units angstrom

no_reorient
symmetry c1
}

set globals{
  basis jun-cc-pvtz
}

energy('sapt0')


--------------------------------------------------------------------------

  Memory set to  20.489 GiB by Python driver.

  //>>>>>>>>>>>>>>>>>>>>>>>>>>>>>>>>>>>//
  //              Dimer HF             //
  //<<<<<<<<<<<<<<<<<<<<<<<<<<<<<<<<<<<//


*** tstart() called on r282
*** at Fri Sep 10 11:22:37 2021

   => Loading Basis Set <=

    Name: JUN-CC-PVTZ
    Role: ORBITAL
    Keyword: BASIS
    atoms 1-2, 10-11, 18           entry C          line   217 file /home/r08543048/miniconda3/share/psi4/basis/jun-cc-pvtz.gbs 
    atoms 3, 14                    entry O          line   305 file /home/r08543048/miniconda3/share/psi4/basis/jun-cc-pvtz.gbs 
    atoms 4                        entry N          line   261 file /home/r08543048/miniconda3/share/psi4/basis/jun-cc-pvtz.gbs 
    atoms 5-9, 12-13, 15-17, 19-21 entry H          line    36 file /home/r08543048/miniconda3/share/psi4/basis/jun-cc-pvtz.gbs 


         ---------------------------------------------------------
                                   SCF
               by Justin Turney, Rob Parrish, Andy Simmonett
                          and Daniel G. A. Smith
                              RHF Reference
                        1 Threads,  20980 MiB Core
         ---------------------------------------------------------

  ==> Geometry <==

    Molecular point group: c1
    Full point group: C1

    Geometry (in Angstrom), charge = 0, multiplicity = 1:

       Center              X                  Y                   Z               Mass       
    ------------   -----------------  -----------------  -----------------  -----------------
         C            3.665722218609    -0.571137053178     0.021513734220    12.000000000000
         C            2.218651218609    -0.154079053178    -0.032717265780    12.000000000000
         O            1.313016218609    -0.977834053178     0.122975734220    15.994914619570
         N            1.974451218609     1.156015946822    -0.259056265780    14.003074004430
         H            4.356137218609     0.258736946822    -0.108966265780     1.007825032230
         H            3.850136218609    -1.049312053178     0.980951734220     1.007825032230
         H            3.838787218609    -1.311739053178    -0.756451265780     1.007825032230
         H            1.009626218609     1.466092946822    -0.308091265780     1.007825032230
         H            2.725838218609     1.804313946822    -0.398828265780     1.007825032230
         C           -2.853535781391    -0.489317053178     0.542136734220    12.000000000000
         C           -1.903810781391     0.682301946822     0.726943734220    12.000000000000
         H           -2.286150781391    -1.417888053178     0.646299734220     1.007825032230
         H           -3.582655781391    -0.471901053178     1.356535734220     1.007825032230
         O           -0.865561781391     0.696008946822    -0.249155265780    15.994914619570
         H           -2.443224781391     1.623005946822     0.605538734220     1.007825032230
         H           -1.477352781391     0.666356946822     1.735034734220     1.007825032230
         H           -0.300786781391    -0.088980053178    -0.098674265780     1.007825032230
         C           -3.562546781391    -0.454353053178    -0.805008265780    12.000000000000
         H           -2.838293781391    -0.457227053178    -1.617374265780     1.007825032230
         H           -4.221191781391    -1.313099053178    -0.928753265780     1.007825032230
         H           -4.166693781391     0.449407946822    -0.897472265780     1.007825032230

  Running in c1 symmetry.

  Rotational constants: A =      0.16147  B =      0.02197  C =      0.02086 [cm^-1]
  Rotational constants: A =   4840.66565  B =    658.77785  C =    625.25663 [MHz]
  Nuclear repulsion =  384.566226976255791

  Charge       = 0
  Multiplicity = 1
  Electrons    = 66
  Nalpha       = 33
  Nbeta        = 33

  ==> Algorithm <==

  SCF Algorithm Type is DF.
  DIIS enabled.
  MOM disabled.
  Fractional occupation disabled.
  Guess Type is SAD.
  Energy threshold   = 1.00e-08
  Density threshold  = 1.00e-08
  Integral threshold = 0.00e+00

  ==> Primary Basis <==

  Basis Set: JUN-CC-PVTZ
    Blend: JUN-CC-PVTZ
    Number of shells: 182
    Number of basis function: 494
    Number of Cartesian functions: 555
    Spherical Harmonics?: true
    Max angular momentum: 3

   => Loading Basis Set <=

    Name: (JUN-CC-PVTZ AUX)
    Role: JKFIT
    Keyword: DF_BASIS_SCF
    atoms 1-2, 10-11, 18           entry C          line   152 file /home/r08543048/miniconda3/share/psi4/basis/jun-cc-pvtz-jkfit.gbs 
    atoms 3, 14                    entry O          line   272 file /home/r08543048/miniconda3/share/psi4/basis/jun-cc-pvtz-jkfit.gbs 
    atoms 4                        entry N          line   212 file /home/r08543048/miniconda3/share/psi4/basis/jun-cc-pvtz-jkfit.gbs 
    atoms 5-9, 12-13, 15-17, 19-21 entry H          line    70 file /home/r08543048/miniconda3/share/psi4/basis/jun-cc-pvtz-jkfit.gbs 

  ==> Pre-Iterations <==

   -------------------------------------------------------
    Irrep   Nso     Nmo     Nalpha   Nbeta   Ndocc  Nsocc
   -------------------------------------------------------
     A        494     494       0       0       0       0
   -------------------------------------------------------
    Total     494     494      33      33      33       0
   -------------------------------------------------------

  ==> Integral Setup <==

  ==> DiskDFJK: Density-Fitted J/K Matrices <==

    J tasked:                  Yes
    K tasked:                  Yes
    wK tasked:                  No
    OpenMP threads:              1
    Integrals threads:           1
    Memory [MiB]:            15735
    Algorithm:                Core
    Integral Cache:           SAVE
    Schwarz Cutoff:          1E-12
    Fitting Condition:       1E-10

   => Auxiliary Basis Set <=

  Basis Set: (JUN-CC-PVTZ AUX)
    Blend: JUN-CC-PVTZ-JKFIT
    Number of shells: 362
    Number of basis function: 1150
    Number of Cartesian functions: 1383
    Spherical Harmonics?: true
    Max angular momentum: 4

  Minimum eigenvalue in the overlap matrix is 5.0453048585E-05.
  Using Symmetric Orthogonalization.

  SCF Guess: Superposition of Atomic Densities via on-the-fly atomic UHF.

  ==> Iterations <==

                           Total Energy        Delta E     RMS |[F,P]|

   @DF-RHF iter SAD:  -399.94496912215004   -3.99945e+02   0.00000e+00 
   @DF-RHF iter   1:  -400.93314997654818   -9.88181e-01   1.62552e-03 DIIS
   @DF-RHF iter   2:  -401.19151623232977   -2.58366e-01   8.60794e-04 DIIS
   @DF-RHF iter   3:  -401.25851819284600   -6.70020e-02   1.63925e-04 DIIS
   @DF-RHF iter   4:  -401.26264513334399   -4.12694e-03   7.30070e-05 DIIS
   @DF-RHF iter   5:  -401.26336403785865   -7.18905e-04   1.46797e-05 DIIS
   @DF-RHF iter   6:  -401.26341029762523   -4.62598e-05   6.05619e-06 DIIS
   @DF-RHF iter   7:  -401.26341759787630   -7.30025e-06   2.06360e-06 DIIS
   @DF-RHF iter   8:  -401.26341896189882   -1.36402e-06   8.68100e-07 DIIS
   @DF-RHF iter   9:  -401.26341922008930   -2.58190e-07   2.98214e-07 DIIS
   @DF-RHF iter  10:  -401.26341925228888   -3.21996e-08   9.09230e-08 DIIS
   @DF-RHF iter  11:  -401.26341925491067   -2.62179e-09   2.80915e-08 DIIS
   @DF-RHF iter  12:  -401.26341925509809   -1.87413e-10   1.04618e-08 DIIS
   @DF-RHF iter  13:  -401.26341925512298   -2.48974e-11   2.22018e-09 DIIS
  Energy and wave function converged.


  ==> Post-Iterations <==

    Orbital Energies [Eh]
    ---------------------

    Doubly Occupied:                                                      

       1A    -20.533002     2A    -20.524480     3A    -15.585879  
       4A    -11.362556     5A    -11.258760     6A    -11.242432  
       7A    -11.208060     8A    -11.197941     9A     -1.384785  
      10A     -1.336641    11A     -1.216801    12A     -1.038445  
      13A     -1.011797    14A     -0.907536    15A     -0.805209  
      16A     -0.797018    17A     -0.731911    18A     -0.686994  
      19A     -0.652782    20A     -0.625529    21A     -0.621651  
      22A     -0.609570    23A     -0.590540    24A     -0.568947  
      25A     -0.551435    26A     -0.529898    27A     -0.518174  
      28A     -0.508628    29A     -0.472303    30A     -0.460552  
      31A     -0.433442    32A     -0.420643    33A     -0.419710  

    Virtual:                                                              

      34A      0.040303    35A      0.056929    36A      0.062508  
      37A      0.064281    38A      0.073398    39A      0.076929  
      40A      0.081436    41A      0.096150    42A      0.101490  
      43A      0.104000    44A      0.109989    45A      0.113015  
      46A      0.125680    47A      0.136136    48A      0.138335  
      49A      0.142100    50A      0.145866    51A      0.162479  
      52A      0.168787    53A      0.178791    54A      0.188492  
      55A      0.193008    56A      0.201127    57A      0.209182  
      58A      0.230411    59A      0.237012    60A      0.243841  
      61A      0.251651    62A      0.262008    63A      0.268042  
      64A      0.273551    65A      0.278828    66A      0.285430  
      67A      0.291832    68A      0.292708    69A      0.297933  
      70A      0.307640    71A      0.310694    72A      0.316553  
      73A      0.320511    74A      0.327756    75A      0.333771  
      76A      0.340847    77A      0.342089    78A      0.350143  
      79A      0.356949    80A      0.358991    81A      0.367904  
      82A      0.378939    83A      0.384923    84A      0.396021  
      85A      0.407469    86A      0.409485    87A      0.414586  
      88A      0.423297    89A      0.427754    90A      0.432231  
      91A      0.455950    92A      0.460607    93A      0.463783  
      94A      0.486525    95A      0.488474    96A      0.499149  
      97A      0.504554    98A      0.518045    99A      0.527111  
     100A      0.532807   101A      0.534682   102A      0.547044  
     103A      0.550238   104A      0.557822   105A      0.565047  
     106A      0.573810   107A      0.579344   108A      0.596017  
     109A      0.604705   110A      0.612107   111A      0.614342  
     112A      0.631037   113A      0.647045   114A      0.653245  
     115A      0.662573   116A      0.670750   117A      0.674409  
     118A      0.679956   119A      0.695898   120A      0.704047  
     121A      0.705956   122A      0.727920   123A      0.733973  
     124A      0.747044   125A      0.754845   126A      0.755850  
     127A      0.782273   128A      0.786372   129A      0.789727  
     130A      0.797640   131A      0.808909   132A      0.813758  
     133A      0.821093   134A      0.822564   135A      0.841693  
     136A      0.850048   137A      0.858043   138A      0.862491  
     139A      0.872774   140A      0.879264   141A      0.896346  
     142A      0.904673   143A      0.908991   144A      0.917932  
     145A      0.927993   146A      0.931940   147A      0.950633  
     148A      0.959704   149A      0.979972   150A      0.988434  
     151A      1.003721   152A      1.007989   153A      1.036166  
     154A      1.041386   155A      1.054332   156A      1.067179  
     157A      1.084250   158A      1.091917   159A      1.101388  
     160A      1.129072   161A      1.135405   162A      1.151385  
     163A      1.161647   164A      1.173405   165A      1.191034  
     166A      1.205951   167A      1.211790   168A      1.232982  
     169A      1.236978   170A      1.259138   171A      1.265048  
     172A      1.288632   173A      1.300880   174A      1.309929  
     175A      1.328794   176A      1.333025   177A      1.335387  
     178A      1.356326   179A      1.363737   180A      1.372733  
     181A      1.380566   182A      1.382738   183A      1.386118  
     184A      1.394835   185A      1.405352   186A      1.412223  
     187A      1.417544   188A      1.422381   189A      1.435782  
     190A      1.441021   191A      1.468901   192A      1.472502  
     193A      1.481330   194A      1.502338   195A      1.513745  
     196A      1.525420   197A      1.533919   198A      1.550528  
     199A      1.560224   200A      1.564968   201A      1.570876  
     202A      1.582641   203A      1.600030   204A      1.610001  
     205A      1.619622   206A      1.623023   207A      1.642827  
     208A      1.653851   209A      1.667992   210A      1.677478  
     211A      1.687015   212A      1.698402   213A      1.708441  
     214A      1.738652   215A      1.748150   216A      1.760250  
     217A      1.763874   218A      1.804783   219A      1.825178  
     220A      1.835734   221A      1.860506   222A      1.872194  
     223A      1.880678   224A      1.889708   225A      1.901290  
     226A      1.915196   227A      1.938960   228A      1.944946  
     229A      1.975963   230A      2.008099   231A      2.015751  
     232A      2.061835   233A      2.091057   234A      2.139878  
     235A      2.215728   236A      2.275035   237A      2.284754  
     238A      2.317318   239A      2.374640   240A      2.384251  
     241A      2.420900   242A      2.454923   243A      2.472413  
     244A      2.526035   245A      2.578958   246A      2.611701  
     247A      2.644772   248A      2.693760   249A      2.732475  
     250A      2.775010   251A      2.792353   252A      2.811170  
     253A      2.827416   254A      2.831958   255A      2.857277  
     256A      2.875666   257A      2.889838   258A      2.898002  
     259A      2.944342   260A      2.957860   261A      2.968088  
     262A      2.979103   263A      2.989024   264A      3.013978  
     265A      3.050395   266A      3.055546   267A      3.077229  
     268A      3.085565   269A      3.120693   270A      3.138393  
     271A      3.144617   272A      3.150252   273A      3.173458  
     274A      3.189616   275A      3.195877   276A      3.216082  
     277A      3.251480   278A      3.253787   279A      3.273710  
     280A      3.295590   281A      3.303055   282A      3.312124  
     283A      3.322886   284A      3.342072   285A      3.351940  
     286A      3.391429   287A      3.393928   288A      3.400747  
     289A      3.405076   290A      3.425238   291A      3.429669  
     292A      3.447758   293A      3.451410   294A      3.468117  
     295A      3.487976   296A      3.488851   297A      3.496173  
     298A      3.513488   299A      3.521506   300A      3.526492  
     301A      3.531433   302A      3.540998   303A      3.548004  
     304A      3.554224   305A      3.558783   306A      3.589112  
     307A      3.601903   308A      3.607816   309A      3.610821  
     310A      3.616461   311A      3.641129   312A      3.646016  
     313A      3.648241   314A      3.665507   315A      3.679026  
     316A      3.692901   317A      3.719914   318A      3.731573  
     319A      3.747564   320A      3.762612   321A      3.770638  
     322A      3.783618   323A      3.797954   324A      3.802715  
     325A      3.830462   326A      3.851397   327A      3.866688  
     328A      3.881249   329A      3.889656   330A      3.905453  
     331A      3.921674   332A      3.939032   333A      3.953734  
     334A      3.970964   335A      3.979052   336A      3.987211  
     337A      3.995215   338A      4.016919   339A      4.041908  
     340A      4.053326   341A      4.094757   342A      4.101311  
     343A      4.116393   344A      4.130834   345A      4.141007  
     346A      4.162329   347A      4.169192   348A      4.194326  
     349A      4.209932   350A      4.226242   351A      4.243853  
     352A      4.253056   353A      4.275853   354A      4.290886  
     355A      4.296419   356A      4.300435   357A      4.303279  
     358A      4.325525   359A      4.350160   360A      4.358179  
     361A      4.370760   362A      4.382209   363A      4.389263  
     364A      4.401002   365A      4.410973   366A      4.413122  
     367A      4.427893   368A      4.447630   369A      4.456211  
     370A      4.460718   371A      4.473545   372A      4.481981  
     373A      4.507847   374A      4.515814   375A      4.518195  
     376A      4.525586   377A      4.543081   378A      4.556718  
     379A      4.575458   380A      4.586451   381A      4.598783  
     382A      4.619595   383A      4.626076   384A      4.639054  
     385A      4.650982   386A      4.675970   387A      4.690097  
     388A      4.715219   389A      4.748616   390A      4.755358  
     391A      4.766225   392A      4.775816   393A      4.800945  
     394A      4.813121   395A      4.829856   396A      4.844245  
     397A      4.870848   398A      4.881482   399A      4.920356  
     400A      4.937863   401A      4.996732   402A      5.011549  
     403A      5.081438   404A      5.087539   405A      5.126558  
     406A      5.138951   407A      5.164189   408A      5.177741  
     409A      5.186828   410A      5.206283   411A      5.215214  
     412A      5.231835   413A      5.246573   414A      5.259648  
     415A      5.288655   416A      5.303022   417A      5.312913  
     418A      5.342658   419A      5.351053   420A      5.404918  
     421A      5.415784   422A      5.428304   423A      5.442066  
     424A      5.487387   425A      5.493607   426A      5.512734  
     427A      5.519006   428A      5.543591   429A      5.581028  
     430A      5.599999   431A      5.611800   432A      5.649224  
     433A      5.672601   434A      5.679029   435A      5.688022  
     436A      5.731039   437A      5.760837   438A      5.765324  
     439A      5.779131   440A      5.792470   441A      5.809283  
     442A      5.838894   443A      5.849836   444A      5.896214  
     445A      5.904453   446A      5.934884   447A      5.940727  
     448A      5.978796   449A      5.984361   450A      5.998160  
     451A      6.063484   452A      6.080709   453A      6.122857  
     454A      6.150685   455A      6.195516   456A      6.227565  
     457A      6.292277   458A      6.329037   459A      6.424122  
     460A      6.436263   461A      6.461872   462A      6.497520  
     463A      6.524454   464A      6.560889   465A      6.586591  
     466A      6.628171   467A      6.698625   468A      6.765535  
     469A      6.798538   470A      6.972850   471A      7.036033  
     472A      7.187802   473A      7.206730   474A      7.272716  
     475A      7.365475   476A      7.390672   477A      7.407014  
     478A      7.461236   479A      7.469035   480A      7.534001  
     481A      7.660412   482A      7.711535   483A      7.774600  
     484A      7.808574   485A      7.954593   486A      8.227608  
     487A     12.184364   488A     13.705787   489A     13.837068  
     490A     13.872948   491A     14.124381   492A     14.554715  
     493A     14.812764   494A     15.768454  

    Final Occupation by Irrep:
              A 
    DOCC [    33 ]

  @DF-RHF Final Energy:  -401.26341925512298

   => Energetics <=

    Nuclear Repulsion Energy =            384.5662269762557912
    One-Electron Energy =               -1310.0311820037736652
    Two-Electron Energy =                 524.2015357723948910
    Total Energy =                       -401.2634192551229262

Computation Completed


Properties will be evaluated at   0.000000,   0.000000,   0.000000 [a0]

Properties computed using the SCF density matrix

  Nuclear Dipole Moment: [e a0]
     X:    -5.1933      Y:     0.1432      Z:     0.1968

  Electronic Dipole Moment: [e a0]
     X:     6.3320      Y:     0.5967      Z:     0.0181

  Dipole Moment: [e a0]
     X:     1.1387      Y:     0.7399      Z:     0.2149     Total:     1.3749

  Dipole Moment: [D]
     X:     2.8944      Y:     1.8807      Z:     0.5461     Total:     3.4947


*** tstop() called on r282 at Fri Sep 10 11:23:45 2021
Module time:
	user time   =      66.51 seconds =       1.11 minutes
	system time =       1.34 seconds =       0.02 minutes
	total time  =         68 seconds =       1.13 minutes
Total time:
	user time   =      66.51 seconds =       1.11 minutes
	system time =       1.34 seconds =       0.02 minutes
	total time  =         68 seconds =       1.13 minutes

  //>>>>>>>>>>>>>>>>>>>>>>>>>>>>>>>>>>>//
  //            Monomer A HF           //
  //<<<<<<<<<<<<<<<<<<<<<<<<<<<<<<<<<<<//


*** tstart() called on r282
*** at Fri Sep 10 11:23:45 2021

   => Loading Basis Set <=

    Name: JUN-CC-PVTZ
    Role: ORBITAL
    Keyword: BASIS
    atoms 1-2, 10-11, 18           entry C          line   217 file /home/r08543048/miniconda3/share/psi4/basis/jun-cc-pvtz.gbs 
    atoms 3, 14                    entry O          line   305 file /home/r08543048/miniconda3/share/psi4/basis/jun-cc-pvtz.gbs 
    atoms 4                        entry N          line   261 file /home/r08543048/miniconda3/share/psi4/basis/jun-cc-pvtz.gbs 
    atoms 5-9, 12-13, 15-17, 19-21 entry H          line    36 file /home/r08543048/miniconda3/share/psi4/basis/jun-cc-pvtz.gbs 


         ---------------------------------------------------------
                                   SCF
               by Justin Turney, Rob Parrish, Andy Simmonett
                          and Daniel G. A. Smith
                              RHF Reference
                        1 Threads,  20980 MiB Core
         ---------------------------------------------------------

  ==> Geometry <==

    Molecular point group: c1
    Full point group: C1

    Geometry (in Angstrom), charge = 0, multiplicity = 1:

       Center              X                  Y                   Z               Mass       
    ------------   -----------------  -----------------  -----------------  -----------------
         C            3.665722218609    -0.571137053178     0.021513734220    12.000000000000
         C            2.218651218609    -0.154079053178    -0.032717265780    12.000000000000
         O            1.313016218609    -0.977834053178     0.122975734220    15.994914619570
         N            1.974451218609     1.156015946822    -0.259056265780    14.003074004430
         H            4.356137218609     0.258736946822    -0.108966265780     1.007825032230
         H            3.850136218609    -1.049312053178     0.980951734220     1.007825032230
         H            3.838787218609    -1.311739053178    -0.756451265780     1.007825032230
         H            1.009626218609     1.466092946822    -0.308091265780     1.007825032230
         H            2.725838218609     1.804313946822    -0.398828265780     1.007825032230
      Gh(C)          -2.853535781391    -0.489317053178     0.542136734220    12.000000000000
      Gh(C)          -1.903810781391     0.682301946822     0.726943734220    12.000000000000
      Gh(H)          -2.286150781391    -1.417888053178     0.646299734220     1.007825032230
      Gh(H)          -3.582655781391    -0.471901053178     1.356535734220     1.007825032230
      Gh(O)          -0.865561781391     0.696008946822    -0.249155265780    15.994914619570
      Gh(H)          -2.443224781391     1.623005946822     0.605538734220     1.007825032230
      Gh(H)          -1.477352781391     0.666356946822     1.735034734220     1.007825032230
      Gh(H)          -0.300786781391    -0.088980053178    -0.098674265780     1.007825032230
      Gh(C)          -3.562546781391    -0.454353053178    -0.805008265780    12.000000000000
      Gh(H)          -2.838293781391    -0.457227053178    -1.617374265780     1.007825032230
      Gh(H)          -4.221191781391    -1.313099053178    -0.928753265780     1.007825032230
      Gh(H)          -4.166693781391     0.449407946822    -0.897472265780     1.007825032230

  Running in c1 symmetry.

  Rotational constants: A =      0.16147  B =      0.02197  C =      0.02086 [cm^-1]
  Rotational constants: A =   4840.66565  B =    658.77785  C =    625.25663 [MHz]
  Nuclear repulsion =  121.774332858409124

  Charge       = 0
  Multiplicity = 1
  Electrons    = 32
  Nalpha       = 16
  Nbeta        = 16

  ==> Algorithm <==

  SCF Algorithm Type is DF.
  DIIS enabled.
  MOM disabled.
  Fractional occupation disabled.
  Guess Type is SAD.
  Energy threshold   = 1.00e-08
  Density threshold  = 1.00e-08
  Integral threshold = 0.00e+00

  ==> Primary Basis <==

  Basis Set: JUN-CC-PVTZ
    Blend: JUN-CC-PVTZ
    Number of shells: 182
    Number of basis function: 494
    Number of Cartesian functions: 555
    Spherical Harmonics?: true
    Max angular momentum: 3

   => Loading Basis Set <=

    Name: (JUN-CC-PVTZ AUX)
    Role: JKFIT
    Keyword: DF_BASIS_SCF
    atoms 1-2, 10-11, 18           entry C          line   152 file /home/r08543048/miniconda3/share/psi4/basis/jun-cc-pvtz-jkfit.gbs 
    atoms 3, 14                    entry O          line   272 file /home/r08543048/miniconda3/share/psi4/basis/jun-cc-pvtz-jkfit.gbs 
    atoms 4                        entry N          line   212 file /home/r08543048/miniconda3/share/psi4/basis/jun-cc-pvtz-jkfit.gbs 
    atoms 5-9, 12-13, 15-17, 19-21 entry H          line    70 file /home/r08543048/miniconda3/share/psi4/basis/jun-cc-pvtz-jkfit.gbs 

  ==> Pre-Iterations <==

   -------------------------------------------------------
    Irrep   Nso     Nmo     Nalpha   Nbeta   Ndocc  Nsocc
   -------------------------------------------------------
     A        494     494       0       0       0       0
   -------------------------------------------------------
    Total     494     494      16      16      16       0
   -------------------------------------------------------

  ==> Integral Setup <==

  ==> DiskDFJK: Density-Fitted J/K Matrices <==

    J tasked:                  Yes
    K tasked:                  Yes
    wK tasked:                  No
    OpenMP threads:              1
    Integrals threads:           1
    Memory [MiB]:            15735
    Algorithm:                Core
    Integral Cache:           LOAD
    Schwarz Cutoff:          1E-12
    Fitting Condition:       1E-10

   => Auxiliary Basis Set <=

  Basis Set: (JUN-CC-PVTZ AUX)
    Blend: JUN-CC-PVTZ-JKFIT
    Number of shells: 362
    Number of basis function: 1150
    Number of Cartesian functions: 1383
    Spherical Harmonics?: true
    Max angular momentum: 4

  Minimum eigenvalue in the overlap matrix is 5.0453048585E-05.
  Using Symmetric Orthogonalization.

  SCF Guess: Superposition of Atomic Densities via on-the-fly atomic UHF.

  ==> Iterations <==

                           Total Energy        Delta E     RMS |[F,P]|

   @DF-RHF iter SAD:  -207.24297959094542   -2.07243e+02   0.00000e+00 
   @DF-RHF iter   1:  -207.88628328682600   -6.43304e-01   1.22612e-03 DIIS
   @DF-RHF iter   2:  -208.01407367592486   -1.27790e-01   7.39962e-04 DIIS
   @DF-RHF iter   3:  -208.05804258112454   -4.39689e-02   1.37446e-04 DIIS
   @DF-RHF iter   4:  -208.06054384821294   -2.50127e-03   5.51525e-05 DIIS
   @DF-RHF iter   5:  -208.06104705421532   -5.03206e-04   1.02593e-05 DIIS
   @DF-RHF iter   6:  -208.06107773756497   -3.06833e-05   4.83622e-06 DIIS
   @DF-RHF iter   7:  -208.06108331243257   -5.57487e-06   1.82682e-06 DIIS
   @DF-RHF iter   8:  -208.06108452093409   -1.20850e-06   6.07270e-07 DIIS
   @DF-RHF iter   9:  -208.06108467700284   -1.56069e-07   1.58745e-07 DIIS
   @DF-RHF iter  10:  -208.06108468515473   -8.15189e-09   5.21845e-08 DIIS
   @DF-RHF iter  11:  -208.06108468592203   -7.67301e-10   1.34468e-08 DIIS
   @DF-RHF iter  12:  -208.06108468597543   -5.34044e-11   2.76486e-09 DIIS
  Energy and wave function converged.


  ==> Post-Iterations <==

    Orbital Energies [Eh]
    ---------------------

    Doubly Occupied:                                                      

       1A    -20.512384     2A    -15.592114     3A    -11.353722  
       4A    -11.238379     5A     -1.369052     6A     -1.216805  
       7A     -1.007326     8A     -0.802957     9A     -0.732024  
      10A     -0.663195    11A     -0.615782    12A     -0.580298  
      13A     -0.564795    14A     -0.524008    15A     -0.422313  
      16A     -0.413798  

    Virtual:                                                              

      17A      0.035281    18A      0.041366    19A      0.052604  
      20A      0.059216    21A      0.070020    22A      0.075998  
      23A      0.078875    24A      0.092240    25A      0.093435  
      26A      0.099403    27A      0.109848    28A      0.113336  
      29A      0.117846    30A      0.125641    31A      0.134922  
      32A      0.138074    33A      0.144923    34A      0.150816  
      35A      0.156383    36A      0.164026    37A      0.173312  
      38A      0.178029    39A      0.181223    40A      0.192270  
      41A      0.210449    42A      0.215458    43A      0.224350  
      44A      0.242010    45A      0.244600    46A      0.254791  
      47A      0.268772    48A      0.271490    49A      0.275314  
      50A      0.283067    51A      0.290013    52A      0.290906  
      53A      0.297704    54A      0.310370    55A      0.314972  
      56A      0.316389    57A      0.324160    58A      0.328838  
      59A      0.332315    60A      0.346215    61A      0.353874  
      62A      0.362352    63A      0.366749    64A      0.371069  
      65A      0.389658    66A      0.394457    67A      0.400588  
      68A      0.406151    69A      0.412576    70A      0.421034  
      71A      0.428286    72A      0.434370    73A      0.437676  
      74A      0.448900    75A      0.466723    76A      0.477305  
      77A      0.480147    78A      0.488320    79A      0.495650  
      80A      0.504676    81A      0.508626    82A      0.511706  
      83A      0.525838    84A      0.531359    85A      0.549853  
      86A      0.554046    87A      0.560153    88A      0.577086  
      89A      0.583263    90A      0.588056    91A      0.603033  
      92A      0.603649    93A      0.613042    94A      0.615950  
      95A      0.622445    96A      0.629042    97A      0.638455  
      98A      0.644467    99A      0.653216   100A      0.666759  
     101A      0.675154   102A      0.679517   103A      0.697238  
     104A      0.700267   105A      0.705790   106A      0.714375  
     107A      0.721701   108A      0.732364   109A      0.759753  
     110A      0.770455   111A      0.789636   112A      0.799358  
     113A      0.810197   114A      0.815176   115A      0.827579  
     116A      0.850266   117A      0.857541   118A      0.869738  
     119A      0.886618   120A      0.892988   121A      0.908715  
     122A      0.930907   123A      0.949362   124A      0.962999  
     125A      0.972860   126A      0.983040   127A      0.993553  
     128A      1.012597   129A      1.027089   130A      1.038195  
     131A      1.059310   132A      1.067608   133A      1.078057  
     134A      1.085486   135A      1.092642   136A      1.106564  
     137A      1.108351   138A      1.132061   139A      1.140726  
     140A      1.149878   141A      1.155901   142A      1.160968  
     143A      1.170320   144A      1.192424   145A      1.205284  
     146A      1.211936   147A      1.218551   148A      1.230851  
     149A      1.239464   150A      1.253840   151A      1.266804  
     152A      1.274514   153A      1.290281   154A      1.296551  
     155A      1.308806   156A      1.316651   157A      1.329014  
     158A      1.335758   159A      1.344317   160A      1.352449  
     161A      1.355459   162A      1.358833   163A      1.369009  
     164A      1.382238   165A      1.395459   166A      1.399080  
     167A      1.416411   168A      1.424459   169A      1.429276  
     170A      1.440180   171A      1.447093   172A      1.455534  
     173A      1.473548   174A      1.487080   175A      1.498423  
     176A      1.512497   177A      1.521470   178A      1.536174  
     179A      1.548967   180A      1.560441   181A      1.569505  
     182A      1.580172   183A      1.585639   184A      1.596135  
     185A      1.602405   186A      1.611723   187A      1.625876  
     188A      1.649643   189A      1.659090   190A      1.668086  
     191A      1.670152   192A      1.697675   193A      1.716078  
     194A      1.735316   195A      1.745796   196A      1.756650  
     197A      1.782366   198A      1.803715   199A      1.831462  
     200A      1.839428   201A      1.854187   202A      1.870915  
     203A      1.882302   204A      1.893037   205A      1.901494  
     206A      1.926740   207A      1.938031   208A      1.959771  
     209A      1.964746   210A      2.022660   211A      2.035070  
     212A      2.040772   213A      2.099194   214A      2.131812  
     215A      2.142087   216A      2.160649   217A      2.208668  
     218A      2.216189   219A      2.237269   220A      2.262298  
     221A      2.282157   222A      2.330462   223A      2.361988  
     224A      2.391287   225A      2.398443   226A      2.407463  
     227A      2.426106   228A      2.456891   229A      2.475980  
     230A      2.496300   231A      2.556184   232A      2.599306  
     233A      2.605912   234A      2.614126   235A      2.636666  
     236A      2.709302   237A      2.729417   238A      2.751777  
     239A      2.806033   240A      2.829109   241A      2.860778  
     242A      2.896837   243A      2.943605   244A      2.968844  
     245A      2.983393   246A      3.012236   247A      3.040729  
     248A      3.085897   249A      3.089007   250A      3.126659  
     251A      3.132256   252A      3.175606   253A      3.203732  
     254A      3.218494   255A      3.255533   256A      3.265382  
     257A      3.306438   258A      3.354913   259A      3.379739  
     260A      3.412038   261A      3.427304   262A      3.434044  
     263A      3.452962   264A      3.485131   265A      3.496680  
     266A      3.518318   267A      3.529443   268A      3.535413  
     269A      3.546881   270A      3.555022   271A      3.578140  
     272A      3.583693   273A      3.608183   274A      3.613740  
     275A      3.617821   276A      3.626619   277A      3.633156  
     278A      3.647835   279A      3.652053   280A      3.661019  
     281A      3.685834   282A      3.710635   283A      3.729464  
     284A      3.756004   285A      3.763624   286A      3.774088  
     287A      3.778463   288A      3.800410   289A      3.823641  
     290A      3.829420   291A      3.836993   292A      3.858087  
     293A      3.860652   294A      3.869177   295A      3.881995  
     296A      3.923069   297A      3.932643   298A      3.947133  
     299A      3.954980   300A      3.973600   301A      3.981373  
     302A      3.991781   303A      4.005938   304A      4.046214  
     305A      4.061690   306A      4.078556   307A      4.113522  
     308A      4.126857   309A      4.138936   310A      4.148777  
     311A      4.164578   312A      4.181882   313A      4.190110  
     314A      4.214441   315A      4.225556   316A      4.242855  
     317A      4.265785   318A      4.290536   319A      4.295804  
     320A      4.302505   321A      4.312643   322A      4.339852  
     323A      4.364410   324A      4.385974   325A      4.392865  
     326A      4.396434   327A      4.408502   328A      4.423042  
     329A      4.438046   330A      4.442789   331A      4.452248  
     332A      4.457084   333A      4.490562   334A      4.500797  
     335A      4.511665   336A      4.514043   337A      4.519441  
     338A      4.539242   339A      4.553125   340A      4.559704  
     341A      4.579344   342A      4.596765   343A      4.610830  
     344A      4.625186   345A      4.636775   346A      4.653183  
     347A      4.665413   348A      4.688597   349A      4.705763  
     350A      4.726610   351A      4.729226   352A      4.753955  
     353A      4.757366   354A      4.766382   355A      4.777717  
     356A      4.781908   357A      4.798679   358A      4.801474  
     359A      4.807094   360A      4.819960   361A      4.833646  
     362A      4.842801   363A      4.871309   364A      4.889866  
     365A      4.905554   366A      4.911535   367A      4.924017  
     368A      4.925449   369A      4.937559   370A      4.951856  
     371A      4.958388   372A      4.965846   373A      4.978335  
     374A      4.998644   375A      5.014039   376A      5.037587  
     377A      5.066132   378A      5.083686   379A      5.094254  
     380A      5.114500   381A      5.129627   382A      5.148883  
     383A      5.152537   384A      5.166428   385A      5.172135  
     386A      5.200491   387A      5.203499   388A      5.216357  
     389A      5.237474   390A      5.274098   391A      5.297012  
     392A      5.326601   393A      5.330926   394A      5.376541  
     395A      5.377614   396A      5.421744   397A      5.433574  
     398A      5.443018   399A      5.490573   400A      5.518583  
     401A      5.541927   402A      5.571850   403A      5.591515  
     404A      5.609162   405A      5.630798   406A      5.656978  
     407A      5.683845   408A      5.684954   409A      5.717070  
     410A      5.727696   411A      5.744798   412A      5.785463  
     413A      5.817140   414A      5.830952   415A      5.879370  
     416A      5.899094   417A      5.915368   418A      5.959876  
     419A      5.974839   420A      5.986508   421A      6.019682  
     422A      6.072496   423A      6.079938   424A      6.097767  
     425A      6.174551   426A      6.188498   427A      6.216219  
     428A      6.239002   429A      6.253617   430A      6.309143  
     431A      6.320742   432A      6.344717   433A      6.362655  
     434A      6.414569   435A      6.429009   436A      6.446139  
     437A      6.455453   438A      6.478890   439A      6.609910  
     440A      6.614219   441A      6.698935   442A      6.706379  
     443A      6.778132   444A      6.804490   445A      6.888451  
     446A      6.958626   447A      7.015868   448A      7.146837  
     449A      7.220753   450A      7.276415   451A      7.316105  
     452A      7.362105   453A      7.413715   454A      7.472353  
     455A      7.479033   456A      7.504045   457A      7.510424  
     458A      7.522579   459A      7.572811   460A      7.622964  
     461A      7.698838   462A      7.730873   463A      7.757835  
     464A      7.802938   465A      7.819369   466A      7.833936  
     467A      7.870675   468A      7.944748   469A      8.032805  
     470A      8.061068   471A      8.222231   472A      8.366797  
     473A      8.481411   474A      8.592457   475A      9.543216  
     476A      9.638814   477A      9.791908   478A      9.886766  
     479A      9.918441   480A     10.123187   481A     10.172572  
     482A     10.424662   483A     11.198980   484A     11.756817  
     485A     12.199457   486A     12.797031   487A     13.628753  
     488A     13.901692   489A     14.816262   490A     15.766352  
     491A     43.952558   492A     44.978521   493A     45.559631  
     494A     61.449764  

    Final Occupation by Irrep:
              A 
    DOCC [    16 ]

  @DF-RHF Final Energy:  -208.06108468597543

   => Energetics <=

    Nuclear Repulsion Energy =            121.7743328584091245
    One-Electron Energy =                -524.4529308358160051
    Two-Electron Energy =                 194.6175132914314361
    Total Energy =                       -208.0610846859754304

Computation Completed


Properties will be evaluated at   0.000000,   0.000000,   0.000000 [a0]

Properties computed using the SCF density matrix

  Nuclear Dipole Moment: [e a0]
     X:   142.5081      Y:    -5.5062      Z:    -2.8123

  Electronic Dipole Moment: [e a0]
     X:  -141.4271      Y:     6.8252      Z:     2.5518

  Dipole Moment: [e a0]
     X:     1.0811      Y:     1.3190      Z:    -0.2605     Total:     1.7252

  Dipole Moment: [D]
     X:     2.7478      Y:     3.3526      Z:    -0.6621     Total:     4.3850


*** tstop() called on r282 at Fri Sep 10 11:24:22 2021
Module time:
	user time   =      36.60 seconds =       0.61 minutes
	system time =       0.64 seconds =       0.01 minutes
	total time  =         37 seconds =       0.62 minutes
Total time:
	user time   =     103.11 seconds =       1.72 minutes
	system time =       1.98 seconds =       0.03 minutes
	total time  =        105 seconds =       1.75 minutes

  //>>>>>>>>>>>>>>>>>>>>>>>>>>>>>>>>>>>//
  //            Monomer B HF           //
  //<<<<<<<<<<<<<<<<<<<<<<<<<<<<<<<<<<<//


*** tstart() called on r282
*** at Fri Sep 10 11:24:22 2021

   => Loading Basis Set <=

    Name: JUN-CC-PVTZ
    Role: ORBITAL
    Keyword: BASIS
    atoms 1-2, 10-11, 18           entry C          line   217 file /home/r08543048/miniconda3/share/psi4/basis/jun-cc-pvtz.gbs 
    atoms 3, 14                    entry O          line   305 file /home/r08543048/miniconda3/share/psi4/basis/jun-cc-pvtz.gbs 
    atoms 4                        entry N          line   261 file /home/r08543048/miniconda3/share/psi4/basis/jun-cc-pvtz.gbs 
    atoms 5-9, 12-13, 15-17, 19-21 entry H          line    36 file /home/r08543048/miniconda3/share/psi4/basis/jun-cc-pvtz.gbs 


         ---------------------------------------------------------
                                   SCF
               by Justin Turney, Rob Parrish, Andy Simmonett
                          and Daniel G. A. Smith
                              RHF Reference
                        1 Threads,  20980 MiB Core
         ---------------------------------------------------------

  ==> Geometry <==

    Molecular point group: c1
    Full point group: C1

    Geometry (in Angstrom), charge = 0, multiplicity = 1:

       Center              X                  Y                   Z               Mass       
    ------------   -----------------  -----------------  -----------------  -----------------
      Gh(C)           3.665722218609    -0.571137053178     0.021513734220    12.000000000000
      Gh(C)           2.218651218609    -0.154079053178    -0.032717265780    12.000000000000
      Gh(O)           1.313016218609    -0.977834053178     0.122975734220    15.994914619570
      Gh(N)           1.974451218609     1.156015946822    -0.259056265780    14.003074004430
      Gh(H)           4.356137218609     0.258736946822    -0.108966265780     1.007825032230
      Gh(H)           3.850136218609    -1.049312053178     0.980951734220     1.007825032230
      Gh(H)           3.838787218609    -1.311739053178    -0.756451265780     1.007825032230
      Gh(H)           1.009626218609     1.466092946822    -0.308091265780     1.007825032230
      Gh(H)           2.725838218609     1.804313946822    -0.398828265780     1.007825032230
         C           -2.853535781391    -0.489317053178     0.542136734220    12.000000000000
         C           -1.903810781391     0.682301946822     0.726943734220    12.000000000000
         H           -2.286150781391    -1.417888053178     0.646299734220     1.007825032230
         H           -3.582655781391    -0.471901053178     1.356535734220     1.007825032230
         O           -0.865561781391     0.696008946822    -0.249155265780    15.994914619570
         H           -2.443224781391     1.623005946822     0.605538734220     1.007825032230
         H           -1.477352781391     0.666356946822     1.735034734220     1.007825032230
         H           -0.300786781391    -0.088980053178    -0.098674265780     1.007825032230
         C           -3.562546781391    -0.454353053178    -0.805008265780    12.000000000000
         H           -2.838293781391    -0.457227053178    -1.617374265780     1.007825032230
         H           -4.221191781391    -1.313099053178    -0.928753265780     1.007825032230
         H           -4.166693781391     0.449407946822    -0.897472265780     1.007825032230

  Running in c1 symmetry.

  Rotational constants: A =      0.16147  B =      0.02197  C =      0.02086 [cm^-1]
  Rotational constants: A =   4840.66565  B =    658.77785  C =    625.25663 [MHz]
  Nuclear repulsion =  132.785153673724864

  Charge       = 0
  Multiplicity = 1
  Electrons    = 34
  Nalpha       = 17
  Nbeta        = 17

  ==> Algorithm <==

  SCF Algorithm Type is DF.
  DIIS enabled.
  MOM disabled.
  Fractional occupation disabled.
  Guess Type is SAD.
  Energy threshold   = 1.00e-08
  Density threshold  = 1.00e-08
  Integral threshold = 0.00e+00

  ==> Primary Basis <==

  Basis Set: JUN-CC-PVTZ
    Blend: JUN-CC-PVTZ
    Number of shells: 182
    Number of basis function: 494
    Number of Cartesian functions: 555
    Spherical Harmonics?: true
    Max angular momentum: 3

   => Loading Basis Set <=

    Name: (JUN-CC-PVTZ AUX)
    Role: JKFIT
    Keyword: DF_BASIS_SCF
    atoms 1-2, 10-11, 18           entry C          line   152 file /home/r08543048/miniconda3/share/psi4/basis/jun-cc-pvtz-jkfit.gbs 
    atoms 3, 14                    entry O          line   272 file /home/r08543048/miniconda3/share/psi4/basis/jun-cc-pvtz-jkfit.gbs 
    atoms 4                        entry N          line   212 file /home/r08543048/miniconda3/share/psi4/basis/jun-cc-pvtz-jkfit.gbs 
    atoms 5-9, 12-13, 15-17, 19-21 entry H          line    70 file /home/r08543048/miniconda3/share/psi4/basis/jun-cc-pvtz-jkfit.gbs 

  ==> Pre-Iterations <==

   -------------------------------------------------------
    Irrep   Nso     Nmo     Nalpha   Nbeta   Ndocc  Nsocc
   -------------------------------------------------------
     A        494     494       0       0       0       0
   -------------------------------------------------------
    Total     494     494      17      17      17       0
   -------------------------------------------------------

  ==> Integral Setup <==

  ==> DiskDFJK: Density-Fitted J/K Matrices <==

    J tasked:                  Yes
    K tasked:                  Yes
    wK tasked:                  No
    OpenMP threads:              1
    Integrals threads:           1
    Memory [MiB]:            15735
    Algorithm:                Core
    Integral Cache:           LOAD
    Schwarz Cutoff:          1E-12
    Fitting Condition:       1E-10

   => Auxiliary Basis Set <=

  Basis Set: (JUN-CC-PVTZ AUX)
    Blend: JUN-CC-PVTZ-JKFIT
    Number of shells: 362
    Number of basis function: 1150
    Number of Cartesian functions: 1383
    Spherical Harmonics?: true
    Max angular momentum: 4

  Minimum eigenvalue in the overlap matrix is 5.0453048585E-05.
  Using Symmetric Orthogonalization.

  SCF Guess: Superposition of Atomic Densities via on-the-fly atomic UHF.

  ==> Iterations <==

                           Total Energy        Delta E     RMS |[F,P]|

   @DF-RHF iter SAD:  -192.49183212432979   -1.92492e+02   0.00000e+00 
   @DF-RHF iter   1:  -193.00943190630232   -5.17600e-01   1.15960e-03 DIIS
   @DF-RHF iter   2:  -193.15066637771866   -1.41234e-01   6.18547e-04 DIIS
   @DF-RHF iter   3:  -193.18855710069968   -3.78907e-02   1.04884e-04 DIIS
   @DF-RHF iter   4:  -193.19068285587440   -2.12576e-03   3.86784e-05 DIIS
   @DF-RHF iter   5:  -193.19088878620127   -2.05930e-04   8.66125e-06 DIIS
   @DF-RHF iter   6:  -193.19090361223058   -1.48260e-05   1.83167e-06 DIIS
   @DF-RHF iter   7:  -193.19090461645334   -1.00422e-06   4.73846e-07 DIIS
   @DF-RHF iter   8:  -193.19090467800694   -6.15536e-08   1.60267e-07 DIIS
   @DF-RHF iter   9:  -193.19090468511783   -7.11088e-09   4.25757e-08 DIIS
   @DF-RHF iter  10:  -193.19090468570778   -5.89949e-10   9.31347e-09 DIIS
  Energy and wave function converged.


  ==> Post-Iterations <==

    Orbital Energies [Eh]
    ---------------------

    Doubly Occupied:                                                      

       1A    -20.556260     2A    -11.271333     3A    -11.221389  
       4A    -11.208510     5A     -1.352748     6A     -1.050622  
       7A     -0.918872     8A     -0.809898     9A     -0.675143  
      10A     -0.638384    11A     -0.623402    12A     -0.564556  
      13A     -0.529638    14A     -0.521329    15A     -0.484687  
      16A     -0.470614    17A     -0.436340  

    Virtual:                                                              

      18A      0.031613    19A      0.049484    20A      0.055058  
      21A      0.057955    22A      0.064683    23A      0.071007  
      24A      0.073195    25A      0.091367    26A      0.096620  
      27A      0.099762    28A      0.101915    29A      0.103766  
      30A      0.125045    31A      0.128994    32A      0.133271  
      33A      0.134965    34A      0.140989    35A      0.151891  
      36A      0.163723    37A      0.170494    38A      0.181603  
      39A      0.185711    40A      0.193877    41A      0.199334  
      42A      0.203621    43A      0.210795    44A      0.218341  
      45A      0.226109    46A      0.239423    47A      0.253825  
      48A      0.266327    49A      0.275736    50A      0.282961  
      51A      0.289799    52A      0.292217    53A      0.299434  
      54A      0.308725    55A      0.312208    56A      0.322323  
      57A      0.330829    58A      0.335029    59A      0.339245  
      60A      0.346434    61A      0.349097    62A      0.353613  
      63A      0.363177    64A      0.367804    65A      0.377224  
      66A      0.381541    67A      0.385033    68A      0.389612  
      69A      0.395387    70A      0.405330    71A      0.416067  
      72A      0.419171    73A      0.428319    74A      0.430523  
      75A      0.438130    76A      0.442517    77A      0.460384  
      78A      0.463299    79A      0.476308    80A      0.484785  
      81A      0.501305    82A      0.503350    83A      0.509627  
      84A      0.511810    85A      0.526391    86A      0.534892  
      87A      0.542670    88A      0.551492    89A      0.558274  
      90A      0.566612    91A      0.577183    92A      0.588178  
      93A      0.593460    94A      0.596610    95A      0.625745  
      96A      0.637868    97A      0.652515    98A      0.663508  
      99A      0.668332   100A      0.676668   101A      0.689915  
     102A      0.699507   103A      0.709442   104A      0.725398  
     105A      0.731000   106A      0.745333   107A      0.752553  
     108A      0.755359   109A      0.770791   110A      0.777105  
     111A      0.791272   112A      0.797003   113A      0.801278  
     114A      0.802937   115A      0.809355   116A      0.829624  
     117A      0.840781   118A      0.843054   119A      0.854396  
     120A      0.860930   121A      0.869129   122A      0.880870  
     123A      0.881674   124A      0.889612   125A      0.894145  
     126A      0.915532   127A      0.927089   128A      0.947613  
     129A      0.965304   130A      0.974133   131A      0.981232  
     132A      1.007577   133A      1.015235   134A      1.021653  
     135A      1.026361   136A      1.039318   137A      1.054325  
     138A      1.066130   139A      1.081242   140A      1.085797  
     141A      1.105622   142A      1.122251   143A      1.139097  
     144A      1.157746   145A      1.165347   146A      1.187471  
     147A      1.196028   148A      1.203833   149A      1.214526  
     150A      1.225325   151A      1.230646   152A      1.249633  
     153A      1.261091   154A      1.289390   155A      1.296238  
     156A      1.305527   157A      1.320367   158A      1.325456  
     159A      1.335131   160A      1.350337   161A      1.372844  
     162A      1.375752   163A      1.384266   164A      1.396003  
     165A      1.396769   166A      1.416977   167A      1.420898  
     168A      1.436912   169A      1.454339   170A      1.458422  
     171A      1.466880   172A      1.480457   173A      1.495657  
     174A      1.500990   175A      1.512250   176A      1.524225  
     177A      1.530481   178A      1.545858   179A      1.547402  
     180A      1.555993   181A      1.562003   182A      1.576777  
     183A      1.590040   184A      1.603132   185A      1.608520  
     186A      1.628400   187A      1.640211   188A      1.647186  
     189A      1.651975   190A      1.670138   191A      1.686279  
     192A      1.701476   193A      1.715212   194A      1.718094  
     195A      1.733938   196A      1.750454   197A      1.757912  
     198A      1.785485   199A      1.806851   200A      1.810866  
     201A      1.817047   202A      1.846274   203A      1.860716  
     204A      1.865251   205A      1.877134   206A      1.885200  
     207A      1.910677   208A      1.929559   209A      1.952484  
     210A      1.971520   211A      1.976733   212A      1.987601  
     213A      1.995065   214A      2.047617   215A      2.061425  
     216A      2.107904   217A      2.119531   218A      2.171641  
     219A      2.226448   220A      2.278588   221A      2.329003  
     222A      2.351968   223A      2.366170   224A      2.389308  
     225A      2.400180   226A      2.431909   227A      2.478575  
     228A      2.548347   229A      2.574031   230A      2.578701  
     231A      2.604370   232A      2.648968   233A      2.658898  
     234A      2.698129   235A      2.751762   236A      2.787002  
     237A      2.810384   238A      2.819655   239A      2.832841  
     240A      2.843606   241A      2.869352   242A      2.873320  
     243A      2.887066   244A      2.891462   245A      2.932543  
     246A      2.942615   247A      2.976218   248A      2.984121  
     249A      3.018931   250A      3.030643   251A      3.049444  
     252A      3.060790   253A      3.116193   254A      3.134201  
     255A      3.139808   256A      3.165032   257A      3.187833  
     258A      3.213731   259A      3.251368   260A      3.283059  
     261A      3.299590   262A      3.306625   263A      3.335087  
     264A      3.357359   265A      3.382084   266A      3.386069  
     267A      3.414776   268A      3.434656   269A      3.457127  
     270A      3.469116   271A      3.481195   272A      3.491844  
     273A      3.505843   274A      3.507055   275A      3.528165  
     276A      3.538264   277A      3.567041   278A      3.574840  
     279A      3.583736   280A      3.585696   281A      3.602140  
     282A      3.609409   283A      3.620482   284A      3.634920  
     285A      3.664077   286A      3.665884   287A      3.675656  
     288A      3.703851   289A      3.707712   290A      3.737453  
     291A      3.752463   292A      3.784912   293A      3.799642  
     294A      3.819763   295A      3.839152   296A      3.850408  
     297A      3.857712   298A      3.867770   299A      3.879155  
     300A      3.882991   301A      3.907238   302A      3.921593  
     303A      3.927850   304A      3.946227   305A      3.964680  
     306A      3.981590   307A      3.997316   308A      4.004919  
     309A      4.044065   310A      4.061249   311A      4.082911  
     312A      4.099594   313A      4.110114   314A      4.130611  
     315A      4.149573   316A      4.168139   317A      4.197140  
     318A      4.225398   319A      4.230643   320A      4.248065  
     321A      4.271600   322A      4.273659   323A      4.282250  
     324A      4.289156   325A      4.296836   326A      4.308605  
     327A      4.319748   328A      4.329587   329A      4.340799  
     330A      4.346955   331A      4.372439   332A      4.388082  
     333A      4.409452   334A      4.417878   335A      4.434955  
     336A      4.455425   337A      4.462699   338A      4.490645  
     339A      4.500977   340A      4.501517   341A      4.510564  
     342A      4.514934   343A      4.529067   344A      4.547964  
     345A      4.555573   346A      4.578602   347A      4.601228  
     348A      4.612119   349A      4.623016   350A      4.626761  
     351A      4.643856   352A      4.671479   353A      4.688440  
     354A      4.697577   355A      4.706029   356A      4.722151  
     357A      4.733949   358A      4.741726   359A      4.752146  
     360A      4.765102   361A      4.767734   362A      4.779275  
     363A      4.800234   364A      4.814254   365A      4.822374  
     366A      4.825865   367A      4.834921   368A      4.855301  
     369A      4.866129   370A      4.880216   371A      4.883792  
     372A      4.900919   373A      4.920777   374A      4.932132  
     375A      4.968217   376A      4.989734   377A      4.995144  
     378A      5.006185   379A      5.041155   380A      5.047878  
     381A      5.072184   382A      5.088430   383A      5.117756  
     384A      5.127991   385A      5.134536   386A      5.141489  
     387A      5.169175   388A      5.185449   389A      5.192619  
     390A      5.199761   391A      5.235317   392A      5.249274  
     393A      5.280240   394A      5.288485   395A      5.303332  
     396A      5.336503   397A      5.393862   398A      5.415481  
     399A      5.418925   400A      5.476738   401A      5.505661  
     402A      5.516673   403A      5.583803   404A      5.601086  
     405A      5.653421   406A      5.657404   407A      5.681594  
     408A      5.705166   409A      5.750804   410A      5.763878  
     411A      5.783878   412A      5.825937   413A      5.841917  
     414A      5.855451   415A      5.897425   416A      5.919784  
     417A      5.932834   418A      5.956293   419A      5.970033  
     420A      5.975359   421A      6.024899   422A      6.068339  
     423A      6.105344   424A      6.127994   425A      6.150437  
     426A      6.206797   427A      6.264347   428A      6.293740  
     429A      6.306097   430A      6.348120   431A      6.429012  
     432A      6.443094   433A      6.449867   434A      6.486475  
     435A      6.503674   436A      6.512394   437A      6.544464  
     438A      6.564308   439A      6.574895   440A      6.593684  
     441A      6.670817   442A      6.716922   443A      6.741405  
     444A      6.857842   445A      6.928627   446A      6.958877  
     447A      7.041776   448A      7.091505   449A      7.214202  
     450A      7.322749   451A      7.339683   452A      7.349746  
     453A      7.389942   454A      7.442618   455A      7.452742  
     456A      7.526870   457A      7.537566   458A      7.597612  
     459A      7.707670   460A      7.744394   461A      7.800343  
     462A      7.847050   463A      7.849816   464A      7.872887  
     465A      7.918692   466A      8.052072   467A      8.168712  
     468A      8.259980   469A      8.488879   470A      8.814376  
     471A      9.076560   472A      9.097932   473A      9.122035  
     474A      9.425705   475A      9.797604   476A      9.847795  
     477A      9.879704   478A      9.992245   479A     10.183959  
     480A     10.551327   481A     10.898220   482A     11.433780  
     483A     11.563541   484A     11.651331   485A     11.963326  
     486A     13.706173   487A     13.787801   488A     13.854783  
     489A     14.101823   490A     14.544697   491A     42.712169  
     492A     46.233852   493A     55.421612   494A     60.650320  

    Final Occupation by Irrep:
              A 
    DOCC [    17 ]

  @DF-RHF Final Energy:  -193.19090468570778

   => Energetics <=

    Nuclear Repulsion Energy =            132.7851536737248637
    One-Electron Energy =                -525.2846572451458087
    Two-Electron Energy =                 199.3085988857131952
    Total Energy =                       -193.1909046857077783

Computation Completed


Properties will be evaluated at   0.000000,   0.000000,   0.000000 [a0]

Properties computed using the SCF density matrix

  Nuclear Dipole Moment: [e a0]
     X:  -147.7014      Y:     5.6494      Z:     3.0091

  Electronic Dipole Moment: [e a0]
     X:   147.5696      Y:    -6.1492      Z:    -2.5246

  Dipole Moment: [e a0]
     X:    -0.1318      Y:    -0.4997      Z:     0.4844     Total:     0.7084

  Dipole Moment: [D]
     X:    -0.3350      Y:    -1.2702      Z:     1.2313     Total:     1.8005


*** tstop() called on r282 at Fri Sep 10 11:24:55 2021
Module time:
	user time   =      31.85 seconds =       0.53 minutes
	system time =       0.61 seconds =       0.01 minutes
	total time  =         33 seconds =       0.55 minutes
Total time:
	user time   =     134.97 seconds =       2.25 minutes
	system time =       2.59 seconds =       0.04 minutes
	total time  =        138 seconds =       2.30 minutes
  Constructing Basis Sets for SAPT...

   => Loading Basis Set <=

    Name: (JUN-CC-PVTZ AUX)
    Role: RIFIT
    Keyword: DF_BASIS_SAPT
    atoms 1-2, 10-11, 18           entry C          line   132 file /home/r08543048/miniconda3/share/psi4/basis/jun-cc-pvtz-ri.gbs 
    atoms 3, 14                    entry O          line   244 file /home/r08543048/miniconda3/share/psi4/basis/jun-cc-pvtz-ri.gbs 
    atoms 4                        entry N          line   188 file /home/r08543048/miniconda3/share/psi4/basis/jun-cc-pvtz-ri.gbs 
    atoms 5-9, 12-13, 15-17, 19-21 entry H          line    30 file /home/r08543048/miniconda3/share/psi4/basis/jun-cc-pvtz-ri.gbs 


  //>>>>>>>>>>>>>>>>>>>>>>>>>>>>>>>>>>>//
  //               SAPT0               //
  //<<<<<<<<<<<<<<<<<<<<<<<<<<<<<<<<<<<//


*** tstart() called on r282
*** at Fri Sep 10 11:24:55 2021

        SAPT0  
    Ed Hohenstein
     6 June 2009

      Orbital Information
  --------------------------
    NSO        =       494
    NMO        =       494
    NRI        =      1166
    NOCC A     =        16
    NOCC B     =        17
    FOCC A     =         0
    FOCC B     =         0
    NVIR A     =       478
    NVIR B     =       477

    Elst10,r            =    -0.031183490798 [Eh]
    Exch10              =     0.030075500880 [Eh]
    Exch10 (S^2)        =     0.029772265203 [Eh]

    Iter     Energy [mEh]          dE [mEh]         Residual      Time [s]
       1      -6.46789322       6.467893216      15.932770736             1
       2      -8.11111186       1.643218639       8.714498351             2
       3      -8.43862070       0.327508846       2.525010960             3
       4      -8.36557087      -0.073049827       0.934646044             4
       5      -8.35908793      -0.006482939       0.292776984             5
       6      -8.36661344       0.007525509       0.090557919             6
       7      -8.36676901       0.000155561       0.024243447             6
       8      -8.36627480      -0.000494202       0.006905315             7
       9      -8.36626794      -0.000006859       0.002110915             8
      10      -8.36629970       0.000031758       0.000475250             9
      11      -8.36629967      -0.000000032       0.000135333            10
      12      -8.36629810      -0.000001567       0.000060916            11
      13      -8.36629823       0.000000126       0.000024750            12
      14      -8.36629852       0.000000290       0.000006324            13
      15      -8.36629846      -0.000000057       0.000001636            14
      16      -8.36629845      -0.000000008       0.000000406            15

    CHF Iterations converged


    Iter     Energy [mEh]          dE [mEh]         Residual      Time [s]
       1      -5.82274045       5.822740451      13.896653319             1
       2      -6.82934822       1.006607772       6.328450070             1
       3      -7.08099683       0.251648606       1.844598058             2
       4      -7.06956768      -0.011429148       0.633067621             3
       5      -7.04680442      -0.022763263       0.144302551             4
       6      -7.04829442       0.001489998       0.056028603             5
       7      -7.04959006       0.001295647       0.014601868             6
       8      -7.04933847      -0.000251592       0.004027349             7
       9      -7.04930714      -0.000031327       0.001055606             8
      10      -7.04932262       0.000015477       0.000345504             9
      11      -7.04932461       0.000001993       0.000086623            10
      12      -7.04932314      -0.000001471       0.000019135            11
      13      -7.04932327       0.000000131       0.000004463            12
      14      -7.04932330       0.000000030       0.000001306            13
      15      -7.04932330      -0.000000004       0.000000337            14

    CHF Iterations converged

    Ind20,r (A<-B)      =    -0.008366298455 [Eh]
    Ind20,r (B<-A)      =    -0.007049323300 [Eh]
    Ind20,r             =    -0.015415621755 [Eh]
    Exch-Ind20,r (A<-B) =     0.005090590244 [Eh]
    Exch-Ind20,r (B<-A) =     0.004169882092 [Eh]
    Exch-Ind20,r        =     0.009260472336 [Eh]
    Disp20              =    -0.011768087306 [Eh]
    Disp20 (SS)         =    -0.005884043653 [Eh]
    Disp20 (OS)         =    -0.005884043653 [Eh]
    Exch-Disp20         =     0.002284643223 [Eh]
    Exch-Disp20 (SS)    =     0.001426513330 [Eh]
    Exch-Disp20 (OS)    =     0.000858129894 [Eh]

    SAPT Results 
  --------------------------------------------------------------------------------------------------------
    Electrostatics                -31.18349080 [mEh]     -19.56793590 [kcal/mol]     -81.87224381 [kJ/mol]
      Elst10,r                    -31.18349080 [mEh]     -19.56793590 [kcal/mol]     -81.87224381 [kJ/mol]

    Exchange                       30.07550088 [mEh]      18.87266173 [kcal/mol]      78.96321668 [kJ/mol]
      Exch10                       30.07550088 [mEh]      18.87266173 [kcal/mol]      78.96321668 [kJ/mol]
      Exch10(S^2)                  29.77226520 [mEh]      18.68237847 [kcal/mol]      78.16707152 [kJ/mol]

    Induction                     -10.32189352 [mEh]      -6.47708597 [kcal/mol]     -27.10012771 [kJ/mol]
      Ind20,r                     -15.41562175 [mEh]      -9.67344870 [kcal/mol]     -40.47370934 [kJ/mol]
      Exch-Ind20,r                  9.26047234 [mEh]       5.81103412 [kcal/mol]      24.31336677 [kJ/mol]
      delta HF,r (2)               -4.16674410 [mEh]      -2.61467140 [kcal/mol]     -10.93978513 [kJ/mol]

    Dispersion                     -9.48344408 [mEh]      -5.95095101 [kcal/mol]     -24.89877901 [kJ/mol]
      Disp20                      -11.76808731 [mEh]      -7.38458627 [kcal/mol]     -30.89710897 [kJ/mol]
      Exch-Disp20                   2.28464322 [mEh]       1.43363527 [kcal/mol]       5.99832996 [kJ/mol]
      Disp20 (SS)                  -5.88404365 [mEh]      -3.69229314 [kcal/mol]     -15.44855448 [kJ/mol]
      Disp20 (OS)                  -5.88404365 [mEh]      -3.69229314 [kcal/mol]     -15.44855448 [kJ/mol]
      Exch-Disp20 (SS)              1.42651333 [mEh]       0.89515063 [kcal/mol]       3.74531023 [kJ/mol]
      Exch-Disp20 (OS)              0.85812989 [mEh]       0.53848464 [kcal/mol]       2.25301973 [kJ/mol]

  Total HF                        -11.42988344 [mEh]      -7.17236014 [kcal/mol]     -30.00915484 [kJ/mol]
  Total SAPT0                     -20.91332752 [mEh]     -13.12331115 [kcal/mol]     -54.90793385 [kJ/mol]

  Special recipe for scaled SAPT0 (see Manual):
    Electrostatics sSAPT0         -31.18349080 [mEh]     -19.56793590 [kcal/mol]     -81.87224381 [kJ/mol]
    Exchange sSAPT0                30.07550088 [mEh]      18.87266173 [kcal/mol]      78.96321668 [kJ/mol]
    Induction sSAPT0              -10.03604321 [mEh]      -6.29771219 [kcal/mol]     -26.34962782 [kJ/mol]
    Dispersion sSAPT0              -9.41292220 [mEh]      -5.90669785 [kcal/mol]     -24.71362382 [kJ/mol]
  Total sSAPT0                    -20.55695533 [mEh]     -12.89968422 [kcal/mol]     -53.97227878 [kJ/mol]
  --------------------------------------------------------------------------------------------------------

*** tstop() called on r282 at Fri Sep 10 11:26:54 2021
Module time:
	user time   =     100.58 seconds =       1.68 minutes
	system time =      17.16 seconds =       0.29 minutes
	total time  =        119 seconds =       1.98 minutes
Total time:
	user time   =     235.69 seconds =       3.93 minutes
	system time =      19.75 seconds =       0.33 minutes
	total time  =        257 seconds =       4.28 minutes

    Psi4 stopped on: Friday, 10 September 2021 11:26AM
    Psi4 wall time for execution: 0:04:17.16

*** Psi4 exiting successfully. Buy a developer a beer!
