
    -----------------------------------------------------------------------
          Psi4: An Open-Source Ab Initio Electronic Structure Package
                               Psi4 1.3.2 release

                         Git: Rev {HEAD} ecbda83 


    R. M. Parrish, L. A. Burns, D. G. A. Smith, A. C. Simmonett,
    A. E. DePrince III, E. G. Hohenstein, U. Bozkaya, A. Yu. Sokolov,
    R. Di Remigio, R. M. Richard, J. F. Gonthier, A. M. James,
    H. R. McAlexander, A. Kumar, M. Saitow, X. Wang, B. P. Pritchard,
    P. Verma, H. F. Schaefer III, K. Patkowski, R. A. King, E. F. Valeev,
    F. A. Evangelista, J. M. Turney, T. D. Crawford, and C. D. Sherrill,
    J. Chem. Theory Comput. 13(7) pp 3185--3197 (2017).
    (doi: 10.1021/acs.jctc.7b00174)


                         Additional Contributions by
    P. Kraus, H. Kruse, M. H. Lechner, M. C. Schieber, R. A. Shaw,
    A. Alenaizan, R. Galvelis, Z. L. Glick, S. Lehtola, and J. P. Misiewicz

    -----------------------------------------------------------------------


    Psi4 started on: Friday, 10 September 2021 11:49AM

    Process ID: 56572
    Host:       r282
    PSIDATADIR: /home/r08543048/miniconda3/share/psi4
    Memory:     500.0 MiB
    Threads:    1
    
  ==> Input File <==

--------------------------------------------------------------------------
# Any line starting with the # character is a comment line
#! Sample  computation

memory 22 gb

molecule Dimer {
0 1
 C 3.287738    0.067972   -0.312428
 C 1.798008    0.298941   -0.185865
 O 0.992130   -0.633245   -0.263466
 N 1.404725    1.579676   -0.004340
 H 0.410939    1.781193    0.029540
 H 2.077081    2.322470    0.033678
 C 3.710092   -1.245925    0.329956 
 H 3.139855   -2.068664   -0.093883
 H 4.770439   -1.428893    0.165480   
 H 3.527035   -1.227928    1.403423
 H 3.510003    0.049626   -1.382046
 H 3.835423    0.909581    0.113891
 
 
 
 
 
  

 
 
     

    
    
 --
0 1
 C -3.143225   -0.781965    0.440061 
 C -2.313355    0.414729    0.873872
 H -2.471355   -1.625628    0.261519
 H -3.794567   -1.067328    1.270430
 O -1.373327    0.810577   -0.121471
 H -2.960142    1.278206    1.037445
 H -1.799781    0.195370    1.815550
 H -0.715224    0.091956   -0.211952 
 C -3.968838   -0.493798   -0.806547 
 H -3.323695   -0.194440   -1.630368
 H -4.538049   -1.369373   -1.116322 
 H -4.673982    0.317738   -0.620806 



 
 







units angstrom

no_reorient
symmetry c1
}

set globals{
  basis jun-cc-pvtz
}

energy('sapt0')


--------------------------------------------------------------------------

  Memory set to  20.489 GiB by Python driver.

  //>>>>>>>>>>>>>>>>>>>>>>>>>>>>>>>>>>>//
  //              Dimer HF             //
  //<<<<<<<<<<<<<<<<<<<<<<<<<<<<<<<<<<<//


*** tstart() called on r282
*** at Fri Sep 10 11:49:19 2021

   => Loading Basis Set <=

    Name: JUN-CC-PVTZ
    Role: ORBITAL
    Keyword: BASIS
    atoms 1-2, 7, 13-14, 21              entry C          line   217 file /home/r08543048/miniconda3/share/psi4/basis/jun-cc-pvtz.gbs 
    atoms 3, 17                          entry O          line   305 file /home/r08543048/miniconda3/share/psi4/basis/jun-cc-pvtz.gbs 
    atoms 4                              entry N          line   261 file /home/r08543048/miniconda3/share/psi4/basis/jun-cc-pvtz.gbs 
    atoms 5-6, 8-12, 15-16, 18-20, 22-24 entry H          line    36 file /home/r08543048/miniconda3/share/psi4/basis/jun-cc-pvtz.gbs 


         ---------------------------------------------------------
                                   SCF
               by Justin Turney, Rob Parrish, Andy Simmonett
                          and Daniel G. A. Smith
                              RHF Reference
                        1 Threads,  20980 MiB Core
         ---------------------------------------------------------

  ==> Geometry <==

    Molecular point group: c1
    Full point group: C1

    Geometry (in Angstrom), charge = 0, multiplicity = 1:

       Center              X                  Y                   Z               Mass       
    ------------   -----------------  -----------------  -----------------  -----------------
         C            3.265284794374     0.052765574981    -0.304425429801    12.000000000000
         C            1.775554794374     0.283734574981    -0.177862429801    12.000000000000
         O            0.969676794374    -0.648451425019    -0.255463429801    15.994914619570
         N            1.382271794374     1.564469574981     0.003662570199    14.003074004430
         H            0.388485794374     1.765986574981     0.037542570199     1.007825032230
         H            2.054627794374     2.307263574981     0.041680570199     1.007825032230
         C            3.687638794374    -1.261131425019     0.337958570199    12.000000000000
         H            3.117401794374    -2.083870425019    -0.085880429801     1.007825032230
         H            4.747985794374    -1.444099425019     0.173482570199     1.007825032230
         H            3.504581794374    -1.243134425019     1.411425570199     1.007825032230
         H            3.487549794374     0.034419574981    -1.374043429801     1.007825032230
         H            3.812969794374     0.894374574981     0.121893570199     1.007825032230
         C           -3.165678205626    -0.797171425019     0.448063570199    12.000000000000
         C           -2.335808205626     0.399522574981     0.881874570199    12.000000000000
         H           -2.493808205626    -1.640834425019     0.269521570199     1.007825032230
         H           -3.817020205626    -1.082534425019     1.278432570199     1.007825032230
         O           -1.395780205626     0.795370574981    -0.113468429801    15.994914619570
         H           -2.982595205626     1.262999574981     1.045447570199     1.007825032230
         H           -1.822234205626     0.180163574981     1.823552570199     1.007825032230
         H           -0.737677205626     0.076749574981    -0.203949429801     1.007825032230
         C           -3.991291205626    -0.509004425019    -0.798544429801    12.000000000000
         H           -3.346148205626    -0.209646425019    -1.622365429801     1.007825032230
         H           -4.560502205626    -1.384579425019    -1.108319429801     1.007825032230
         H           -4.696435205626     0.302531574981    -0.612803429801     1.007825032230

  Running in c1 symmetry.

  Rotational constants: A =      0.11486  B =      0.01718  C =      0.01602 [cm^-1]
  Rotational constants: A =   3443.55907  B =    515.02821  C =    480.33911 [MHz]
  Nuclear repulsion =  463.978420311809543

  Charge       = 0
  Multiplicity = 1
  Electrons    = 74
  Nalpha       = 37
  Nbeta        = 37

  ==> Algorithm <==

  SCF Algorithm Type is DF.
  DIIS enabled.
  MOM disabled.
  Fractional occupation disabled.
  Guess Type is SAD.
  Energy threshold   = 1.00e-08
  Density threshold  = 1.00e-08
  Integral threshold = 0.00e+00

  ==> Primary Basis <==

  Basis Set: JUN-CC-PVTZ
    Blend: JUN-CC-PVTZ
    Number of shells: 207
    Number of basis function: 561
    Number of Cartesian functions: 630
    Spherical Harmonics?: true
    Max angular momentum: 3

   => Loading Basis Set <=

    Name: (JUN-CC-PVTZ AUX)
    Role: JKFIT
    Keyword: DF_BASIS_SCF
    atoms 1-2, 7, 13-14, 21              entry C          line   152 file /home/r08543048/miniconda3/share/psi4/basis/jun-cc-pvtz-jkfit.gbs 
    atoms 3, 17                          entry O          line   272 file /home/r08543048/miniconda3/share/psi4/basis/jun-cc-pvtz-jkfit.gbs 
    atoms 4                              entry N          line   212 file /home/r08543048/miniconda3/share/psi4/basis/jun-cc-pvtz-jkfit.gbs 
    atoms 5-6, 8-12, 15-16, 18-20, 22-24 entry H          line    70 file /home/r08543048/miniconda3/share/psi4/basis/jun-cc-pvtz-jkfit.gbs 

  ==> Pre-Iterations <==

   -------------------------------------------------------
    Irrep   Nso     Nmo     Nalpha   Nbeta   Ndocc  Nsocc
   -------------------------------------------------------
     A        561     561       0       0       0       0
   -------------------------------------------------------
    Total     561     561      37      37      37       0
   -------------------------------------------------------

  ==> Integral Setup <==

  ==> DiskDFJK: Density-Fitted J/K Matrices <==

    J tasked:                  Yes
    K tasked:                  Yes
    wK tasked:                  No
    OpenMP threads:              1
    Integrals threads:           1
    Memory [MiB]:            15735
    Algorithm:                Core
    Integral Cache:           SAVE
    Schwarz Cutoff:          1E-12
    Fitting Condition:       1E-10

   => Auxiliary Basis Set <=

  Basis Set: (JUN-CC-PVTZ AUX)
    Blend: JUN-CC-PVTZ-JKFIT
    Number of shells: 411
    Number of basis function: 1305
    Number of Cartesian functions: 1569
    Spherical Harmonics?: true
    Max angular momentum: 4

  Minimum eigenvalue in the overlap matrix is 3.8137210159E-05.
  Using Symmetric Orthogonalization.

  SCF Guess: Superposition of Atomic Densities via on-the-fly atomic UHF.

  ==> Iterations <==

                           Total Energy        Delta E     RMS |[F,P]|

   @DF-RHF iter SAD:  -439.00203841776585   -4.39002e+02   0.00000e+00 
   @DF-RHF iter   1:  -439.94009707978410   -9.38059e-01   1.49840e-03 DIIS
   @DF-RHF iter   2:  -440.23132530236126   -2.91228e-01   7.81084e-04 DIIS
   @DF-RHF iter   3:  -440.30551902851505   -7.41937e-02   1.50769e-04 DIIS
   @DF-RHF iter   4:  -440.31010658547905   -4.58756e-03   6.96271e-05 DIIS
   @DF-RHF iter   5:  -440.31090956379938   -8.02978e-04   1.28844e-05 DIIS
   @DF-RHF iter   6:  -440.31096016693982   -5.06031e-05   5.27466e-06 DIIS
   @DF-RHF iter   7:  -440.31096716710056   -7.00016e-06   1.94249e-06 DIIS
   @DF-RHF iter   8:  -440.31096866383552   -1.49673e-06   7.61286e-07 DIIS
   @DF-RHF iter   9:  -440.31096894588745   -2.82052e-07   2.41418e-07 DIIS
   @DF-RHF iter  10:  -440.31096897265763   -2.67702e-08   8.22383e-08 DIIS
   @DF-RHF iter  11:  -440.31096897526572   -2.60809e-09   2.16265e-08 DIIS
   @DF-RHF iter  12:  -440.31096897542795   -1.62231e-10   7.91815e-09 DIIS
  Energy and wave function converged.


  ==> Post-Iterations <==

    Orbital Energies [Eh]
    ---------------------

    Doubly Occupied:                                                      

       1A    -20.532618     2A    -20.524773     3A    -15.583854  
       4A    -11.358453     5A    -11.258527     6A    -11.245506  
       7A    -11.221181     8A    -11.207935     9A    -11.197824  
      10A     -1.384525    11A     -1.336328    12A     -1.215316  
      13A     -1.057573    14A     -1.038019    15A     -0.908042  
      16A     -0.897024    17A     -0.798256    18A     -0.788381  
      19A     -0.726263    20A     -0.690912    21A     -0.656554  
      22A     -0.636284    23A     -0.624711    24A     -0.610132  
      25A     -0.604056    26A     -0.567841    27A     -0.550997  
      28A     -0.531255    29A     -0.519837    30A     -0.516408  
      31A     -0.508578    32A     -0.499737    33A     -0.472136  
      34A     -0.459849    35A     -0.431472    36A     -0.419703  
      37A     -0.418935  

    Virtual:                                                              

      38A      0.042924    39A      0.054223    40A      0.057442  
      41A      0.062292    42A      0.068992    43A      0.074011  
      44A      0.077100    45A      0.091163    46A      0.097856  
      47A      0.099872    48A      0.102228    49A      0.108406  
      50A      0.111092    51A      0.113539    52A      0.131370  
      53A      0.137187    54A      0.137996    55A      0.141219  
      56A      0.151895    57A      0.155025    58A      0.169523  
      59A      0.182932    60A      0.186636    61A      0.194969  
      62A      0.198273    63A      0.205265    64A      0.210085  
      65A      0.214422    66A      0.235102    67A      0.241218  
      68A      0.248663    69A      0.250302    70A      0.259756  
      71A      0.270015    72A      0.278342    73A      0.286715  
      74A      0.290502    75A      0.296291    76A      0.297128  
      77A      0.302926    78A      0.310106    79A      0.311681  
      80A      0.315584    81A      0.320610    82A      0.325242  
      83A      0.327875    84A      0.335345    85A      0.339003  
      86A      0.340798    87A      0.346009    88A      0.350127  
      89A      0.357612    90A      0.359219    91A      0.369350  
      92A      0.374296    93A      0.382626    94A      0.387887  
      95A      0.398419    96A      0.402241    97A      0.412482  
      98A      0.418285    99A      0.427730   100A      0.431495  
     101A      0.444971   102A      0.448466   103A      0.462186  
     104A      0.462555   105A      0.465920   106A      0.477077  
     107A      0.490643   108A      0.495820   109A      0.504068  
     110A      0.507381   111A      0.514460   112A      0.521309  
     113A      0.529178   114A      0.536168   115A      0.542399  
     116A      0.546804   117A      0.552526   118A      0.556612  
     119A      0.561238   120A      0.566276   121A      0.575949  
     122A      0.590677   123A      0.595233   124A      0.609566  
     125A      0.614057   126A      0.621539   127A      0.636968  
     128A      0.638388   129A      0.648956   130A      0.657610  
     131A      0.669555   132A      0.677279   133A      0.679364  
     134A      0.694005   135A      0.707450   136A      0.709410  
     137A      0.725177   138A      0.733448   139A      0.737250  
     140A      0.750000   141A      0.754087   142A      0.757251  
     143A      0.775178   144A      0.781231   145A      0.788488  
     146A      0.792272   147A      0.798324   148A      0.804183  
     149A      0.809543   150A      0.817102   151A      0.821100  
     152A      0.836826   153A      0.847262   154A      0.851356  
     155A      0.856861   156A      0.866391   157A      0.875819  
     158A      0.880562   159A      0.889680   160A      0.896509  
     161A      0.905652   162A      0.912423   163A      0.914896  
     164A      0.922264   165A      0.926062   166A      0.938642  
     167A      0.959647   168A      0.961285   169A      0.970463  
     170A      0.987450   171A      1.003317   172A      1.013545  
     173A      1.024806   174A      1.035005   175A      1.040861  
     176A      1.055149   177A      1.070679   178A      1.076185  
     179A      1.095993   180A      1.103416   181A      1.119574  
     182A      1.132773   183A      1.142524   184A      1.156045  
     185A      1.169047   186A      1.175693   187A      1.185142  
     188A      1.206266   189A      1.217287   190A      1.234508  
     191A      1.240435   192A      1.263414   193A      1.275875  
     194A      1.288490   195A      1.297593   196A      1.305622  
     197A      1.314236   198A      1.318421   199A      1.332581  
     200A      1.341620   201A      1.351535   202A      1.359510  
     203A      1.370940   204A      1.378732   205A      1.380756  
     206A      1.388770   207A      1.391885   208A      1.404889  
     209A      1.409500   210A      1.418494   211A      1.424150  
     212A      1.429291   213A      1.434336   214A      1.449707  
     215A      1.456128   216A      1.470580   217A      1.484952  
     218A      1.489010   219A      1.495231   220A      1.508127  
     221A      1.512858   222A      1.528897   223A      1.533075  
     224A      1.547342   225A      1.556479   226A      1.559684  
     227A      1.567327   228A      1.576527   229A      1.591030  
     230A      1.600638   231A      1.613648   232A      1.617673  
     233A      1.636963   234A      1.640331   235A      1.645341  
     236A      1.657913   237A      1.667723   238A      1.679334  
     239A      1.689419   240A      1.702056   241A      1.708149  
     242A      1.724413   243A      1.744336   244A      1.754653  
     245A      1.760833   246A      1.774501   247A      1.789180  
     248A      1.807031   249A      1.810573   250A      1.834886  
     251A      1.840303   252A      1.853749   253A      1.873396  
     254A      1.888412   255A      1.906827   256A      1.927968  
     257A      1.935320   258A      1.937511   259A      1.948793  
     260A      1.972949   261A      1.985441   262A      2.007660  
     263A      2.034655   264A      2.047084   265A      2.078466  
     266A      2.106075   267A      2.178368   268A      2.234870  
     269A      2.288056   270A      2.304977   271A      2.329494  
     272A      2.406552   273A      2.421251   274A      2.443594  
     275A      2.464424   276A      2.508265   277A      2.542822  
     278A      2.580715   279A      2.636899   280A      2.659649  
     281A      2.710982   282A      2.748924   283A      2.788461  
     284A      2.805037   285A      2.821549   286A      2.838174  
     287A      2.850017   288A      2.859036   289A      2.862725  
     290A      2.878684   291A      2.888489   292A      2.900094  
     293A      2.906193   294A      2.921753   295A      2.945062  
     296A      2.958874   297A      2.976002   298A      2.986618  
     299A      2.993618   300A      3.011605   301A      3.034364  
     302A      3.059762   303A      3.063513   304A      3.112015  
     305A      3.126201   306A      3.129339   307A      3.138466  
     308A      3.140540   309A      3.154137   310A      3.161648  
     311A      3.174750   312A      3.194791   313A      3.202532  
     314A      3.221123   315A      3.249181   316A      3.259916  
     317A      3.272579   318A      3.306245   319A      3.313708  
     320A      3.318519   321A      3.338249   322A      3.345135  
     323A      3.351074   324A      3.364509   325A      3.387287  
     326A      3.395688   327A      3.404257   328A      3.409445  
     329A      3.417239   330A      3.438988   331A      3.440259  
     332A      3.452809   333A      3.460378   334A      3.461624  
     335A      3.469970   336A      3.483310   337A      3.489717  
     338A      3.491843   339A      3.499746   340A      3.510109  
     341A      3.516541   342A      3.527500   343A      3.536086  
     344A      3.539591   345A      3.549776   346A      3.552423  
     347A      3.557236   348A      3.567914   349A      3.586773  
     350A      3.594343   351A      3.602323   352A      3.617950  
     353A      3.619585   354A      3.634397   355A      3.640224  
     356A      3.667685   357A      3.675996   358A      3.685392  
     359A      3.703302   360A      3.712667   361A      3.729339  
     362A      3.734090   363A      3.749708   364A      3.766307  
     365A      3.780554   366A      3.796355   367A      3.799271  
     368A      3.809683   369A      3.835463   370A      3.838206  
     371A      3.842438   372A      3.862576   373A      3.874232  
     374A      3.888172   375A      3.899991   376A      3.919120  
     377A      3.922836   378A      3.932613   379A      3.937270  
     380A      3.973768   381A      3.977690   382A      3.981044  
     383A      4.001359   384A      4.004746   385A      4.016900  
     386A      4.031968   387A      4.066375   388A      4.090161  
     389A      4.102889   390A      4.113949   391A      4.121735  
     392A      4.140436   393A      4.156415   394A      4.184983  
     395A      4.190385   396A      4.200773   397A      4.217405  
     398A      4.233490   399A      4.239068   400A      4.245765  
     401A      4.267472   402A      4.273415   403A      4.274629  
     404A      4.292922   405A      4.300765   406A      4.304301  
     407A      4.320097   408A      4.336293   409A      4.337883  
     410A      4.358507   411A      4.367787   412A      4.369309  
     413A      4.382066   414A      4.389044   415A      4.419402  
     416A      4.420401   417A      4.433097   418A      4.440018  
     419A      4.447596   420A      4.458297   421A      4.466207  
     422A      4.474273   423A      4.476349   424A      4.480092  
     425A      4.499379   426A      4.507931   427A      4.516048  
     428A      4.517060   429A      4.526572   430A      4.546580  
     431A      4.558204   432A      4.563745   433A      4.590775  
     434A      4.601129   435A      4.617924   436A      4.630565  
     437A      4.633095   438A      4.656755   439A      4.674291  
     440A      4.677555   441A      4.690708   442A      4.699785  
     443A      4.719788   444A      4.735224   445A      4.748397  
     446A      4.763372   447A      4.784010   448A      4.802167  
     449A      4.816778   450A      4.827273   451A      4.840501  
     452A      4.870617   453A      4.885990   454A      4.909016  
     455A      4.926555   456A      4.940754   457A      4.974644  
     458A      5.001780   459A      5.014481   460A      5.016773  
     461A      5.082525   462A      5.102940   463A      5.143980  
     464A      5.164914   465A      5.174922   466A      5.179524  
     467A      5.196899   468A      5.217774   469A      5.231094  
     470A      5.246141   471A      5.260083   472A      5.269585  
     473A      5.279040   474A      5.292518   475A      5.297170  
     476A      5.306574   477A      5.315061   478A      5.343470  
     479A      5.349692   480A      5.359520   481A      5.390795  
     482A      5.412159   483A      5.429120   484A      5.465243  
     485A      5.470878   486A      5.496561   487A      5.513324  
     488A      5.521971   489A      5.538897   490A      5.568871  
     491A      5.603286   492A      5.611769   493A      5.648620  
     494A      5.673339   495A      5.711527   496A      5.733810  
     497A      5.745237   498A      5.761017   499A      5.770745  
     500A      5.774150   501A      5.782175   502A      5.793082  
     503A      5.811538   504A      5.838847   505A      5.850949  
     506A      5.861021   507A      5.885927   508A      5.899350  
     509A      5.930636   510A      5.932046   511A      5.955287  
     512A      5.982180   513A      5.986060   514A      6.006411  
     515A      6.022292   516A      6.066292   517A      6.095672  
     518A      6.128069   519A      6.154968   520A      6.206868  
     521A      6.219202   522A      6.316530   523A      6.342419  
     524A      6.455508   525A      6.484226   526A      6.497715  
     527A      6.498121   528A      6.523011   529A      6.526184  
     530A      6.563755   531A      6.595513   532A      6.634145  
     533A      6.710451   534A      6.766431   535A      6.830498  
     536A      6.972645   537A      7.041600   538A      7.197015  
     539A      7.221516   540A      7.292369   541A      7.376500  
     542A      7.406806   543A      7.417245   544A      7.468572  
     545A      7.483195   546A      7.566859   547A      7.662872  
     548A      7.723883   549A      7.785849   550A      7.817004  
     551A      7.959185   552A      8.232815   553A     12.242973  
     554A     13.718418   555A     13.884159   556A     13.994995  
     557A     14.032358   558A     14.177386   559A     14.551832  
     560A     14.565626   561A     15.813624  

    Final Occupation by Irrep:
              A 
    DOCC [    37 ]

  @DF-RHF Final Energy:  -440.31096897542795

   => Energetics <=

    Nuclear Repulsion Energy =            463.9784203118095434
    One-Electron Energy =               -1520.5791920867691260
    Two-Electron Energy =                 616.2898027995316852
    Total Energy =                       -440.3109689754279543

Computation Completed


Properties will be evaluated at   0.000000,   0.000000,   0.000000 [a0]

Properties computed using the SCF density matrix

  Nuclear Dipole Moment: [e a0]
     X:    -3.1399      Y:    -2.1265      Z:     1.1191

  Electronic Dipole Moment: [e a0]
     X:     4.2098      Y:     2.8381      Z:    -0.7257

  Dipole Moment: [e a0]
     X:     1.0700      Y:     0.7117      Z:     0.3934     Total:     1.3439

  Dipole Moment: [D]
     X:     2.7196      Y:     1.8089      Z:     0.9999     Total:     3.4159


*** tstop() called on r282 at Fri Sep 10 11:51:01 2021
Module time:
	user time   =      99.56 seconds =       1.66 minutes
	system time =       1.87 seconds =       0.03 minutes
	total time  =        102 seconds =       1.70 minutes
Total time:
	user time   =      99.56 seconds =       1.66 minutes
	system time =       1.87 seconds =       0.03 minutes
	total time  =        102 seconds =       1.70 minutes

  //>>>>>>>>>>>>>>>>>>>>>>>>>>>>>>>>>>>//
  //            Monomer A HF           //
  //<<<<<<<<<<<<<<<<<<<<<<<<<<<<<<<<<<<//


*** tstart() called on r282
*** at Fri Sep 10 11:51:01 2021

   => Loading Basis Set <=

    Name: JUN-CC-PVTZ
    Role: ORBITAL
    Keyword: BASIS
    atoms 1-2, 7, 13-14, 21              entry C          line   217 file /home/r08543048/miniconda3/share/psi4/basis/jun-cc-pvtz.gbs 
    atoms 3, 17                          entry O          line   305 file /home/r08543048/miniconda3/share/psi4/basis/jun-cc-pvtz.gbs 
    atoms 4                              entry N          line   261 file /home/r08543048/miniconda3/share/psi4/basis/jun-cc-pvtz.gbs 
    atoms 5-6, 8-12, 15-16, 18-20, 22-24 entry H          line    36 file /home/r08543048/miniconda3/share/psi4/basis/jun-cc-pvtz.gbs 


         ---------------------------------------------------------
                                   SCF
               by Justin Turney, Rob Parrish, Andy Simmonett
                          and Daniel G. A. Smith
                              RHF Reference
                        1 Threads,  20980 MiB Core
         ---------------------------------------------------------

  ==> Geometry <==

    Molecular point group: c1
    Full point group: C1

    Geometry (in Angstrom), charge = 0, multiplicity = 1:

       Center              X                  Y                   Z               Mass       
    ------------   -----------------  -----------------  -----------------  -----------------
         C            3.265284794374     0.052765574981    -0.304425429801    12.000000000000
         C            1.775554794374     0.283734574981    -0.177862429801    12.000000000000
         O            0.969676794374    -0.648451425019    -0.255463429801    15.994914619570
         N            1.382271794374     1.564469574981     0.003662570199    14.003074004430
         H            0.388485794374     1.765986574981     0.037542570199     1.007825032230
         H            2.054627794374     2.307263574981     0.041680570199     1.007825032230
         C            3.687638794374    -1.261131425019     0.337958570199    12.000000000000
         H            3.117401794374    -2.083870425019    -0.085880429801     1.007825032230
         H            4.747985794374    -1.444099425019     0.173482570199     1.007825032230
         H            3.504581794374    -1.243134425019     1.411425570199     1.007825032230
         H            3.487549794374     0.034419574981    -1.374043429801     1.007825032230
         H            3.812969794374     0.894374574981     0.121893570199     1.007825032230
      Gh(C)          -3.165678205626    -0.797171425019     0.448063570199    12.000000000000
      Gh(C)          -2.335808205626     0.399522574981     0.881874570199    12.000000000000
      Gh(H)          -2.493808205626    -1.640834425019     0.269521570199     1.007825032230
      Gh(H)          -3.817020205626    -1.082534425019     1.278432570199     1.007825032230
      Gh(O)          -1.395780205626     0.795370574981    -0.113468429801    15.994914619570
      Gh(H)          -2.982595205626     1.262999574981     1.045447570199     1.007825032230
      Gh(H)          -1.822234205626     0.180163574981     1.823552570199     1.007825032230
      Gh(H)          -0.737677205626     0.076749574981    -0.203949429801     1.007825032230
      Gh(C)          -3.991291205626    -0.509004425019    -0.798544429801    12.000000000000
      Gh(H)          -3.346148205626    -0.209646425019    -1.622365429801     1.007825032230
      Gh(H)          -4.560502205626    -1.384579425019    -1.108319429801     1.007825032230
      Gh(H)          -4.696435205626     0.302531574981    -0.612803429801     1.007825032230

  Running in c1 symmetry.

  Rotational constants: A =      0.11486  B =      0.01718  C =      0.01602 [cm^-1]
  Rotational constants: A =   3443.55907  B =    515.02821  C =    480.33911 [MHz]
  Nuclear repulsion =  179.167036635923353

  Charge       = 0
  Multiplicity = 1
  Electrons    = 40
  Nalpha       = 20
  Nbeta        = 20

  ==> Algorithm <==

  SCF Algorithm Type is DF.
  DIIS enabled.
  MOM disabled.
  Fractional occupation disabled.
  Guess Type is SAD.
  Energy threshold   = 1.00e-08
  Density threshold  = 1.00e-08
  Integral threshold = 0.00e+00

  ==> Primary Basis <==

  Basis Set: JUN-CC-PVTZ
    Blend: JUN-CC-PVTZ
    Number of shells: 207
    Number of basis function: 561
    Number of Cartesian functions: 630
    Spherical Harmonics?: true
    Max angular momentum: 3

   => Loading Basis Set <=

    Name: (JUN-CC-PVTZ AUX)
    Role: JKFIT
    Keyword: DF_BASIS_SCF
    atoms 1-2, 7, 13-14, 21              entry C          line   152 file /home/r08543048/miniconda3/share/psi4/basis/jun-cc-pvtz-jkfit.gbs 
    atoms 3, 17                          entry O          line   272 file /home/r08543048/miniconda3/share/psi4/basis/jun-cc-pvtz-jkfit.gbs 
    atoms 4                              entry N          line   212 file /home/r08543048/miniconda3/share/psi4/basis/jun-cc-pvtz-jkfit.gbs 
    atoms 5-6, 8-12, 15-16, 18-20, 22-24 entry H          line    70 file /home/r08543048/miniconda3/share/psi4/basis/jun-cc-pvtz-jkfit.gbs 

  ==> Pre-Iterations <==

   -------------------------------------------------------
    Irrep   Nso     Nmo     Nalpha   Nbeta   Ndocc  Nsocc
   -------------------------------------------------------
     A        561     561       0       0       0       0
   -------------------------------------------------------
    Total     561     561      20      20      20       0
   -------------------------------------------------------

  ==> Integral Setup <==

  ==> DiskDFJK: Density-Fitted J/K Matrices <==

    J tasked:                  Yes
    K tasked:                  Yes
    wK tasked:                  No
    OpenMP threads:              1
    Integrals threads:           1
    Memory [MiB]:            15735
    Algorithm:                Core
    Integral Cache:           LOAD
    Schwarz Cutoff:          1E-12
    Fitting Condition:       1E-10

   => Auxiliary Basis Set <=

  Basis Set: (JUN-CC-PVTZ AUX)
    Blend: JUN-CC-PVTZ-JKFIT
    Number of shells: 411
    Number of basis function: 1305
    Number of Cartesian functions: 1569
    Spherical Harmonics?: true
    Max angular momentum: 4

  Minimum eigenvalue in the overlap matrix is 3.8137210159E-05.
  Using Symmetric Orthogonalization.

  SCF Guess: Superposition of Atomic Densities via on-the-fly atomic UHF.

  ==> Iterations <==

                           Total Energy        Delta E     RMS |[F,P]|

   @DF-RHF iter SAD:  -246.29968068913911   -2.46300e+02   0.00000e+00 
   @DF-RHF iter   1:  -246.89314156036266   -5.93461e-01   1.16671e-03 DIIS
   @DF-RHF iter   2:  -247.05396219904844   -1.60821e-01   6.77331e-04 DIIS
   @DF-RHF iter   3:  -247.10510206027575   -5.11399e-02   1.32792e-04 DIIS
   @DF-RHF iter   4:  -247.10814506545120   -3.04301e-03   5.72902e-05 DIIS
   @DF-RHF iter   5:  -247.10878552176362   -6.40456e-04   9.07235e-06 DIIS
   @DF-RHF iter   6:  -247.10882185167185   -3.63299e-05   3.60082e-06 DIIS
   @DF-RHF iter   7:  -247.10882651626235   -4.66459e-06   1.56433e-06 DIIS
   @DF-RHF iter   8:  -247.10882754585134   -1.02959e-06   6.27481e-07 DIIS
   @DF-RHF iter   9:  -247.10882773810016   -1.92249e-07   1.45577e-07 DIIS
   @DF-RHF iter  10:  -247.10882774914100   -1.10408e-08   3.60887e-08 DIIS
   @DF-RHF iter  11:  -247.10882774962994   -4.88939e-10   1.03092e-08 DIIS
   @DF-RHF iter  12:  -247.10882774967305   -4.31157e-11   2.78424e-09 DIIS
  Energy and wave function converged.


  ==> Post-Iterations <==

    Orbital Energies [Eh]
    ---------------------

    Doubly Occupied:                                                      

       1A    -20.512441     2A    -15.589736     3A    -11.349377  
       4A    -11.241402     5A    -11.216801     6A     -1.368548  
       7A     -1.214991     8A     -1.052713     9A     -0.893908  
      10A     -0.786740    11A     -0.725444    12A     -0.672225  
      13A     -0.630977    14A     -0.594951    15A     -0.560957  
      16A     -0.523983    17A     -0.514200    18A     -0.494972  
      19A     -0.419609    20A     -0.413094  

    Virtual:                                                              

      21A      0.035604    22A      0.043128    23A      0.052902  
      24A      0.055087    25A      0.064169    26A      0.072679  
      27A      0.073892    28A      0.087507    29A      0.091869  
      30A      0.095342    31A      0.101867    32A      0.106494  
      33A      0.110112    34A      0.114328    35A      0.120953  
      36A      0.130311    37A      0.133947    38A      0.138874  
      39A      0.145064    40A      0.149934    41A      0.157207  
      42A      0.167043    43A      0.171879    44A      0.177036  
      45A      0.186356    46A      0.192354    47A      0.200539  
      48A      0.209639    49A      0.211624    50A      0.216059  
      51A      0.233852    52A      0.243290    53A      0.247863  
      54A      0.257865    55A      0.267895    56A      0.278012  
      57A      0.282371    58A      0.284769    59A      0.292650  
      60A      0.302335    61A      0.304347    62A      0.310704  
      63A      0.313120    64A      0.316154    65A      0.320134  
      66A      0.331186    67A      0.333934    68A      0.339381  
      69A      0.345145    70A      0.346427    71A      0.351996  
      72A      0.359956    73A      0.362613    74A      0.373932  
      75A      0.381628    76A      0.387634    77A      0.399938  
      78A      0.402006    79A      0.412348    80A      0.417701  
      81A      0.424711    82A      0.426941    83A      0.435089  
      84A      0.444413    85A      0.445527    86A      0.456409  
      87A      0.467844    88A      0.470879    89A      0.481174  
      90A      0.484280    91A      0.493086    92A      0.503442  
      93A      0.506788    94A      0.510568    95A      0.516207  
      96A      0.522178    97A      0.533381    98A      0.539538  
      99A      0.544602   100A      0.557063   101A      0.568580  
     102A      0.573260   103A      0.574360   104A      0.580371  
     105A      0.594738   106A      0.597878   107A      0.609942  
     108A      0.616502   109A      0.625224   110A      0.630956  
     111A      0.634326   112A      0.641377   113A      0.645758  
     114A      0.658785   115A      0.661359   116A      0.667236  
     117A      0.678999   118A      0.691014   119A      0.699838  
     120A      0.708178   121A      0.711375   122A      0.725777  
     123A      0.738106   124A      0.742756   125A      0.761811  
     126A      0.766770   127A      0.786429   128A      0.786747  
     129A      0.801567   130A      0.804903   131A      0.814451  
     132A      0.825539   133A      0.834375   134A      0.848990  
     135A      0.854611   136A      0.873662   137A      0.884364  
     138A      0.889074   139A      0.902965   140A      0.911514  
     141A      0.920309   142A      0.933124   143A      0.944286  
     144A      0.970584   145A      0.981272   146A      0.985713  
     147A      1.000007   148A      1.003966   149A      1.011692  
     150A      1.029470   151A      1.047260   152A      1.050562  
     153A      1.057953   154A      1.081073   155A      1.082838  
     156A      1.099589   157A      1.107916   158A      1.115072  
     159A      1.118325   160A      1.136885   161A      1.142096  
     162A      1.144877   163A      1.157630   164A      1.173890  
     165A      1.182540   166A      1.191934   167A      1.201239  
     168A      1.212759   169A      1.227615   170A      1.233030  
     171A      1.237800   172A      1.259604   173A      1.270294  
     174A      1.278124   175A      1.290477   176A      1.295409  
     177A      1.304350   178A      1.316110   179A      1.321943  
     180A      1.334945   181A      1.339213   182A      1.344297  
     183A      1.348466   184A      1.353082   185A      1.360839  
     186A      1.369417   187A      1.377399   188A      1.384651  
     189A      1.395502   190A      1.410767   191A      1.422032  
     192A      1.428071   193A      1.431072   194A      1.439472  
     195A      1.456374   196A      1.458506   197A      1.463807  
     198A      1.475090   199A      1.495799   200A      1.502643  
     201A      1.503413   202A      1.525466   203A      1.529318  
     204A      1.537645   205A      1.548090   206A      1.558315  
     207A      1.565650   208A      1.577968   209A      1.579799  
     210A      1.589464   211A      1.600818   212A      1.606780  
     213A      1.610254   214A      1.636076   215A      1.640566  
     216A      1.651494   217A      1.660624   218A      1.664802  
     219A      1.679518   220A      1.697395   221A      1.720679  
     222A      1.728894   223A      1.748324   224A      1.750503  
     225A      1.761101   226A      1.778420   227A      1.798308  
     228A      1.810127   229A      1.827405   230A      1.833877  
     231A      1.850087   232A      1.863096   233A      1.875092  
     234A      1.881730   235A      1.891219   236A      1.909436  
     237A      1.933671   238A      1.953363   239A      1.970152  
     240A      1.980321   241A      1.993652   242A      2.009396  
     243A      2.033518   244A      2.052481   245A      2.089103  
     246A      2.117236   247A      2.134966   248A      2.146354  
     249A      2.187252   250A      2.211591   251A      2.221505  
     252A      2.238026   253A      2.283073   254A      2.300506  
     255A      2.347985   256A      2.367231   257A      2.399370  
     258A      2.405875   259A      2.423668   260A      2.442088  
     261A      2.465492   262A      2.493286   263A      2.519787  
     264A      2.561584   265A      2.600880   266A      2.611938  
     267A      2.617747   268A      2.682845   269A      2.718953  
     270A      2.732225   271A      2.801088   272A      2.822927  
     273A      2.854202   274A      2.856146   275A      2.870313  
     276A      2.881671   277A      2.912328   278A      2.929421  
     279A      2.946538   280A      2.979604   281A      2.999592  
     282A      3.013839   283A      3.046730   284A      3.065224  
     285A      3.112782   286A      3.121349   287A      3.131418  
     288A      3.151173   289A      3.160901   290A      3.182420  
     291A      3.205372   292A      3.231224   293A      3.252923  
     294A      3.286125   295A      3.336909   296A      3.357264  
     297A      3.367040   298A      3.380830   299A      3.400093  
     300A      3.420782   301A      3.440524   302A      3.449238  
     303A      3.466952   304A      3.478805   305A      3.482917  
     306A      3.494044   307A      3.498560   308A      3.517707  
     309A      3.531682   310A      3.534914   311A      3.542919  
     312A      3.556465   313A      3.568615   314A      3.581340  
     315A      3.591626   316A      3.598945   317A      3.612898  
     318A      3.615347   319A      3.618315   320A      3.635497  
     321A      3.639258   322A      3.668906   323A      3.682157  
     324A      3.699084   325A      3.711400   326A      3.716205  
     327A      3.736563   328A      3.765351   329A      3.771637  
     330A      3.781512   331A      3.795462   332A      3.799370  
     333A      3.823012   334A      3.833260   335A      3.837918  
     336A      3.840107   337A      3.846501   338A      3.859337  
     339A      3.867585   340A      3.876957   341A      3.921836  
     342A      3.924731   343A      3.928619   344A      3.932785  
     345A      3.961062   346A      3.970313   347A      3.985049  
     348A      3.988221   349A      4.004058   350A      4.009854  
     351A      4.039482   352A      4.058312   353A      4.083680  
     354A      4.099608   355A      4.118912   356A      4.129460  
     357A      4.155600   358A      4.174450   359A      4.185743  
     360A      4.193770   361A      4.200543   362A      4.228501  
     363A      4.235896   364A      4.237063   365A      4.246078  
     366A      4.271588   367A      4.275521   368A      4.291052  
     369A      4.304101   370A      4.310717   371A      4.318189  
     372A      4.339757   373A      4.357184   374A      4.375368  
     375A      4.387542   376A      4.394292   377A      4.408124  
     378A      4.424225   379A      4.440839   380A      4.444426  
     381A      4.447641   382A      4.450052   383A      4.470023  
     384A      4.474162   385A      4.485052   386A      4.490266  
     387A      4.499081   388A      4.510778   389A      4.516125  
     390A      4.522371   391A      4.538353   392A      4.549863  
     393A      4.564405   394A      4.584029   395A      4.608183  
     396A      4.616630   397A      4.621286   398A      4.635601  
     399A      4.649607   400A      4.660723   401A      4.669705  
     402A      4.680767   403A      4.696362   404A      4.709278  
     405A      4.732478   406A      4.733166   407A      4.747267  
     408A      4.756807   409A      4.767245   410A      4.786119  
     411A      4.789601   412A      4.802710   413A      4.808275  
     414A      4.817287   415A      4.820518   416A      4.836185  
     417A      4.843030   418A      4.861965   419A      4.888394  
     420A      4.896546   421A      4.905767   422A      4.906138  
     423A      4.927491   424A      4.937900   425A      4.942235  
     426A      4.950176   427A      4.959910   428A      4.964479  
     429A      4.980475   430A      4.991246   431A      5.014007  
     432A      5.015627   433A      5.021332   434A      5.044723  
     435A      5.070776   436A      5.085311   437A      5.097272  
     438A      5.118315   439A      5.150920   440A      5.156315  
     441A      5.165047   442A      5.177049   443A      5.178704  
     444A      5.207130   445A      5.221771   446A      5.230869  
     447A      5.266684   448A      5.280965   449A      5.287877  
     450A      5.298139   451A      5.316455   452A      5.327502  
     453A      5.339427   454A      5.346811   455A      5.363365  
     456A      5.376489   457A      5.413863   458A      5.436538  
     459A      5.474565   460A      5.481024   461A      5.511133  
     462A      5.541662   463A      5.566336   464A      5.582091  
     465A      5.608650   466A      5.630191   467A      5.653954  
     468A      5.705068   469A      5.721862   470A      5.735034  
     471A      5.740404   472A      5.753018   473A      5.782435  
     474A      5.801945   475A      5.817166   476A      5.826874  
     477A      5.864150   478A      5.867680   479A      5.898420  
     480A      5.907311   481A      5.941145   482A      5.965776  
     483A      5.976946   484A      5.995067   485A      6.024571  
     486A      6.039556   487A      6.068439   488A      6.085398  
     489A      6.108273   490A      6.175284   491A      6.203746  
     492A      6.218463   493A      6.229386   494A      6.263910  
     495A      6.310391   496A      6.340172   497A      6.350236  
     498A      6.366191   499A      6.417765   500A      6.455860  
     501A      6.478924   502A      6.488498   503A      6.502358  
     504A      6.525298   505A      6.611818   506A      6.627129  
     507A      6.704980   508A      6.712798   509A      6.779211  
     510A      6.836020   511A      6.888477   512A      6.958112  
     513A      7.018427   514A      7.152737   515A      7.236128  
     516A      7.303061   517A      7.316877   518A      7.385268  
     519A      7.417843   520A      7.480021   521A      7.493066  
     522A      7.504567   523A      7.521579   524A      7.534525  
     525A      7.574876   526A      7.624455   527A      7.700691  
     528A      7.731733   529A      7.769072   530A      7.808911  
     531A      7.824867   532A      7.843901   533A      7.871353  
     534A      7.944535   535A      8.044824   536A      8.062282  
     537A      8.228022   538A      8.365678   539A      8.486166  
     540A      8.595143   541A      9.544094   542A      9.638224  
     543A      9.799060   544A      9.888497   545A      9.925151  
     546A     10.133809   547A     10.174055   548A     10.426688  
     549A     11.203988   550A     11.767594   551A     12.257881  
     552A     12.802558   553A     13.650419   554A     14.003443  
     555A     14.102445   556A     14.565843   557A     15.811884  
     558A     43.974157   559A     45.002247   560A     45.557806  
     561A     61.520616  

    Final Occupation by Irrep:
              A 
    DOCC [    20 ]

  @DF-RHF Final Energy:  -247.10882774967305

   => Energetics <=

    Nuclear Repulsion Energy =            179.1670366359233526
    One-Electron Energy =                -690.9975926039526257
    Two-Electron Energy =                 264.7217282183562475
    Total Energy =                       -247.1088277496730257

Computation Completed


Properties will be evaluated at   0.000000,   0.000000,   0.000000 [a0]

Properties computed using the SCF density matrix

  Nuclear Dipole Moment: [e a0]
     X:   171.8097      Y:     0.8444      Z:    -4.8338

  Electronic Dipole Moment: [e a0]
     X:  -170.9187      Y:     0.5351      Z:     4.9202

  Dipole Moment: [e a0]
     X:     0.8910      Y:     1.3794      Z:     0.0864     Total:     1.6444

  Dipole Moment: [D]
     X:     2.2646      Y:     3.5062      Z:     0.2195     Total:     4.1797


*** tstop() called on r282 at Fri Sep 10 11:52:01 2021
Module time:
	user time   =      59.18 seconds =       0.99 minutes
	system time =       0.96 seconds =       0.02 minutes
	total time  =         60 seconds =       1.00 minutes
Total time:
	user time   =     158.74 seconds =       2.65 minutes
	system time =       2.83 seconds =       0.05 minutes
	total time  =        162 seconds =       2.70 minutes

  //>>>>>>>>>>>>>>>>>>>>>>>>>>>>>>>>>>>//
  //            Monomer B HF           //
  //<<<<<<<<<<<<<<<<<<<<<<<<<<<<<<<<<<<//


*** tstart() called on r282
*** at Fri Sep 10 11:52:01 2021

   => Loading Basis Set <=

    Name: JUN-CC-PVTZ
    Role: ORBITAL
    Keyword: BASIS
    atoms 1-2, 7, 13-14, 21              entry C          line   217 file /home/r08543048/miniconda3/share/psi4/basis/jun-cc-pvtz.gbs 
    atoms 3, 17                          entry O          line   305 file /home/r08543048/miniconda3/share/psi4/basis/jun-cc-pvtz.gbs 
    atoms 4                              entry N          line   261 file /home/r08543048/miniconda3/share/psi4/basis/jun-cc-pvtz.gbs 
    atoms 5-6, 8-12, 15-16, 18-20, 22-24 entry H          line    36 file /home/r08543048/miniconda3/share/psi4/basis/jun-cc-pvtz.gbs 


         ---------------------------------------------------------
                                   SCF
               by Justin Turney, Rob Parrish, Andy Simmonett
                          and Daniel G. A. Smith
                              RHF Reference
                        1 Threads,  20980 MiB Core
         ---------------------------------------------------------

  ==> Geometry <==

    Molecular point group: c1
    Full point group: C1

    Geometry (in Angstrom), charge = 0, multiplicity = 1:

       Center              X                  Y                   Z               Mass       
    ------------   -----------------  -----------------  -----------------  -----------------
      Gh(C)           3.265284794374     0.052765574981    -0.304425429801    12.000000000000
      Gh(C)           1.775554794374     0.283734574981    -0.177862429801    12.000000000000
      Gh(O)           0.969676794374    -0.648451425019    -0.255463429801    15.994914619570
      Gh(N)           1.382271794374     1.564469574981     0.003662570199    14.003074004430
      Gh(H)           0.388485794374     1.765986574981     0.037542570199     1.007825032230
      Gh(H)           2.054627794374     2.307263574981     0.041680570199     1.007825032230
      Gh(C)           3.687638794374    -1.261131425019     0.337958570199    12.000000000000
      Gh(H)           3.117401794374    -2.083870425019    -0.085880429801     1.007825032230
      Gh(H)           4.747985794374    -1.444099425019     0.173482570199     1.007825032230
      Gh(H)           3.504581794374    -1.243134425019     1.411425570199     1.007825032230
      Gh(H)           3.487549794374     0.034419574981    -1.374043429801     1.007825032230
      Gh(H)           3.812969794374     0.894374574981     0.121893570199     1.007825032230
         C           -3.165678205626    -0.797171425019     0.448063570199    12.000000000000
         C           -2.335808205626     0.399522574981     0.881874570199    12.000000000000
         H           -2.493808205626    -1.640834425019     0.269521570199     1.007825032230
         H           -3.817020205626    -1.082534425019     1.278432570199     1.007825032230
         O           -1.395780205626     0.795370574981    -0.113468429801    15.994914619570
         H           -2.982595205626     1.262999574981     1.045447570199     1.007825032230
         H           -1.822234205626     0.180163574981     1.823552570199     1.007825032230
         H           -0.737677205626     0.076749574981    -0.203949429801     1.007825032230
         C           -3.991291205626    -0.509004425019    -0.798544429801    12.000000000000
         H           -3.346148205626    -0.209646425019    -1.622365429801     1.007825032230
         H           -4.560502205626    -1.384579425019    -1.108319429801     1.007825032230
         H           -4.696435205626     0.302531574981    -0.612803429801     1.007825032230

  Running in c1 symmetry.

  Rotational constants: A =      0.11486  B =      0.01718  C =      0.01602 [cm^-1]
  Rotational constants: A =   3443.55907  B =    515.02821  C =    480.33911 [MHz]
  Nuclear repulsion =  132.784687340994481

  Charge       = 0
  Multiplicity = 1
  Electrons    = 34
  Nalpha       = 17
  Nbeta        = 17

  ==> Algorithm <==

  SCF Algorithm Type is DF.
  DIIS enabled.
  MOM disabled.
  Fractional occupation disabled.
  Guess Type is SAD.
  Energy threshold   = 1.00e-08
  Density threshold  = 1.00e-08
  Integral threshold = 0.00e+00

  ==> Primary Basis <==

  Basis Set: JUN-CC-PVTZ
    Blend: JUN-CC-PVTZ
    Number of shells: 207
    Number of basis function: 561
    Number of Cartesian functions: 630
    Spherical Harmonics?: true
    Max angular momentum: 3

   => Loading Basis Set <=

    Name: (JUN-CC-PVTZ AUX)
    Role: JKFIT
    Keyword: DF_BASIS_SCF
    atoms 1-2, 7, 13-14, 21              entry C          line   152 file /home/r08543048/miniconda3/share/psi4/basis/jun-cc-pvtz-jkfit.gbs 
    atoms 3, 17                          entry O          line   272 file /home/r08543048/miniconda3/share/psi4/basis/jun-cc-pvtz-jkfit.gbs 
    atoms 4                              entry N          line   212 file /home/r08543048/miniconda3/share/psi4/basis/jun-cc-pvtz-jkfit.gbs 
    atoms 5-6, 8-12, 15-16, 18-20, 22-24 entry H          line    70 file /home/r08543048/miniconda3/share/psi4/basis/jun-cc-pvtz-jkfit.gbs 

  ==> Pre-Iterations <==

   -------------------------------------------------------
    Irrep   Nso     Nmo     Nalpha   Nbeta   Ndocc  Nsocc
   -------------------------------------------------------
     A        561     561       0       0       0       0
   -------------------------------------------------------
    Total     561     561      17      17      17       0
   -------------------------------------------------------

  ==> Integral Setup <==

  ==> DiskDFJK: Density-Fitted J/K Matrices <==

    J tasked:                  Yes
    K tasked:                  Yes
    wK tasked:                  No
    OpenMP threads:              1
    Integrals threads:           1
    Memory [MiB]:            15735
    Algorithm:                Core
    Integral Cache:           LOAD
    Schwarz Cutoff:          1E-12
    Fitting Condition:       1E-10

   => Auxiliary Basis Set <=

  Basis Set: (JUN-CC-PVTZ AUX)
    Blend: JUN-CC-PVTZ-JKFIT
    Number of shells: 411
    Number of basis function: 1305
    Number of Cartesian functions: 1569
    Spherical Harmonics?: true
    Max angular momentum: 4

  Minimum eigenvalue in the overlap matrix is 3.8137210159E-05.
  Using Symmetric Orthogonalization.

  SCF Guess: Superposition of Atomic Densities via on-the-fly atomic UHF.

  ==> Iterations <==

                           Total Energy        Delta E     RMS |[F,P]|

   @DF-RHF iter SAD:  -192.49213954695674   -1.92492e+02   0.00000e+00 
   @DF-RHF iter   1:  -193.00942126602683   -5.17282e-01   1.02107e-03 DIIS
   @DF-RHF iter   2:  -193.15065339019097   -1.41232e-01   5.44663e-04 DIIS
   @DF-RHF iter   3:  -193.18854425380752   -3.78909e-02   9.23626e-05 DIIS
   @DF-RHF iter   4:  -193.19067012264932   -2.12587e-03   3.40656e-05 DIIS
   @DF-RHF iter   5:  -193.19087613253882   -2.06010e-04   7.62933e-06 DIIS
   @DF-RHF iter   6:  -193.19089096503245   -1.48325e-05   1.61274e-06 DIIS
   @DF-RHF iter   7:  -193.19089196894174   -1.00391e-06   4.16984e-07 DIIS
   @DF-RHF iter   8:  -193.19089203035145   -6.14097e-08   1.40997e-07 DIIS
   @DF-RHF iter   9:  -193.19089203744056   -7.08911e-09   3.74326e-08 DIIS
   @DF-RHF iter  10:  -193.19089203802909   -5.88528e-10   8.19236e-09 DIIS
  Energy and wave function converged.


  ==> Post-Iterations <==

    Orbital Energies [Eh]
    ---------------------

    Doubly Occupied:                                                      

       1A    -20.556362     2A    -11.271349     3A    -11.221399  
       4A    -11.208498     5A     -1.352892     6A     -1.050617  
       7A     -0.918815     8A     -0.809828     9A     -0.675310  
      10A     -0.638388    11A     -0.623254    12A     -0.564541  
      13A     -0.529667    14A     -0.521418    15A     -0.484686  
      16A     -0.470717    17A     -0.436350  

    Virtual:                                                              

      18A      0.028600    19A      0.048778    20A      0.052007  
      21A      0.054035    22A      0.060907    23A      0.065861  
      24A      0.069754    25A      0.088617    26A      0.089731  
      27A      0.094626    28A      0.097261    29A      0.099039  
      30A      0.106912    31A      0.108607    32A      0.120471  
      33A      0.129741    34A      0.132381    35A      0.135283  
      36A      0.145486    37A      0.150916    38A      0.157475  
      39A      0.166961    40A      0.170699    41A      0.182612  
      42A      0.188686    43A      0.195846    44A      0.197730  
      45A      0.205941    46A      0.211589    47A      0.217074  
      48A      0.221710    49A      0.228620    50A      0.239498  
      51A      0.250382    52A      0.258977    53A      0.282647  
      54A      0.287619    55A      0.289482    56A      0.294136  
      57A      0.299100    58A      0.306510    59A      0.309295  
      60A      0.316579    61A      0.322438    62A      0.324291  
      63A      0.331649    64A      0.335941    65A      0.337493  
      66A      0.347413    67A      0.350752    68A      0.363839  
      69A      0.369474    70A      0.373135    71A      0.379489  
      72A      0.383942    73A      0.387331    74A      0.392259  
      75A      0.402453    76A      0.403756    77A      0.411897  
      78A      0.413594    79A      0.422502    80A      0.428353  
      81A      0.431275    82A      0.438596    83A      0.449096  
      84A      0.456704    85A      0.459364    86A      0.463959  
      87A      0.474674    88A      0.487877    89A      0.489346  
      90A      0.501381    91A      0.503567    92A      0.511590  
      93A      0.523973    94A      0.529398    95A      0.540081  
      96A      0.544028    97A      0.545441    98A      0.558515  
      99A      0.569125   100A      0.573500   101A      0.574639  
     102A      0.582452   103A      0.588911   104A      0.602340  
     105A      0.620756   106A      0.632273   107A      0.635417  
     108A      0.643355   109A      0.653179   110A      0.658971  
     111A      0.672327   112A      0.686318   113A      0.691412  
     114A      0.696581   115A      0.698377   116A      0.711742  
     117A      0.729129   118A      0.741533   119A      0.745785  
     120A      0.757293   121A      0.762102   122A      0.773062  
     123A      0.775086   124A      0.786736   125A      0.791938  
     126A      0.801450   127A      0.804963   128A      0.807505  
     129A      0.818170   130A      0.829262   131A      0.832233  
     132A      0.849098   133A      0.859653   134A      0.863774  
     135A      0.879194   136A      0.886852   137A      0.889518  
     138A      0.900306   139A      0.903055   140A      0.911792  
     141A      0.918911   142A      0.950623   143A      0.961946  
     144A      0.983349   145A      0.988795   146A      0.996460  
     147A      1.019264   148A      1.025542   149A      1.028631  
     150A      1.035491   151A      1.047609   152A      1.061140  
     153A      1.068964   154A      1.087561   155A      1.096839  
     156A      1.114760   157A      1.122791   158A      1.135902  
     159A      1.151175   160A      1.156391   161A      1.161641  
     162A      1.173805   163A      1.192505   164A      1.205476  
     165A      1.213578   166A      1.220235   167A      1.234266  
     168A      1.244498   169A      1.256010   170A      1.267909  
     171A      1.274655   172A      1.283323   173A      1.291350  
     174A      1.295406   175A      1.316530   176A      1.322097  
     177A      1.336514   178A      1.338956   179A      1.353129  
     180A      1.365935   181A      1.374285   182A      1.380547  
     183A      1.383877   184A      1.398077   185A      1.401081  
     186A      1.407436   187A      1.428679   188A      1.439291  
     189A      1.461552   190A      1.469084   191A      1.471025  
     192A      1.477113   193A      1.488030   194A      1.498758  
     195A      1.509081   196A      1.522536   197A      1.528670  
     198A      1.533038   199A      1.539081   200A      1.549402  
     201A      1.558486   202A      1.563412   203A      1.565709  
     204A      1.583523   205A      1.591811   206A      1.603584  
     207A      1.605966   208A      1.614072   209A      1.625117  
     210A      1.632034   211A      1.649616   212A      1.663781  
     213A      1.670463   214A      1.679484   215A      1.683478  
     216A      1.697120   217A      1.714676   218A      1.722228  
     219A      1.734236   220A      1.745618   221A      1.756344  
     222A      1.766023   223A      1.775886   224A      1.789982  
     225A      1.803682   226A      1.823843   227A      1.837163  
     228A      1.858020   229A      1.862657   230A      1.881481  
     231A      1.883259   232A      1.899826   233A      1.927901  
     234A      1.945457   235A      1.958440   236A      1.962816  
     237A      1.970872   238A      1.994878   239A      2.019209  
     240A      2.041231   241A      2.058032   242A      2.086628  
     243A      2.114316   244A      2.144030   245A      2.153811  
     246A      2.185107   247A      2.213206   248A      2.274531  
     249A      2.301092   250A      2.321892   251A      2.361910  
     252A      2.391464   253A      2.407705   254A      2.411863  
     255A      2.419912   256A      2.450606   257A      2.470102  
     258A      2.522876   259A      2.537704   260A      2.569909  
     261A      2.602832   262A      2.613509   263A      2.631687  
     264A      2.666307   265A      2.688671   266A      2.738021  
     267A      2.778805   268A      2.799312   269A      2.813244  
     270A      2.835709   271A      2.850016   272A      2.860454  
     273A      2.873042   274A      2.890623   275A      2.893849  
     276A      2.916991   277A      2.935510   278A      2.955501  
     279A      2.979673   280A      2.993715   281A      3.036574  
     282A      3.052405   283A      3.061651   284A      3.072442  
     285A      3.116042   286A      3.136844   287A      3.139941  
     288A      3.167607   289A      3.186843   290A      3.228111  
     291A      3.250920   292A      3.291042   293A      3.304219  
     294A      3.310258   295A      3.337212   296A      3.375897  
     297A      3.386106   298A      3.387322   299A      3.415862  
     300A      3.437473   301A      3.456401   302A      3.470458  
     303A      3.480803   304A      3.493805   305A      3.499964  
     306A      3.509237   307A      3.527288   308A      3.533498  
     309A      3.538589   310A      3.563284   311A      3.571310  
     312A      3.581946   313A      3.601253   314A      3.605748  
     315A      3.612122   316A      3.624298   317A      3.634037  
     318A      3.661605   319A      3.666895   320A      3.670289  
     321A      3.684708   322A      3.706862   323A      3.737527  
     324A      3.746361   325A      3.755658   326A      3.770550  
     327A      3.785068   328A      3.787210   329A      3.804479  
     330A      3.814726   331A      3.825389   332A      3.836016  
     333A      3.854774   334A      3.861960   335A      3.872007  
     336A      3.878928   337A      3.888333   338A      3.901387  
     339A      3.915175   340A      3.926050   341A      3.932459  
     342A      3.950173   343A      3.968621   344A      3.991421  
     345A      4.007168   346A      4.041852   347A      4.068810  
     348A      4.073826   349A      4.086390   350A      4.092767  
     351A      4.100047   352A      4.116113   353A      4.132937  
     354A      4.155271   355A      4.168386   356A      4.191536  
     357A      4.197838   358A      4.217624   359A      4.231752  
     360A      4.239345   361A      4.255685   362A      4.281220  
     363A      4.289939   364A      4.291379   365A      4.292569  
     366A      4.323716   367A      4.330624   368A      4.341125  
     369A      4.348645   370A      4.364415   371A      4.376183  
     372A      4.392116   373A      4.412007   374A      4.429905  
     375A      4.443011   376A      4.443384   377A      4.457534  
     378A      4.463215   379A      4.478000   380A      4.490040  
     381A      4.497296   382A      4.505973   383A      4.514550  
     384A      4.526685   385A      4.537324   386A      4.545986  
     387A      4.550956   388A      4.577792   389A      4.592362  
     390A      4.605073   391A      4.609324   392A      4.628643  
     393A      4.634832   394A      4.645477   395A      4.667804  
     396A      4.674576   397A      4.697998   398A      4.702057  
     399A      4.709605   400A      4.720123   401A      4.732260  
     402A      4.745653   403A      4.749464   404A      4.766788  
     405A      4.774277   406A      4.794847   407A      4.802151  
     408A      4.810342   409A      4.814693   410A      4.825903  
     411A      4.830310   412A      4.839366   413A      4.844227  
     414A      4.859538   415A      4.864735   416A      4.870090  
     417A      4.883621   418A      4.901787   419A      4.906714  
     420A      4.920017   421A      4.939651   422A      4.952241  
     423A      4.959432   424A      4.974250   425A      4.977788  
     426A      4.991095   427A      4.999855   428A      5.004755  
     429A      5.009940   430A      5.061142   431A      5.068536  
     432A      5.072956   433A      5.080144   434A      5.102505  
     435A      5.128699   436A      5.134793   437A      5.149821  
     438A      5.160375   439A      5.185481   440A      5.198602  
     441A      5.213741   442A      5.231380   443A      5.249915  
     444A      5.257022   445A      5.287566   446A      5.296139  
     447A      5.306042   448A      5.338200   449A      5.345468  
     450A      5.392190   451A      5.408766   452A      5.416921  
     453A      5.456716   454A      5.476924   455A      5.507570  
     456A      5.519644   457A      5.572269   458A      5.586874  
     459A      5.600723   460A      5.620165   461A      5.659851  
     462A      5.690132   463A      5.714368   464A      5.750653  
     465A      5.762525   466A      5.764887   467A      5.787536  
     468A      5.826247   469A      5.839189   470A      5.841449  
     471A      5.892273   472A      5.899407   473A      5.921121  
     474A      5.935229   475A      5.960506   476A      5.970900  
     477A      5.981702   478A      6.064569   479A      6.088949  
     480A      6.106434   481A      6.120679   482A      6.142954  
     483A      6.211039   484A      6.273152   485A      6.299936  
     486A      6.307804   487A      6.326899   488A      6.364694  
     489A      6.418436   490A      6.432927   491A      6.447819  
     492A      6.468747   493A      6.480203   494A      6.489203  
     495A      6.512372   496A      6.547592   497A      6.549765  
     498A      6.574744   499A      6.592247   500A      6.601765  
     501A      6.670764   502A      6.730390   503A      6.799870  
     504A      6.873515   505A      6.924731   506A      6.953046  
     507A      6.964204   508A      7.053166   509A      7.109423  
     510A      7.212866   511A      7.307108   512A      7.325213  
     513A      7.352432   514A      7.392071   515A      7.437043  
     516A      7.454093   517A      7.499995   518A      7.535749  
     519A      7.588203   520A      7.631086   521A      7.666386  
     522A      7.712661   523A      7.762781   524A      7.809356  
     525A      7.812541   526A      7.847166   527A      7.892095  
     528A      7.957734   529A      7.982295   530A      8.050089  
     531A      8.170124   532A      8.275534   533A      8.398628  
     534A      8.493042   535A      8.843166   536A      9.114289  
     537A      9.132732   538A      9.153921   539A      9.469870  
     540A      9.625874   541A      9.814914   542A      9.891380  
     543A      9.914467   544A     10.039970   545A     10.198749  
     546A     10.558009   547A     10.890319   548A     11.454700  
     549A     11.601649   550A     11.674835   551A     12.007148  
     552A     13.709662   553A     13.796078   554A     13.882665  
     555A     14.119261   556A     14.543052   557A     42.967565  
     558A     44.898773   559A     45.628015   560A     55.538922  
     561A     60.859737  

    Final Occupation by Irrep:
              A 
    DOCC [    17 ]

  @DF-RHF Final Energy:  -193.19089203802909

   => Energetics <=

    Nuclear Repulsion Energy =            132.7846873409944806
    One-Electron Energy =                -525.2829733975631825
    Two-Electron Energy =                 199.3073940185396111
    Total Energy =                       -193.1908920380290908

Computation Completed


Properties will be evaluated at   0.000000,   0.000000,   0.000000 [a0]

Properties computed using the SCF density matrix

  Nuclear Dipole Moment: [e a0]
     X:  -174.9496      Y:    -2.9708      Z:     5.9529

  Electronic Dipole Moment: [e a0]
     X:   174.9165      Y:     2.3515      Z:    -5.6088

  Dipole Moment: [e a0]
     X:    -0.0331      Y:    -0.6194      Z:     0.3441     Total:     0.7093

  Dipole Moment: [D]
     X:    -0.0841      Y:    -1.5743      Z:     0.8745     Total:     1.8029


*** tstop() called on r282 at Fri Sep 10 11:52:49 2021
Module time:
	user time   =      46.64 seconds =       0.78 minutes
	system time =       0.83 seconds =       0.01 minutes
	total time  =         48 seconds =       0.80 minutes
Total time:
	user time   =     205.39 seconds =       3.42 minutes
	system time =       3.66 seconds =       0.06 minutes
	total time  =        210 seconds =       3.50 minutes
  Constructing Basis Sets for SAPT...

   => Loading Basis Set <=

    Name: (JUN-CC-PVTZ AUX)
    Role: RIFIT
    Keyword: DF_BASIS_SAPT
    atoms 1-2, 7, 13-14, 21              entry C          line   132 file /home/r08543048/miniconda3/share/psi4/basis/jun-cc-pvtz-ri.gbs 
    atoms 3, 17                          entry O          line   244 file /home/r08543048/miniconda3/share/psi4/basis/jun-cc-pvtz-ri.gbs 
    atoms 4                              entry N          line   188 file /home/r08543048/miniconda3/share/psi4/basis/jun-cc-pvtz-ri.gbs 
    atoms 5-6, 8-12, 15-16, 18-20, 22-24 entry H          line    30 file /home/r08543048/miniconda3/share/psi4/basis/jun-cc-pvtz-ri.gbs 


  //>>>>>>>>>>>>>>>>>>>>>>>>>>>>>>>>>>>//
  //               SAPT0               //
  //<<<<<<<<<<<<<<<<<<<<<<<<<<<<<<<<<<<//


*** tstart() called on r282
*** at Fri Sep 10 11:52:49 2021

        SAPT0  
    Ed Hohenstein
     6 June 2009

      Orbital Information
  --------------------------
    NSO        =       561
    NMO        =       561
    NRI        =      1323
    NOCC A     =        20
    NOCC B     =        17
    FOCC A     =         0
    FOCC B     =         0
    NVIR A     =       541
    NVIR B     =       544

    Elst10,r            =    -0.030997023558 [Eh]
    Exch10              =     0.029982323805 [Eh]
    Exch10 (S^2)        =     0.029677992373 [Eh]

    Iter     Energy [mEh]          dE [mEh]         Residual      Time [s]
       1      -6.43813164       6.438131643      15.893984412             2
       2      -8.07875655       1.640624905       8.697811624             3
       3      -8.40499454       0.326237991       2.520564373             5
       4      -8.33179458      -0.073199959       0.929776280             6
       5      -8.32579902      -0.005995559       0.297647878             7
       6      -8.33283818       0.007039158       0.100946831             9
       7      -8.33334525       0.000507074       0.025784487            10
       8      -8.33283716      -0.000508088       0.007769974            12
       9      -8.33280244      -0.000034725       0.002245131            13
      10      -8.33283406       0.000031625       0.000562506            15
      11      -8.33283751       0.000003446       0.000151608            16
      12      -8.33283482      -0.000002689       0.000066384            17
      13      -8.33283527       0.000000447       0.000023631            19
      14      -8.33283547       0.000000203       0.000006609            21
      15      -8.33283542      -0.000000051       0.000001909            22
      16      -8.33283541      -0.000000011       0.000000549            24

    CHF Iterations converged


    Iter     Energy [mEh]          dE [mEh]         Residual      Time [s]
       1      -5.81054456       5.810544564      13.800094057             1
       2      -6.83050852       1.019963960       6.226732660             3
       3      -7.07360502       0.243096491       1.829905268             4
       4      -7.06052944      -0.013075579       0.641054817             6
       5      -7.03789045      -0.022638987       0.146067436             7
       6      -7.03947112       0.001580673       0.056850493             9
       7      -7.04077176       0.001300637       0.014785554            10
       8      -7.04051269      -0.000259066       0.004098372            12
       9      -7.04048168      -0.000031017       0.001068809            13
      10      -7.04049734       0.000015664       0.000347478            15
      11      -7.04049934       0.000001997       0.000086884            16
      12      -7.04049786      -0.000001478       0.000019159            18
      13      -7.04049800       0.000000136       0.000004363            19
      14      -7.04049802       0.000000028       0.000001266            20
      15      -7.04049802      -0.000000005       0.000000334            22

    CHF Iterations converged

    Ind20,r (A<-B)      =    -0.008332835411 [Eh]
    Ind20,r (B<-A)      =    -0.007040498019 [Eh]
    Ind20,r             =    -0.015373333430 [Eh]
    Exch-Ind20,r (A<-B) =     0.005064718153 [Eh]
    Exch-Ind20,r (B<-A) =     0.004216249690 [Eh]
    Exch-Ind20,r        =     0.009280967843 [Eh]
    Disp20              =    -0.011867186415 [Eh]
    Disp20 (SS)         =    -0.005933593208 [Eh]
    Disp20 (OS)         =    -0.005933593208 [Eh]
    Exch-Disp20         =     0.002293710365 [Eh]
    Exch-Disp20 (SS)    =     0.001432671145 [Eh]
    Exch-Disp20 (OS)    =     0.000861039220 [Eh]

    SAPT Results 
  --------------------------------------------------------------------------------------------------------
    Electrostatics                -30.99702356 [mEh]     -19.45092594 [kcal/mol]     -81.38267414 [kJ/mol]
      Elst10,r                    -30.99702356 [mEh]     -19.45092594 [kcal/mol]     -81.38267414 [kJ/mol]

    Exchange                       29.98232380 [mEh]      18.81419223 [kcal/mol]      78.71858030 [kJ/mol]
      Exch10                       29.98232380 [mEh]      18.81419223 [kcal/mol]      78.71858030 [kJ/mol]
      Exch10(S^2)                  29.67799237 [mEh]      18.62322138 [kcal/mol]      77.91955824 [kJ/mol]

    Induction                     -10.23448797 [mEh]      -6.42223816 [kcal/mol]     -26.87064447 [kJ/mol]
      Ind20,r                     -15.37333343 [mEh]      -9.64691237 [kcal/mol]     -40.36268136 [kJ/mol]
      Exch-Ind20,r                  9.28096784 [mEh]       5.82389525 [kcal/mol]      24.36717772 [kJ/mol]
      delta HF,r (2)               -4.14212239 [mEh]      -2.59922104 [kcal/mol]     -10.87514083 [kJ/mol]

    Dispersion                     -9.57347605 [mEh]      -6.00744692 [kcal/mol]     -25.13515791 [kJ/mol]
      Disp20                      -11.86718642 [mEh]      -7.44677190 [kcal/mol]     -31.15729364 [kJ/mol]
      Exch-Disp20                   2.29371036 [mEh]       1.43932498 [kcal/mol]       6.02213573 [kJ/mol]
      Disp20 (SS)                  -5.93359321 [mEh]      -3.72338595 [kcal/mol]     -15.57864682 [kJ/mol]
      Disp20 (OS)                  -5.93359321 [mEh]      -3.72338595 [kcal/mol]     -15.57864682 [kJ/mol]
      Exch-Disp20 (SS)              1.43267114 [mEh]       0.89901472 [kcal/mol]       3.76147757 [kJ/mol]
      Exch-Disp20 (OS)              0.86103922 [mEh]       0.54031027 [kcal/mol]       2.26065816 [kJ/mol]

  Total HF                        -11.24918773 [mEh]      -7.05897187 [kcal/mol]     -29.53473831 [kJ/mol]
  Total SAPT0                     -20.82266378 [mEh]     -13.06641879 [kcal/mol]     -54.66989621 [kJ/mol]

  Special recipe for scaled SAPT0 (see Manual):
    Electrostatics sSAPT0         -30.99702356 [mEh]     -19.45092594 [kcal/mol]     -81.38267414 [kJ/mol]
    Exchange sSAPT0                29.98232380 [mEh]      18.81419223 [kcal/mol]      78.71858030 [kJ/mol]
    Induction sSAPT0               -9.94603657 [mEh]      -6.24123218 [kcal/mol]     -26.11331542 [kJ/mol]
    Dispersion sSAPT0              -9.50218780 [mEh]      -5.96271287 [kcal/mol]     -24.94799063 [kJ/mol]
  Total sSAPT0                    -20.46292412 [mEh]     -12.84067875 [kcal/mol]     -53.72539988 [kJ/mol]
  --------------------------------------------------------------------------------------------------------

*** tstop() called on r282 at Fri Sep 10 11:56:01 2021
Module time:
	user time   =     164.23 seconds =       2.74 minutes
	system time =      26.27 seconds =       0.44 minutes
	total time  =        192 seconds =       3.20 minutes
Total time:
	user time   =     369.78 seconds =       6.16 minutes
	system time =      29.93 seconds =       0.50 minutes
	total time  =        402 seconds =       6.70 minutes

    Psi4 stopped on: Friday, 10 September 2021 11:56AM
    Psi4 wall time for execution: 0:06:41.51

*** Psi4 exiting successfully. Buy a developer a beer!
