
    -----------------------------------------------------------------------
          Psi4: An Open-Source Ab Initio Electronic Structure Package
                               Psi4 1.3.2 release

                         Git: Rev {HEAD} ecbda83 


    R. M. Parrish, L. A. Burns, D. G. A. Smith, A. C. Simmonett,
    A. E. DePrince III, E. G. Hohenstein, U. Bozkaya, A. Yu. Sokolov,
    R. Di Remigio, R. M. Richard, J. F. Gonthier, A. M. James,
    H. R. McAlexander, A. Kumar, M. Saitow, X. Wang, B. P. Pritchard,
    P. Verma, H. F. Schaefer III, K. Patkowski, R. A. King, E. F. Valeev,
    F. A. Evangelista, J. M. Turney, T. D. Crawford, and C. D. Sherrill,
    J. Chem. Theory Comput. 13(7) pp 3185--3197 (2017).
    (doi: 10.1021/acs.jctc.7b00174)


                         Additional Contributions by
    P. Kraus, H. Kruse, M. H. Lechner, M. C. Schieber, R. A. Shaw,
    A. Alenaizan, R. Galvelis, Z. L. Glick, S. Lehtola, and J. P. Misiewicz

    -----------------------------------------------------------------------


    Psi4 started on: Friday, 10 September 2021 11:32AM

    Process ID: 56556
    Host:       r282
    PSIDATADIR: /home/r08543048/miniconda3/share/psi4
    Memory:     500.0 MiB
    Threads:    1
    
  ==> Input File <==

--------------------------------------------------------------------------
# Any line starting with the # character is a comment line
#! Sample  computation

memory 22 gb

molecule Dimer {
0 1
 C -2.375447    0.238577    0.335691
 O -1.687358   -0.322683    1.184414
 N -2.056813    0.340029   -0.969221
 H -2.679875    0.802484   -1.604996
 H -1.187847   -0.069575   -1.296885
 H -3.330538    0.714736    0.592839
    
 
      
 
 
 
 
 
 
 
 
  

 
 
     

    
    
 --
0 1
 C  2.053694    0.221476    0.587331 
 C  1.737257   -1.017369   -0.233481
 H  1.516974    0.161627    1.537852
 H  3.120276    0.206097    0.825710
 O  0.354151   -1.119598   -0.563240
 H  2.269083   -0.984375   -1.185396
 H  2.062020   -1.915120    0.300432
 H -0.166169   -1.031786    0.257769 
 C  1.693587    1.514419   -0.132463 
 H  0.624604    1.560322   -0.334877
 H  1.959622    2.385223    0.465459 
 H  2.220654    1.585790   -1.085212 



 
 







units angstrom

no_reorient
symmetry c1
}

set globals{
  basis jun-cc-pvtz
}

energy('sapt0')


--------------------------------------------------------------------------

  Memory set to  20.489 GiB by Python driver.

  //>>>>>>>>>>>>>>>>>>>>>>>>>>>>>>>>>>>//
  //              Dimer HF             //
  //<<<<<<<<<<<<<<<<<<<<<<<<<<<<<<<<<<<//


*** tstart() called on r282
*** at Fri Sep 10 11:32:04 2021

   => Loading Basis Set <=

    Name: JUN-CC-PVTZ
    Role: ORBITAL
    Keyword: BASIS
    atoms 1, 7-8, 15              entry C          line   217 file /home/r08543048/miniconda3/share/psi4/basis/jun-cc-pvtz.gbs 
    atoms 2, 11                   entry O          line   305 file /home/r08543048/miniconda3/share/psi4/basis/jun-cc-pvtz.gbs 
    atoms 3                       entry N          line   261 file /home/r08543048/miniconda3/share/psi4/basis/jun-cc-pvtz.gbs 
    atoms 4-6, 9-10, 12-14, 16-18 entry H          line    36 file /home/r08543048/miniconda3/share/psi4/basis/jun-cc-pvtz.gbs 


         ---------------------------------------------------------
                                   SCF
               by Justin Turney, Rob Parrish, Andy Simmonett
                          and Daniel G. A. Smith
                              RHF Reference
                        1 Threads,  20980 MiB Core
         ---------------------------------------------------------

  ==> Geometry <==

    Molecular point group: c1
    Full point group: C1

    Geometry (in Angstrom), charge = 0, multiplicity = 1:

       Center              X                  Y                   Z               Mass       
    ------------   -----------------  -----------------  -----------------  -----------------
         C           -2.314938306687     0.270746378232     0.321328170122    12.000000000000
         O           -1.626849306687    -0.290513621768     1.170051170122    15.994914619570
         N           -1.996304306687     0.372198378232    -0.983583829878    14.003074004430
         H           -2.619366306687     0.834653378232    -1.619358829878     1.007825032230
         H           -1.127338306687    -0.037405621768    -1.311247829878     1.007825032230
         H           -3.270029306687     0.746905378232     0.578476170122     1.007825032230
         C            2.114202693313     0.253645378232     0.572968170122    12.000000000000
         C            1.797765693313    -0.985199621768    -0.247843829878    12.000000000000
         H            1.577482693313     0.193796378232     1.523489170122     1.007825032230
         H            3.180784693313     0.238266378232     0.811347170122     1.007825032230
         O            0.414659693313    -1.087428621768    -0.577602829878    15.994914619570
         H            2.329591693313    -0.952205621768    -1.199758829878     1.007825032230
         H            2.122528693313    -1.882950621768     0.286069170122     1.007825032230
         H           -0.105660306687    -0.999616621768     0.243406170122     1.007825032230
         C            1.754095693313     1.546588378232    -0.146825829878    12.000000000000
         H            0.685112693313     1.592491378232    -0.349239829878     1.007825032230
         H            2.020130693313     2.417392378232     0.451096170122     1.007825032230
         H            2.281162693313     1.617959378232    -1.099574829878     1.007825032230

  Running in c1 symmetry.

  Rotational constants: A =      0.12052  B =      0.04175  C =      0.03935 [cm^-1]
  Rotational constants: A =   3613.09128  B =   1251.49883  C =   1179.82161 [MHz]
  Nuclear repulsion =  319.584127273049035

  Charge       = 0
  Multiplicity = 1
  Electrons    = 58
  Nalpha       = 29
  Nbeta        = 29

  ==> Algorithm <==

  SCF Algorithm Type is DF.
  DIIS enabled.
  MOM disabled.
  Fractional occupation disabled.
  Guess Type is SAD.
  Energy threshold   = 1.00e-08
  Density threshold  = 1.00e-08
  Integral threshold = 0.00e+00

  ==> Primary Basis <==

  Basis Set: JUN-CC-PVTZ
    Blend: JUN-CC-PVTZ
    Number of shells: 157
    Number of basis function: 427
    Number of Cartesian functions: 480
    Spherical Harmonics?: true
    Max angular momentum: 3

   => Loading Basis Set <=

    Name: (JUN-CC-PVTZ AUX)
    Role: JKFIT
    Keyword: DF_BASIS_SCF
    atoms 1, 7-8, 15              entry C          line   152 file /home/r08543048/miniconda3/share/psi4/basis/jun-cc-pvtz-jkfit.gbs 
    atoms 2, 11                   entry O          line   272 file /home/r08543048/miniconda3/share/psi4/basis/jun-cc-pvtz-jkfit.gbs 
    atoms 3                       entry N          line   212 file /home/r08543048/miniconda3/share/psi4/basis/jun-cc-pvtz-jkfit.gbs 
    atoms 4-6, 9-10, 12-14, 16-18 entry H          line    70 file /home/r08543048/miniconda3/share/psi4/basis/jun-cc-pvtz-jkfit.gbs 

  ==> Pre-Iterations <==

   -------------------------------------------------------
    Irrep   Nso     Nmo     Nalpha   Nbeta   Ndocc  Nsocc
   -------------------------------------------------------
     A        427     427       0       0       0       0
   -------------------------------------------------------
    Total     427     427      29      29      29       0
   -------------------------------------------------------

  ==> Integral Setup <==

  ==> DiskDFJK: Density-Fitted J/K Matrices <==

    J tasked:                  Yes
    K tasked:                  Yes
    wK tasked:                  No
    OpenMP threads:              1
    Integrals threads:           1
    Memory [MiB]:            15735
    Algorithm:                Core
    Integral Cache:           SAVE
    Schwarz Cutoff:          1E-12
    Fitting Condition:       1E-10

   => Auxiliary Basis Set <=

  Basis Set: (JUN-CC-PVTZ AUX)
    Blend: JUN-CC-PVTZ-JKFIT
    Number of shells: 313
    Number of basis function: 995
    Number of Cartesian functions: 1197
    Spherical Harmonics?: true
    Max angular momentum: 4

  Minimum eigenvalue in the overlap matrix is 7.9301932963E-05.
  Using Symmetric Orthogonalization.

  SCF Guess: Superposition of Atomic Densities via on-the-fly atomic UHF.

  ==> Iterations <==

                           Total Energy        Delta E     RMS |[F,P]|

   @DF-RHF iter SAD:  -360.93102776716478   -3.60931e+02   0.00000e+00 
   @DF-RHF iter   1:  -361.92510923186506   -9.94081e-01   1.75628e-03 DIIS
   @DF-RHF iter   2:  -362.13330636382960   -2.08197e-01   1.00000e-03 DIIS
   @DF-RHF iter   3:  -362.19982841639990   -6.65221e-02   1.80886e-04 DIIS
   @DF-RHF iter   4:  -362.20330472034340   -3.47630e-03   7.97538e-05 DIIS
   @DF-RHF iter   5:  -362.20392034680719   -6.15626e-04   1.60325e-05 DIIS
   @DF-RHF iter   6:  -362.20396574779221   -4.54010e-05   6.59973e-06 DIIS
   @DF-RHF iter   7:  -362.20397347676891   -7.72898e-06   2.57898e-06 DIIS
   @DF-RHF iter   8:  -362.20397511565460   -1.63889e-06   1.05671e-06 DIIS
   @DF-RHF iter   9:  -362.20397541183456   -2.96180e-07   3.48205e-07 DIIS
   @DF-RHF iter  10:  -362.20397544429449   -3.24599e-08   1.19995e-07 DIIS
   @DF-RHF iter  11:  -362.20397544721231   -2.91783e-09   3.71992e-08 DIIS
   @DF-RHF iter  12:  -362.20397544749022   -2.77907e-10   1.16536e-08 DIIS
   @DF-RHF iter  13:  -362.20397544751518   -2.49543e-11   2.81946e-09 DIIS
  Energy and wave function converged.


  ==> Post-Iterations <==

    Orbital Energies [Eh]
    ---------------------

    Doubly Occupied:                                                      

       1A    -20.539776     2A    -20.536495     3A    -15.593039  
       4A    -11.363850     5A    -11.263174     6A    -11.213817  
       7A    -11.206410     8A     -1.389785     9A     -1.343224  
      10A     -1.222966    11A     -1.044302    12A     -0.915758  
      13A     -0.855177    14A     -0.804995    15A     -0.755291  
      16A     -0.690020    17A     -0.655426    18A     -0.631378  
      19A     -0.626336    20A     -0.610219    21A     -0.576366  
      22A     -0.558254    23A     -0.529270    24A     -0.510600  
      25A     -0.479926    26A     -0.465799    27A     -0.444539  
      28A     -0.427043    29A     -0.424326  

    Virtual:                                                              

      30A      0.047389    31A      0.058861    32A      0.061588  
      33A      0.063136    34A      0.076975    35A      0.085167  
      36A      0.085423    37A      0.097066    38A      0.101304  
      39A      0.116549    40A      0.117443    41A      0.125314  
      42A      0.134778    43A      0.140721    44A      0.154283  
      45A      0.158000    46A      0.176411    47A      0.184431  
      48A      0.194171    49A      0.207876    50A      0.225178  
      51A      0.228069    52A      0.241375    53A      0.243077  
      54A      0.247211    55A      0.260479    56A      0.269577  
      57A      0.272715    58A      0.281503    59A      0.290585  
      60A      0.294094    61A      0.297436    62A      0.315562  
      63A      0.319438    64A      0.329787    65A      0.333955  
      66A      0.334801    67A      0.348415    68A      0.350176  
      69A      0.354681    70A      0.359045    71A      0.374477  
      72A      0.382772    73A      0.392571    74A      0.403706  
      75A      0.410022    76A      0.416931    77A      0.432789  
      78A      0.435623    79A      0.447078    80A      0.455601  
      81A      0.468243    82A      0.481768    83A      0.501958  
      84A      0.505213    85A      0.512073    86A      0.515310  
      87A      0.523310    88A      0.540317    89A      0.547616  
      90A      0.553593    91A      0.563357    92A      0.568137  
      93A      0.582156    94A      0.592133    95A      0.594851  
      96A      0.604498    97A      0.616061    98A      0.624769  
      99A      0.634461   100A      0.654781   101A      0.661594  
     102A      0.673872   103A      0.686705   104A      0.692568  
     105A      0.726357   106A      0.734257   107A      0.747932  
     108A      0.754939   109A      0.769240   110A      0.775428  
     111A      0.783561   112A      0.795181   113A      0.811853  
     114A      0.819685   115A      0.822199   116A      0.830783  
     117A      0.835522   118A      0.857802   119A      0.868336  
     120A      0.871969   121A      0.880528   122A      0.887547  
     123A      0.910422   124A      0.928712   125A      0.944422  
     126A      0.948386   127A      0.955001   128A      0.978136  
     129A      0.982136   130A      1.009178   131A      1.016465  
     132A      1.021274   133A      1.029496   134A      1.046201  
     135A      1.063833   136A      1.064327   137A      1.079157  
     138A      1.110619   139A      1.119546   140A      1.138218  
     141A      1.152921   142A      1.173963   143A      1.190431  
     144A      1.212828   145A      1.227659   146A      1.240251  
     147A      1.249526   148A      1.264748   149A      1.266790  
     150A      1.282299   151A      1.293491   152A      1.315014  
     153A      1.327557   154A      1.340694   155A      1.350553  
     156A      1.363143   157A      1.377646   158A      1.382573  
     159A      1.386174   160A      1.393310   161A      1.404293  
     162A      1.425141   163A      1.430797   164A      1.439332  
     165A      1.463674   166A      1.485209   167A      1.496926  
     168A      1.516037   169A      1.530600   170A      1.541726  
     171A      1.547112   172A      1.555903   173A      1.581912  
     174A      1.586474   175A      1.618485   176A      1.620589  
     177A      1.639756   178A      1.646268   179A      1.660638  
     180A      1.667636   181A      1.686378   182A      1.694973  
     183A      1.707513   184A      1.721018   185A      1.747102  
     186A      1.763978   187A      1.782469   188A      1.795625  
     189A      1.821986   190A      1.834108   191A      1.858323  
     192A      1.867312   193A      1.890112   194A      1.907834  
     195A      1.927170   196A      1.944476   197A      1.966709  
     198A      1.985262   199A      2.049500   200A      2.062038  
     201A      2.119936   202A      2.166586   203A      2.197716  
     204A      2.245212   205A      2.301621   206A      2.336675  
     207A      2.359455   208A      2.403450   209A      2.422926  
     210A      2.463151   211A      2.491439   212A      2.529782  
     213A      2.569531   214A      2.589744   215A      2.683976  
     216A      2.706817   217A      2.750544   218A      2.821918  
     219A      2.834009   220A      2.835639   221A      2.858972  
     222A      2.883038   223A      2.892834   224A      2.907613  
     225A      2.944943   226A      2.978994   227A      2.985614  
     228A      3.033325   229A      3.059968   230A      3.088009  
     231A      3.109300   232A      3.123270   233A      3.145292  
     234A      3.150488   235A      3.165863   236A      3.178024  
     237A      3.182981   238A      3.197239   239A      3.237104  
     240A      3.274280   241A      3.292182   242A      3.304748  
     243A      3.317668   244A      3.342315   245A      3.363968  
     246A      3.403614   247A      3.405518   248A      3.411024  
     249A      3.425121   250A      3.429608   251A      3.436635  
     252A      3.451460   253A      3.469947   254A      3.473035  
     255A      3.478598   256A      3.493652   257A      3.498350  
     258A      3.505264   259A      3.521609   260A      3.541272  
     261A      3.545880   262A      3.557225   263A      3.568562  
     264A      3.574896   265A      3.588006   266A      3.618281  
     267A      3.636335   268A      3.643909   269A      3.659840  
     270A      3.688684   271A      3.706036   272A      3.719740  
     273A      3.735460   274A      3.762483   275A      3.772794  
     276A      3.789594   277A      3.798685   278A      3.824374  
     279A      3.827639   280A      3.846555   281A      3.868325  
     282A      3.881568   283A      3.885880   284A      3.914047  
     285A      3.934693   286A      3.941250   287A      3.960342  
     288A      3.962654   289A      3.982687   290A      3.987602  
     291A      4.006219   292A      4.032638   293A      4.093343  
     294A      4.100793   295A      4.118339   296A      4.160176  
     297A      4.169995   298A      4.184743   299A      4.196891  
     300A      4.216529   301A      4.233473   302A      4.256571  
     303A      4.271844   304A      4.274442   305A      4.276001  
     306A      4.297712   307A      4.321076   308A      4.330290  
     309A      4.348305   310A      4.365031   311A      4.369083  
     312A      4.389690   313A      4.416667   314A      4.424395  
     315A      4.427080   316A      4.447655   317A      4.459843  
     318A      4.466834   319A      4.480251   320A      4.496814  
     321A      4.502897   322A      4.528497   323A      4.540762  
     324A      4.566987   325A      4.578484   326A      4.595229  
     327A      4.598536   328A      4.622177   329A      4.629709  
     330A      4.654298   331A      4.673570   332A      4.692230  
     333A      4.712236   334A      4.737689   335A      4.743071  
     336A      4.771111   337A      4.797351   338A      4.815561  
     339A      4.853529   340A      4.869530   341A      4.881798  
     342A      4.898416   343A      4.928999   344A      4.996484  
     345A      5.004508   346A      5.043526   347A      5.061942  
     348A      5.095236   349A      5.138537   350A      5.176747  
     351A      5.192938   352A      5.202161   353A      5.212884  
     354A      5.223767   355A      5.247706   356A      5.255560  
     357A      5.275691   358A      5.298144   359A      5.305353  
     360A      5.320766   361A      5.343681   362A      5.396375  
     363A      5.416494   364A      5.471536   365A      5.502401  
     366A      5.513964   367A      5.522410   368A      5.531248  
     369A      5.564244   370A      5.587440   371A      5.623487  
     372A      5.677417   373A      5.729362   374A      5.761753  
     375A      5.780971   376A      5.793349   377A      5.819223  
     378A      5.832266   379A      5.842133   380A      5.905259  
     381A      5.913171   382A      5.938338   383A      5.953580  
     384A      5.972555   385A      5.988839   386A      6.020784  
     387A      6.034098   388A      6.051061   389A      6.103866  
     390A      6.131974   391A      6.151980   392A      6.243808  
     393A      6.300644   394A      6.375243   395A      6.446852  
     396A      6.491655   397A      6.531420   398A      6.547852  
     399A      6.579582   400A      6.621879   401A      6.671729  
     402A      6.760835   403A      6.946380   404A      6.963926  
     405A      7.047176   406A      7.159998   407A      7.206575  
     408A      7.247335   409A      7.341777   410A      7.351410  
     411A      7.412748   412A      7.447150   413A      7.468981  
     414A      7.563353   415A      7.629464   416A      7.713572  
     417A      7.753285   418A      7.821535   419A      7.933405  
     420A      8.194419   421A     12.698796   422A     13.694994  
     423A     13.891357   424A     14.074045   425A     14.149260  
     426A     14.647105   427A     15.786381  

    Final Occupation by Irrep:
              A 
    DOCC [    29 ]

  @DF-RHF Final Energy:  -362.20397544751518

   => Energetics <=

    Nuclear Repulsion Energy =            319.5841272730490346
    One-Electron Energy =               -1128.2210862560227724
    Two-Electron Energy =                 446.4329835354585612
    Total Energy =                       -362.2039754475151767

Computation Completed


Properties will be evaluated at   0.000000,   0.000000,   0.000000 [a0]

Properties computed using the SCF density matrix

  Nuclear Dipole Moment: [e a0]
     X:     6.6320      Y:     3.5259      Z:    -1.5742

  Electronic Dipole Moment: [e a0]
     X:    -7.0714      Y:    -2.7280      Z:     0.8316

  Dipole Moment: [e a0]
     X:    -0.4394      Y:     0.7979      Z:    -0.7426     Total:     1.1752

  Dipole Moment: [D]
     X:    -1.1168      Y:     2.0280      Z:    -1.8876     Total:     2.9871


*** tstop() called on r282 at Fri Sep 10 11:32:45 2021
Module time:
	user time   =      39.83 seconds =       0.66 minutes
	system time =       0.96 seconds =       0.02 minutes
	total time  =         41 seconds =       0.68 minutes
Total time:
	user time   =      39.83 seconds =       0.66 minutes
	system time =       0.96 seconds =       0.02 minutes
	total time  =         41 seconds =       0.68 minutes

  //>>>>>>>>>>>>>>>>>>>>>>>>>>>>>>>>>>>//
  //            Monomer A HF           //
  //<<<<<<<<<<<<<<<<<<<<<<<<<<<<<<<<<<<//


*** tstart() called on r282
*** at Fri Sep 10 11:32:45 2021

   => Loading Basis Set <=

    Name: JUN-CC-PVTZ
    Role: ORBITAL
    Keyword: BASIS
    atoms 1, 7-8, 15              entry C          line   217 file /home/r08543048/miniconda3/share/psi4/basis/jun-cc-pvtz.gbs 
    atoms 2, 11                   entry O          line   305 file /home/r08543048/miniconda3/share/psi4/basis/jun-cc-pvtz.gbs 
    atoms 3                       entry N          line   261 file /home/r08543048/miniconda3/share/psi4/basis/jun-cc-pvtz.gbs 
    atoms 4-6, 9-10, 12-14, 16-18 entry H          line    36 file /home/r08543048/miniconda3/share/psi4/basis/jun-cc-pvtz.gbs 


         ---------------------------------------------------------
                                   SCF
               by Justin Turney, Rob Parrish, Andy Simmonett
                          and Daniel G. A. Smith
                              RHF Reference
                        1 Threads,  20980 MiB Core
         ---------------------------------------------------------

  ==> Geometry <==

    Molecular point group: c1
    Full point group: C1

    Geometry (in Angstrom), charge = 0, multiplicity = 1:

       Center              X                  Y                   Z               Mass       
    ------------   -----------------  -----------------  -----------------  -----------------
         C           -2.314938306687     0.270746378232     0.321328170122    12.000000000000
         O           -1.626849306687    -0.290513621768     1.170051170122    15.994914619570
         N           -1.996304306687     0.372198378232    -0.983583829878    14.003074004430
         H           -2.619366306687     0.834653378232    -1.619358829878     1.007825032230
         H           -1.127338306687    -0.037405621768    -1.311247829878     1.007825032230
         H           -3.270029306687     0.746905378232     0.578476170122     1.007825032230
      Gh(C)           2.114202693313     0.253645378232     0.572968170122    12.000000000000
      Gh(C)           1.797765693313    -0.985199621768    -0.247843829878    12.000000000000
      Gh(H)           1.577482693313     0.193796378232     1.523489170122     1.007825032230
      Gh(H)           3.180784693313     0.238266378232     0.811347170122     1.007825032230
      Gh(O)           0.414659693313    -1.087428621768    -0.577602829878    15.994914619570
      Gh(H)           2.329591693313    -0.952205621768    -1.199758829878     1.007825032230
      Gh(H)           2.122528693313    -1.882950621768     0.286069170122     1.007825032230
      Gh(H)          -0.105660306687    -0.999616621768     0.243406170122     1.007825032230
      Gh(C)           1.754095693313     1.546588378232    -0.146825829878    12.000000000000
      Gh(H)           0.685112693313     1.592491378232    -0.349239829878     1.007825032230
      Gh(H)           2.020130693313     2.417392378232     0.451096170122     1.007825032230
      Gh(H)           2.281162693313     1.617959378232    -1.099574829878     1.007825032230

  Running in c1 symmetry.

  Rotational constants: A =      0.12052  B =      0.04175  C =      0.03935 [cm^-1]
  Rotational constants: A =   3613.09128  B =   1251.49883  C =   1179.82161 [MHz]
  Nuclear repulsion =   71.101219112446515

  Charge       = 0
  Multiplicity = 1
  Electrons    = 24
  Nalpha       = 12
  Nbeta        = 12

  ==> Algorithm <==

  SCF Algorithm Type is DF.
  DIIS enabled.
  MOM disabled.
  Fractional occupation disabled.
  Guess Type is SAD.
  Energy threshold   = 1.00e-08
  Density threshold  = 1.00e-08
  Integral threshold = 0.00e+00

  ==> Primary Basis <==

  Basis Set: JUN-CC-PVTZ
    Blend: JUN-CC-PVTZ
    Number of shells: 157
    Number of basis function: 427
    Number of Cartesian functions: 480
    Spherical Harmonics?: true
    Max angular momentum: 3

   => Loading Basis Set <=

    Name: (JUN-CC-PVTZ AUX)
    Role: JKFIT
    Keyword: DF_BASIS_SCF
    atoms 1, 7-8, 15              entry C          line   152 file /home/r08543048/miniconda3/share/psi4/basis/jun-cc-pvtz-jkfit.gbs 
    atoms 2, 11                   entry O          line   272 file /home/r08543048/miniconda3/share/psi4/basis/jun-cc-pvtz-jkfit.gbs 
    atoms 3                       entry N          line   212 file /home/r08543048/miniconda3/share/psi4/basis/jun-cc-pvtz-jkfit.gbs 
    atoms 4-6, 9-10, 12-14, 16-18 entry H          line    70 file /home/r08543048/miniconda3/share/psi4/basis/jun-cc-pvtz-jkfit.gbs 

  ==> Pre-Iterations <==

   -------------------------------------------------------
    Irrep   Nso     Nmo     Nalpha   Nbeta   Ndocc  Nsocc
   -------------------------------------------------------
     A        427     427       0       0       0       0
   -------------------------------------------------------
    Total     427     427      12      12      12       0
   -------------------------------------------------------

  ==> Integral Setup <==

  ==> DiskDFJK: Density-Fitted J/K Matrices <==

    J tasked:                  Yes
    K tasked:                  Yes
    wK tasked:                  No
    OpenMP threads:              1
    Integrals threads:           1
    Memory [MiB]:            15735
    Algorithm:                Core
    Integral Cache:           LOAD
    Schwarz Cutoff:          1E-12
    Fitting Condition:       1E-10

   => Auxiliary Basis Set <=

  Basis Set: (JUN-CC-PVTZ AUX)
    Blend: JUN-CC-PVTZ-JKFIT
    Number of shells: 313
    Number of basis function: 995
    Number of Cartesian functions: 1197
    Spherical Harmonics?: true
    Max angular momentum: 4

  Minimum eigenvalue in the overlap matrix is 7.9301932963E-05.
  Using Symmetric Orthogonalization.

  SCF Guess: Superposition of Atomic Densities via on-the-fly atomic UHF.

  ==> Iterations <==

                           Total Energy        Delta E     RMS |[F,P]|

   @DF-RHF iter SAD:  -168.21316968000676   -1.68213e+02   0.00000e+00 
   @DF-RHF iter   1:  -168.87955940533016   -6.66390e-01   1.25298e-03 DIIS
   @DF-RHF iter   2:  -168.95557017886716   -7.60108e-02   8.72830e-04 DIIS
   @DF-RHF iter   3:  -169.00105411476463   -4.54839e-02   1.22611e-04 DIIS
   @DF-RHF iter   4:  -169.00250663281207   -1.45252e-03   5.24260e-05 DIIS
   @DF-RHF iter   5:  -169.00280692475982   -3.00292e-04   1.07889e-05 DIIS
   @DF-RHF iter   6:  -169.00283821619894   -3.12914e-05   5.17553e-06 DIIS
   @DF-RHF iter   7:  -169.00284483684294   -6.62064e-06   2.09177e-06 DIIS
   @DF-RHF iter   8:  -169.00284598747385   -1.15063e-06   6.24400e-07 DIIS
   @DF-RHF iter   9:  -169.00284609314730   -1.05673e-07   1.71212e-07 DIIS
   @DF-RHF iter  10:  -169.00284610134810   -8.20080e-09   4.18950e-08 DIIS
   @DF-RHF iter  11:  -169.00284610175058   -4.02480e-10   7.34494e-09 DIIS
  Energy and wave function converged.


  ==> Post-Iterations <==

    Orbital Energies [Eh]
    ---------------------

    Doubly Occupied:                                                      

       1A    -20.528036     2A    -15.601142     3A    -11.357506  
       4A     -1.377079     5A     -1.225545     6A     -0.854504  
       7A     -0.756763     8A     -0.676582     9A     -0.604468  
      10A     -0.570981    11A     -0.436059    12A     -0.421890  

    Virtual:                                                              

      13A      0.032554    14A      0.048149    15A      0.050868  
      16A      0.060732    17A      0.075125    18A      0.080339  
      19A      0.084799    20A      0.090831    21A      0.095623  
      22A      0.111835    23A      0.114483    24A      0.119157  
      25A      0.123869    26A      0.136634    27A      0.141885  
      28A      0.149752    29A      0.155696    30A      0.168528  
      31A      0.177956    32A      0.184978    33A      0.200538  
      34A      0.215657    35A      0.216914    36A      0.227773  
      37A      0.242951    38A      0.247175    39A      0.251709  
      40A      0.253172    41A      0.265893    42A      0.281593  
      43A      0.286880    44A      0.295333    45A      0.297610  
      46A      0.308149    47A      0.318533    48A      0.329564  
      49A      0.332386    50A      0.335433    51A      0.356520  
      52A      0.370326    53A      0.381907    54A      0.385110  
      55A      0.390753    56A      0.404053    57A      0.405925  
      58A      0.416579    59A      0.425118    60A      0.448919  
      61A      0.451685    62A      0.458063    63A      0.467121  
      64A      0.472253    65A      0.483497    66A      0.485755  
      67A      0.498703    68A      0.504130    69A      0.517681  
      70A      0.524519    71A      0.543980    72A      0.547886  
      73A      0.563128    74A      0.568704    75A      0.576544  
      76A      0.584078    77A      0.597220    78A      0.600635  
      79A      0.610151    80A      0.611758    81A      0.622328  
      82A      0.625776    83A      0.626897    84A      0.631092  
      85A      0.645138    86A      0.660161    87A      0.679915  
      88A      0.701439    89A      0.710162    90A      0.727116  
      91A      0.732682    92A      0.769531    93A      0.777363  
      94A      0.787128    95A      0.798436    96A      0.827690  
      97A      0.847933    98A      0.861848    99A      0.868922  
     100A      0.877589   101A      0.893700   102A      0.917416  
     103A      0.957016   104A      0.961852   105A      0.973432  
     106A      0.989340   107A      1.001257   108A      1.024345  
     109A      1.034240   110A      1.050382   111A      1.063861  
     112A      1.068738   113A      1.080680   114A      1.088964  
     115A      1.104700   116A      1.124368   117A      1.131219  
     118A      1.145298   119A      1.159888   120A      1.169336  
     121A      1.186885   122A      1.207220   123A      1.216425  
     124A      1.222968   125A      1.233848   126A      1.249977  
     127A      1.256848   128A      1.259558   129A      1.264737  
     130A      1.274588   131A      1.289064   132A      1.296372  
     133A      1.312767   134A      1.322205   135A      1.325675  
     136A      1.342317   137A      1.347421   138A      1.362976  
     139A      1.369914   140A      1.383184   141A      1.390220  
     142A      1.398855   143A      1.404186   144A      1.424531  
     145A      1.438384   146A      1.455420   147A      1.463199  
     148A      1.472765   149A      1.489676   150A      1.511647  
     151A      1.531604   152A      1.541584   153A      1.559598  
     154A      1.583006   155A      1.594212   156A      1.616312  
     157A      1.624639   158A      1.630847   159A      1.649489  
     160A      1.667393   161A      1.687279   162A      1.698603  
     163A      1.720642   164A      1.723375   165A      1.761562  
     166A      1.783490   167A      1.797986   168A      1.808121  
     169A      1.817956   170A      1.847958   171A      1.852158  
     172A      1.870183   173A      1.897548   174A      1.907139  
     175A      1.919471   176A      1.951275   177A      1.964695  
     178A      2.009096   179A      2.040536   180A      2.073703  
     181A      2.104145   182A      2.133278   183A      2.144099  
     184A      2.182193   185A      2.203193   186A      2.217721  
     187A      2.224891   188A      2.256682   189A      2.293050  
     190A      2.348280   191A      2.364592   192A      2.377662  
     193A      2.403917   194A      2.408698   195A      2.438719  
     196A      2.489354   197A      2.494789   198A      2.533617  
     199A      2.549054   200A      2.583751   201A      2.592297  
     202A      2.622212   203A      2.683708   204A      2.709345  
     205A      2.746955   206A      2.825562   207A      2.869859  
     208A      2.877268   209A      2.942439   210A      2.988627  
     211A      3.069448   212A      3.092911   213A      3.142336  
     214A      3.168596   215A      3.182139   216A      3.213114  
     217A      3.297854   218A      3.364627   219A      3.410936  
     220A      3.417396   221A      3.445514   222A      3.450038  
     223A      3.484743   224A      3.489611   225A      3.500173  
     226A      3.515554   227A      3.545651   228A      3.572387  
     229A      3.579579   230A      3.588486   231A      3.607522  
     232A      3.616595   233A      3.626751   234A      3.638541  
     235A      3.652606   236A      3.665449   237A      3.709620  
     238A      3.725092   239A      3.745519   240A      3.765555  
     241A      3.769395   242A      3.784082   243A      3.819610  
     244A      3.832382   245A      3.848440   246A      3.851769  
     247A      3.870359   248A      3.876149   249A      3.910572  
     250A      3.917038   251A      3.925736   252A      3.948870  
     253A      3.953772   254A      3.971999   255A      3.973568  
     256A      3.994792   257A      4.044663   258A      4.074499  
     259A      4.109459   260A      4.121718   261A      4.123783  
     262A      4.168182   263A      4.184647   264A      4.203275  
     265A      4.229682   266A      4.241754   267A      4.253135  
     268A      4.268958   269A      4.277915   270A      4.310227  
     271A      4.317356   272A      4.365123   273A      4.373282  
     274A      4.380809   275A      4.401132   276A      4.427274  
     277A      4.431036   278A      4.453469   279A      4.478418  
     280A      4.498908   281A      4.504489   282A      4.508250  
     283A      4.521501   284A      4.525006   285A      4.561832  
     286A      4.570110   287A      4.607388   288A      4.611993  
     289A      4.627717   290A      4.631931   291A      4.648672  
     292A      4.663136   293A      4.672168   294A      4.712615  
     295A      4.715607   296A      4.741305   297A      4.751284  
     298A      4.759391   299A      4.765319   300A      4.778292  
     301A      4.788934   302A      4.802534   303A      4.813038  
     304A      4.826454   305A      4.846906   306A      4.858983  
     307A      4.868381   308A      4.898550   309A      4.907678  
     310A      4.918413   311A      4.921852   312A      4.944260  
     313A      4.949935   314A      4.955339   315A      4.977133  
     316A      4.990407   317A      5.005676   318A      5.013795  
     319A      5.041746   320A      5.050744   321A      5.071053  
     322A      5.080326   323A      5.106179   324A      5.125938  
     325A      5.150063   326A      5.161567   327A      5.180246  
     328A      5.192715   329A      5.211611   330A      5.211882  
     331A      5.236268   332A      5.278657   333A      5.293201  
     334A      5.304945   335A      5.328793   336A      5.339975  
     337A      5.401751   338A      5.439358   339A      5.489819  
     340A      5.503778   341A      5.531739   342A      5.562591  
     343A      5.589704   344A      5.606819   345A      5.624512  
     346A      5.699919   347A      5.736668   348A      5.761007  
     349A      5.805658   350A      5.842453   351A      5.870062  
     352A      5.891385   353A      5.923870   354A      5.958198  
     355A      5.979781   356A      5.982551   357A      6.021398  
     358A      6.043808   359A      6.061264   360A      6.120082  
     361A      6.140485   362A      6.174521   363A      6.195087  
     364A      6.250307   365A      6.253178   366A      6.308816  
     367A      6.349470   368A      6.375923   369A      6.390594  
     370A      6.407329   371A      6.464023   372A      6.483850  
     373A      6.580736   374A      6.623828   375A      6.662810  
     376A      6.686899   377A      6.771387   378A      6.867857  
     379A      6.946345   380A      6.955262   381A      7.006803  
     382A      7.130976   383A      7.175126   384A      7.255292  
     385A      7.298216   386A      7.309177   387A      7.385845  
     388A      7.448350   389A      7.457855   390A      7.500621  
     391A      7.541937   392A      7.573896   393A      7.607935  
     394A      7.627307   395A      7.692243   396A      7.733376  
     397A      7.746393   398A      7.775329   399A      7.818469  
     400A      7.845415   401A      7.866088   402A      7.940698  
     403A      7.991419   404A      8.075249   405A      8.216043  
     406A      8.359962   407A      8.482119   408A      8.593361  
     409A      9.548751   410A      9.636220   411A      9.781639  
     412A      9.887987   413A      9.925134   414A     10.078371  
     415A     10.168363   416A     10.427300   417A     11.215639  
     418A     11.688515   419A     12.712539   420A     12.814740  
     421A     13.638888   422A     14.129724   423A     15.780360  
     424A     44.063620   425A     44.867298   426A     45.707881  
     427A     61.400580  

    Final Occupation by Irrep:
              A 
    DOCC [    12 ]

  @DF-RHF Final Energy:  -169.00284610175058

   => Energetics <=

    Nuclear Repulsion Energy =             71.1012191124465147
    One-Electron Energy =                -371.3870171615022855
    Two-Electron Energy =                 131.2829519473051789
    Total Energy =                       -169.0028461017505776

Computation Completed


Properties will be evaluated at   0.000000,   0.000000,   0.000000 [a0]

Properties computed using the SCF density matrix

  Nuclear Dipole Moment: [e a0]
     X:   -90.5090      Y:     6.5194      Z:     3.8761

  Electronic Dipole Moment: [e a0]
     X:    89.8701      Y:    -5.8614      Z:    -5.3566

  Dipole Moment: [e a0]
     X:    -0.6389      Y:     0.6580      Z:    -1.4805     Total:     1.7416

  Dipole Moment: [D]
     X:    -1.6238      Y:     1.6725      Z:    -3.7631     Total:     4.4266


*** tstop() called on r282 at Fri Sep 10 11:33:05 2021
Module time:
	user time   =      19.34 seconds =       0.32 minutes
	system time =       0.42 seconds =       0.01 minutes
	total time  =         20 seconds =       0.33 minutes
Total time:
	user time   =      59.17 seconds =       0.99 minutes
	system time =       1.38 seconds =       0.02 minutes
	total time  =         61 seconds =       1.02 minutes

  //>>>>>>>>>>>>>>>>>>>>>>>>>>>>>>>>>>>//
  //            Monomer B HF           //
  //<<<<<<<<<<<<<<<<<<<<<<<<<<<<<<<<<<<//


*** tstart() called on r282
*** at Fri Sep 10 11:33:05 2021

   => Loading Basis Set <=

    Name: JUN-CC-PVTZ
    Role: ORBITAL
    Keyword: BASIS
    atoms 1, 7-8, 15              entry C          line   217 file /home/r08543048/miniconda3/share/psi4/basis/jun-cc-pvtz.gbs 
    atoms 2, 11                   entry O          line   305 file /home/r08543048/miniconda3/share/psi4/basis/jun-cc-pvtz.gbs 
    atoms 3                       entry N          line   261 file /home/r08543048/miniconda3/share/psi4/basis/jun-cc-pvtz.gbs 
    atoms 4-6, 9-10, 12-14, 16-18 entry H          line    36 file /home/r08543048/miniconda3/share/psi4/basis/jun-cc-pvtz.gbs 


         ---------------------------------------------------------
                                   SCF
               by Justin Turney, Rob Parrish, Andy Simmonett
                          and Daniel G. A. Smith
                              RHF Reference
                        1 Threads,  20980 MiB Core
         ---------------------------------------------------------

  ==> Geometry <==

    Molecular point group: c1
    Full point group: C1

    Geometry (in Angstrom), charge = 0, multiplicity = 1:

       Center              X                  Y                   Z               Mass       
    ------------   -----------------  -----------------  -----------------  -----------------
      Gh(C)          -2.314938306687     0.270746378232     0.321328170122    12.000000000000
      Gh(O)          -1.626849306687    -0.290513621768     1.170051170122    15.994914619570
      Gh(N)          -1.996304306687     0.372198378232    -0.983583829878    14.003074004430
      Gh(H)          -2.619366306687     0.834653378232    -1.619358829878     1.007825032230
      Gh(H)          -1.127338306687    -0.037405621768    -1.311247829878     1.007825032230
      Gh(H)          -3.270029306687     0.746905378232     0.578476170122     1.007825032230
         C            2.114202693313     0.253645378232     0.572968170122    12.000000000000
         C            1.797765693313    -0.985199621768    -0.247843829878    12.000000000000
         H            1.577482693313     0.193796378232     1.523489170122     1.007825032230
         H            3.180784693313     0.238266378232     0.811347170122     1.007825032230
         O            0.414659693313    -1.087428621768    -0.577602829878    15.994914619570
         H            2.329591693313    -0.952205621768    -1.199758829878     1.007825032230
         H            2.122528693313    -1.882950621768     0.286069170122     1.007825032230
         H           -0.105660306687    -0.999616621768     0.243406170122     1.007825032230
         C            1.754095693313     1.546588378232    -0.146825829878    12.000000000000
         H            0.685112693313     1.592491378232    -0.349239829878     1.007825032230
         H            2.020130693313     2.417392378232     0.451096170122     1.007825032230
         H            2.281162693313     1.617959378232    -1.099574829878     1.007825032230

  Running in c1 symmetry.

  Rotational constants: A =      0.12052  B =      0.04175  C =      0.03935 [cm^-1]
  Rotational constants: A =   3613.09128  B =   1251.49883  C =   1179.82161 [MHz]
  Nuclear repulsion =  132.816224982729437

  Charge       = 0
  Multiplicity = 1
  Electrons    = 34
  Nalpha       = 17
  Nbeta        = 17

  ==> Algorithm <==

  SCF Algorithm Type is DF.
  DIIS enabled.
  MOM disabled.
  Fractional occupation disabled.
  Guess Type is SAD.
  Energy threshold   = 1.00e-08
  Density threshold  = 1.00e-08
  Integral threshold = 0.00e+00

  ==> Primary Basis <==

  Basis Set: JUN-CC-PVTZ
    Blend: JUN-CC-PVTZ
    Number of shells: 157
    Number of basis function: 427
    Number of Cartesian functions: 480
    Spherical Harmonics?: true
    Max angular momentum: 3

   => Loading Basis Set <=

    Name: (JUN-CC-PVTZ AUX)
    Role: JKFIT
    Keyword: DF_BASIS_SCF
    atoms 1, 7-8, 15              entry C          line   152 file /home/r08543048/miniconda3/share/psi4/basis/jun-cc-pvtz-jkfit.gbs 
    atoms 2, 11                   entry O          line   272 file /home/r08543048/miniconda3/share/psi4/basis/jun-cc-pvtz-jkfit.gbs 
    atoms 3                       entry N          line   212 file /home/r08543048/miniconda3/share/psi4/basis/jun-cc-pvtz-jkfit.gbs 
    atoms 4-6, 9-10, 12-14, 16-18 entry H          line    70 file /home/r08543048/miniconda3/share/psi4/basis/jun-cc-pvtz-jkfit.gbs 

  ==> Pre-Iterations <==

   -------------------------------------------------------
    Irrep   Nso     Nmo     Nalpha   Nbeta   Ndocc  Nsocc
   -------------------------------------------------------
     A        427     427       0       0       0       0
   -------------------------------------------------------
    Total     427     427      17      17      17       0
   -------------------------------------------------------

  ==> Integral Setup <==

  ==> DiskDFJK: Density-Fitted J/K Matrices <==

    J tasked:                  Yes
    K tasked:                  Yes
    wK tasked:                  No
    OpenMP threads:              1
    Integrals threads:           1
    Memory [MiB]:            15735
    Algorithm:                Core
    Integral Cache:           LOAD
    Schwarz Cutoff:          1E-12
    Fitting Condition:       1E-10

   => Auxiliary Basis Set <=

  Basis Set: (JUN-CC-PVTZ AUX)
    Blend: JUN-CC-PVTZ-JKFIT
    Number of shells: 313
    Number of basis function: 995
    Number of Cartesian functions: 1197
    Spherical Harmonics?: true
    Max angular momentum: 4

  Minimum eigenvalue in the overlap matrix is 7.9301932963E-05.
  Using Symmetric Orthogonalization.

  SCF Guess: Superposition of Atomic Densities via on-the-fly atomic UHF.

  ==> Iterations <==

                           Total Energy        Delta E     RMS |[F,P]|

   @DF-RHF iter SAD:  -192.49525523812733   -1.92495e+02   0.00000e+00 
   @DF-RHF iter   1:  -193.01100055547698   -5.15745e-01   1.33499e-03 DIIS
   @DF-RHF iter   2:  -193.15182877753631   -1.40828e-01   7.06321e-04 DIIS
   @DF-RHF iter   3:  -193.18858453522364   -3.67558e-02   1.20950e-04 DIIS
   @DF-RHF iter   4:  -193.19069793180219   -2.11340e-03   4.42671e-05 DIIS
   @DF-RHF iter   5:  -193.19090060048265   -2.02669e-04   1.00461e-05 DIIS
   @DF-RHF iter   6:  -193.19091522235962   -1.46219e-05   2.12941e-06 DIIS
   @DF-RHF iter   7:  -193.19091623076179   -1.00840e-06   5.41136e-07 DIIS
   @DF-RHF iter   8:  -193.19091629301741   -6.22556e-08   1.82221e-07 DIIS
   @DF-RHF iter   9:  -193.19091629986713   -6.84972e-09   4.94825e-08 DIIS
   @DF-RHF iter  10:  -193.19091630044605   -5.78922e-10   1.06573e-08 DIIS
   @DF-RHF iter  11:  -193.19091630046833   -2.22826e-11   2.71612e-09 DIIS
  Energy and wave function converged.


  ==> Post-Iterations <==

    Orbital Energies [Eh]
    ---------------------

    Doubly Occupied:                                                      

       1A    -20.555172     2A    -11.271144     3A    -11.223790  
       4A    -11.211116     5A     -1.352363     6A     -1.051982  
       7A     -0.920918     8A     -0.812322     9A     -0.668375  
      10A     -0.638642    11A     -0.631116    12A     -0.565956  
      13A     -0.534323    14A     -0.518251    15A     -0.486930  
      16A     -0.470444    17A     -0.437039  

    Virtual:                                                              

      18A      0.038507    19A      0.052775    20A      0.056612  
      21A      0.059680    22A      0.074488    23A      0.077586  
      24A      0.082500    25A      0.094225    26A      0.099347  
      27A      0.107054    28A      0.116843    29A      0.121881  
      30A      0.133412    31A      0.140177    32A      0.152834  
      33A      0.158582    34A      0.164556    35A      0.179926  
      36A      0.182861    37A      0.192730    38A      0.205426  
      39A      0.208150    40A      0.217982    41A      0.222811  
      42A      0.245496    43A      0.259255    44A      0.268223  
      45A      0.275952    46A      0.280766    47A      0.285676  
      48A      0.288524    49A      0.313179    50A      0.316142  
      51A      0.324803    52A      0.328730    53A      0.342033  
      54A      0.344695    55A      0.350816    56A      0.354092  
      57A      0.361426    58A      0.363637    59A      0.372684  
      60A      0.378495    61A      0.394265    62A      0.400194  
      63A      0.408025    64A      0.414789    65A      0.422371  
      66A      0.424410    67A      0.435868    68A      0.447690  
      69A      0.461237    70A      0.475412    71A      0.480871  
      72A      0.493276    73A      0.503277    74A      0.507801  
      75A      0.514883    76A      0.523334    77A      0.530381  
      78A      0.544822    79A      0.548974    80A      0.561873  
      81A      0.567660    82A      0.595769    83A      0.614899  
      84A      0.631239    85A      0.640807    86A      0.653189  
      87A      0.663796    88A      0.686887    89A      0.687805  
      90A      0.691960    91A      0.719709    92A      0.730292  
      93A      0.734561    94A      0.745468    95A      0.754739  
      96A      0.770582    97A      0.774208    98A      0.784799  
      99A      0.790324   100A      0.801946   101A      0.810197  
     102A      0.816879   103A      0.822064   104A      0.824476  
     105A      0.834818   106A      0.850242   107A      0.859064  
     108A      0.872725   109A      0.879815   110A      0.893161  
     111A      0.911818   112A      0.926029   113A      0.928007  
     114A      0.950246   115A      0.966658   116A      0.984491  
     117A      0.993367   118A      1.009453   119A      1.013067  
     120A      1.030344   121A      1.033212   122A      1.056646  
     123A      1.064624   124A      1.082427   125A      1.114913  
     126A      1.131339   127A      1.139813   128A      1.155065  
     129A      1.159515   130A      1.179916   131A      1.207918  
     132A      1.224871   133A      1.236825   134A      1.252311  
     135A      1.272602   136A      1.285094   137A      1.300667  
     138A      1.324632   139A      1.337975   140A      1.346789  
     141A      1.360989   142A      1.373934   143A      1.380887  
     144A      1.391969   145A      1.400273   146A      1.433436  
     147A      1.437553   148A      1.440439   149A      1.461847  
     150A      1.475332   151A      1.494167   152A      1.512169  
     153A      1.515349   154A      1.521397   155A      1.529042  
     156A      1.544381   157A      1.558449   158A      1.570197  
     159A      1.581482   160A      1.598589   161A      1.620920  
     162A      1.625321   163A      1.638195   164A      1.645368  
     165A      1.652314   166A      1.664775   167A      1.676145  
     168A      1.700814   169A      1.711645   170A      1.721622  
     171A      1.732217   172A      1.758641   173A      1.767063  
     174A      1.784293   175A      1.817243   176A      1.839048  
     177A      1.859867   178A      1.873606   179A      1.880099  
     180A      1.892590   181A      1.929576   182A      1.931098  
     183A      1.944796   184A      1.976135   185A      2.006267  
     186A      2.038016   187A      2.068731   188A      2.103670  
     189A      2.148808   190A      2.196491   191A      2.225767  
     192A      2.253733   193A      2.328113   194A      2.401353  
     195A      2.457669   196A      2.489763   197A      2.497004  
     198A      2.507005   199A      2.569617   200A      2.596658  
     201A      2.638757   202A      2.661906   203A      2.694913  
     204A      2.763861   205A      2.794066   206A      2.802572  
     207A      2.822086   208A      2.824147   209A      2.846363  
     210A      2.858055   211A      2.877364   212A      2.899814  
     213A      2.906071   214A      2.934311   215A      2.952032  
     216A      2.974239   217A      2.991392   218A      3.010680  
     219A      3.039891   220A      3.075083   221A      3.098422  
     222A      3.122053   223A      3.138918   224A      3.149031  
     225A      3.178076   226A      3.190689   227A      3.234486  
     228A      3.254492   229A      3.274264   230A      3.310542  
     231A      3.314062   232A      3.347412   233A      3.386415  
     234A      3.398154   235A      3.404922   236A      3.418938  
     237A      3.422048   238A      3.450281   239A      3.469290  
     240A      3.482836   241A      3.491564   242A      3.510394  
     243A      3.535594   244A      3.540141   245A      3.555669  
     246A      3.569379   247A      3.581978   248A      3.619040  
     249A      3.633183   250A      3.678176   251A      3.695930  
     252A      3.703289   253A      3.711069   254A      3.719463  
     255A      3.730203   256A      3.761538   257A      3.779644  
     258A      3.789922   259A      3.809965   260A      3.824599  
     261A      3.859004   262A      3.879801   263A      3.888857  
     264A      3.912505   265A      3.924315   266A      3.945008  
     267A      3.965501   268A      3.982997   269A      3.992417  
     270A      3.998177   271A      4.034421   272A      4.046095  
     273A      4.078949   274A      4.120592   275A      4.134028  
     276A      4.155952   277A      4.186399   278A      4.213672  
     279A      4.234583   280A      4.254130   281A      4.259466  
     282A      4.269371   283A      4.292772   284A      4.317172  
     285A      4.318977   286A      4.339208   287A      4.364000  
     288A      4.369406   289A      4.379353   290A      4.396936  
     291A      4.407364   292A      4.416167   293A      4.423372  
     294A      4.443354   295A      4.463781   296A      4.476055  
     297A      4.487905   298A      4.504225   299A      4.508683  
     300A      4.518230   301A      4.540849   302A      4.568205  
     303A      4.572361   304A      4.584199   305A      4.608379  
     306A      4.630847   307A      4.635328   308A      4.650751  
     309A      4.677743   310A      4.702196   311A      4.733312  
     312A      4.740792   313A      4.745714   314A      4.764937  
     315A      4.777832   316A      4.784997   317A      4.800386  
     318A      4.846419   319A      4.860338   320A      4.864383  
     321A      4.875023   322A      4.878747   323A      4.904805  
     324A      4.918217   325A      4.929386   326A      4.978408  
     327A      4.990410   328A      5.023761   329A      5.054189  
     330A      5.079454   331A      5.092720   332A      5.095263  
     333A      5.126587   334A      5.142161   335A      5.165169  
     336A      5.176953   337A      5.205847   338A      5.237407  
     339A      5.248580   340A      5.293728   341A      5.304936  
     342A      5.334777   343A      5.384440   344A      5.408299  
     345A      5.471164   346A      5.492513   347A      5.520016  
     348A      5.538368   349A      5.573423   350A      5.589502  
     351A      5.630230   352A      5.670425   353A      5.693575  
     354A      5.754953   355A      5.776472   356A      5.784698  
     357A      5.824474   358A      5.829010   359A      5.836798  
     360A      5.901838   361A      5.918939   362A      5.925638  
     363A      5.959128   364A      5.986967   365A      6.073679  
     366A      6.098369   367A      6.104788   368A      6.127618  
     369A      6.161931   370A      6.290395   371A      6.314369  
     372A      6.351141   373A      6.418540   374A      6.441245  
     375A      6.488881   376A      6.524141   377A      6.543879  
     378A      6.554682   379A      6.574258   380A      6.576122  
     381A      6.604488   382A      6.615483   383A      6.810412  
     384A      6.869050   385A      6.933579   386A      6.962803  
     387A      7.057426   388A      7.127949   389A      7.219611  
     390A      7.322153   391A      7.325811   392A      7.349321  
     393A      7.408101   394A      7.457948   395A      7.498571  
     396A      7.592597   397A      7.680408   398A      7.806002  
     399A      7.811039   400A      7.913770   401A      8.092940  
     402A      8.146791   403A      8.354197   404A      8.441693  
     405A      8.839636   406A      9.057802   407A      9.089311  
     408A      9.310880   409A      9.418513   410A      9.792876  
     411A      9.880689   412A      9.913441   413A     10.121435  
     414A     10.501724   415A     10.849018   416A     11.319627  
     417A     11.549984   418A     11.677935   419A     11.927649  
     420A     13.679583   421A     13.713060   422A     13.901248  
     423A     14.085400   424A     14.640873   425A     44.607743  
     426A     55.156972   427A     60.251882  

    Final Occupation by Irrep:
              A 
    DOCC [    17 ]

  @DF-RHF Final Energy:  -193.19091630046833

   => Energetics <=

    Nuclear Repulsion Energy =            132.8162249827294374
    One-Electron Energy =                -525.3145157256024049
    Two-Electron Energy =                 199.3073744424046652
    Total Energy =                       -193.1909163004683307

Computation Completed


Properties will be evaluated at   0.000000,   0.000000,   0.000000 [a0]

Properties computed using the SCF density matrix

  Nuclear Dipole Moment: [e a0]
     X:    97.1410      Y:    -2.9935      Z:    -5.4503

  Electronic Dipole Moment: [e a0]
     X:   -96.8415      Y:     3.1477      Z:     6.0914

  Dipole Moment: [e a0]
     X:     0.2995      Y:     0.1542      Z:     0.6410     Total:     0.7241

  Dipole Moment: [D]
     X:     0.7612      Y:     0.3920      Z:     1.6293     Total:     1.8406


*** tstop() called on r282 at Fri Sep 10 11:33:24 2021
Module time:
	user time   =      18.38 seconds =       0.31 minutes
	system time =       0.49 seconds =       0.01 minutes
	total time  =         19 seconds =       0.32 minutes
Total time:
	user time   =      77.55 seconds =       1.29 minutes
	system time =       1.87 seconds =       0.03 minutes
	total time  =         80 seconds =       1.33 minutes
  Constructing Basis Sets for SAPT...

   => Loading Basis Set <=

    Name: (JUN-CC-PVTZ AUX)
    Role: RIFIT
    Keyword: DF_BASIS_SAPT
    atoms 1, 7-8, 15              entry C          line   132 file /home/r08543048/miniconda3/share/psi4/basis/jun-cc-pvtz-ri.gbs 
    atoms 2, 11                   entry O          line   244 file /home/r08543048/miniconda3/share/psi4/basis/jun-cc-pvtz-ri.gbs 
    atoms 3                       entry N          line   188 file /home/r08543048/miniconda3/share/psi4/basis/jun-cc-pvtz-ri.gbs 
    atoms 4-6, 9-10, 12-14, 16-18 entry H          line    30 file /home/r08543048/miniconda3/share/psi4/basis/jun-cc-pvtz-ri.gbs 


  //>>>>>>>>>>>>>>>>>>>>>>>>>>>>>>>>>>>//
  //               SAPT0               //
  //<<<<<<<<<<<<<<<<<<<<<<<<<<<<<<<<<<<//


*** tstart() called on r282
*** at Fri Sep 10 11:33:24 2021

        SAPT0  
    Ed Hohenstein
     6 June 2009

      Orbital Information
  --------------------------
    NSO        =       427
    NMO        =       427
    NRI        =      1009
    NOCC A     =        12
    NOCC B     =        17
    FOCC A     =         0
    FOCC B     =         0
    NVIR A     =       415
    NVIR B     =       410

    Elst10,r            =    -0.029277719212 [Eh]
    Exch10              =     0.028406476317 [Eh]
    Exch10 (S^2)        =     0.028159933601 [Eh]

    Iter     Energy [mEh]          dE [mEh]         Residual      Time [s]
       1      -5.80987545       5.809875452      14.804282364             0
       2      -7.21948474       1.409609293       8.235500720             1
       3      -7.52400593       0.304521186       2.362440226             1
       4      -7.45574146      -0.068264474       0.901909188             2
       5      -7.45229003      -0.003451425       0.284563821             3
       6      -7.45928394       0.006993906       0.068272965             3
       7      -7.45889563      -0.000388306       0.022229626             4
       8      -7.45849447      -0.000401166       0.005338085             4
       9      -7.45852143       0.000026967       0.001697315             5
      10      -7.45854485       0.000023413       0.000404836             5
      11      -7.45854273      -0.000002116       0.000113318             6
      12      -7.45854142      -0.000001307       0.000046144             6
      13      -7.45854209       0.000000666       0.000013824             7
      14      -7.45854196      -0.000000130       0.000003165             8
      15      -7.45854196       0.000000003       0.000000913             8

    CHF Iterations converged


    Iter     Energy [mEh]          dE [mEh]         Residual      Time [s]
       1      -5.53795188       5.537951884      13.821918246             1
       2      -6.44747266       0.909520771       6.507354196             1
       3      -6.71275410       0.265281443       1.854246297             2
       4      -6.70995078      -0.002803322       0.569593537             3
       5      -6.68773541      -0.022215363       0.114810669             3
       6      -6.68953702       0.001801612       0.044753963             4
       7      -6.69029619       0.000759170       0.012212767             4
       8      -6.69009327      -0.000202927       0.003408322             5
       9      -6.69006841      -0.000024862       0.000931673             6
      10      -6.69008195       0.000013548       0.000294331             6
      11      -6.69008315       0.000001199       0.000078253             7
      12      -6.69008205      -0.000001100       0.000020675             8
      13      -6.69008208       0.000000022       0.000004967             8
      14      -6.69008213       0.000000050       0.000001301             9
      15      -6.69008213      -0.000000000       0.000000353             9

    CHF Iterations converged

    Ind20,r (A<-B)      =    -0.007458541962 [Eh]
    Ind20,r (B<-A)      =    -0.006690082125 [Eh]
    Ind20,r             =    -0.014148624087 [Eh]
    Exch-Ind20,r (A<-B) =     0.004701486272 [Eh]
    Exch-Ind20,r (B<-A) =     0.003844579986 [Eh]
    Exch-Ind20,r        =     0.008546066258 [Eh]
    Disp20              =    -0.012606784172 [Eh]
    Disp20 (SS)         =    -0.006303392086 [Eh]
    Disp20 (OS)         =    -0.006303392086 [Eh]
    Exch-Disp20         =     0.002216870234 [Eh]
    Exch-Disp20 (SS)    =     0.001387237083 [Eh]
    Exch-Disp20 (OS)    =     0.000829633150 [Eh]

    SAPT Results 
  --------------------------------------------------------------------------------------------------------
    Electrostatics                -29.27771921 [mEh]     -18.37204618 [kcal/mol]     -76.86864120 [kJ/mol]
      Elst10,r                    -29.27771921 [mEh]     -18.37204618 [kcal/mol]     -76.86864120 [kJ/mol]

    Exchange                       28.40647632 [mEh]      17.82533301 [kcal/mol]      74.58119330 [kJ/mol]
      Exch10                       28.40647632 [mEh]      17.82533301 [kcal/mol]      74.58119330 [kJ/mol]
      Exch10(S^2)                  28.15993360 [mEh]      17.67062512 [kcal/mol]      73.93389548 [kJ/mol]

    Induction                      -9.34180240 [mEh]      -5.86206951 [kcal/mol]     -24.52689883 [kJ/mol]
      Ind20,r                     -14.14862409 [mEh]      -8.87839566 [kcal/mol]     -37.14720742 [kJ/mol]
      Exch-Ind20,r                  8.54606626 [mEh]       5.36273754 [kcal/mol]      22.43769387 [kJ/mol]
      delta HF,r (2)               -3.73924457 [mEh]      -2.34641139 [kcal/mol]      -9.81738527 [kJ/mol]

    Dispersion                    -10.38991394 [mEh]      -6.51976943 [kcal/mol]     -27.27871529 [kJ/mol]
      Disp20                      -12.60678417 [mEh]      -7.91087650 [kcal/mol]     -33.09910728 [kJ/mol]
      Exch-Disp20                   2.21687023 [mEh]       1.39110707 [kcal/mol]       5.82039200 [kJ/mol]
      Disp20 (SS)                  -6.30339209 [mEh]      -3.95543825 [kcal/mol]     -16.54955364 [kJ/mol]
      Disp20 (OS)                  -6.30339209 [mEh]      -3.95543825 [kcal/mol]     -16.54955364 [kJ/mol]
      Exch-Disp20 (SS)              1.38723708 [mEh]       0.87050441 [kcal/mol]       3.64219046 [kJ/mol]
      Exch-Disp20 (OS)              0.82963315 [mEh]       0.52060266 [kcal/mol]       2.17820154 [kJ/mol]

  Total HF                        -10.21304530 [mEh]      -6.40878268 [kcal/mol]     -26.81434673 [kJ/mol]
  Total SAPT0                     -20.60295923 [mEh]     -12.92855211 [kcal/mol]     -54.09306202 [kJ/mol]

  Special recipe for scaled SAPT0 (see Manual):
    Electrostatics sSAPT0         -29.27771921 [mEh]     -18.37204618 [kcal/mol]     -76.86864120 [kJ/mol]
    Exchange sSAPT0                28.40647632 [mEh]      17.82533301 [kcal/mol]      74.58119330 [kJ/mol]
    Induction sSAPT0               -9.11536675 [mEh]      -5.71997900 [kcal/mol]     -23.93239212 [kJ/mol]
    Dispersion sSAPT0             -10.33117598 [mEh]      -6.48291081 [kcal/mol]     -27.12449881 [kJ/mol]
  Total sSAPT0                    -20.31778563 [mEh]     -12.74960297 [kcal/mol]     -53.34433883 [kJ/mol]
  --------------------------------------------------------------------------------------------------------

*** tstop() called on r282 at Fri Sep 10 11:34:35 2021
Module time:
	user time   =      59.01 seconds =       0.98 minutes
	system time =      11.64 seconds =       0.19 minutes
	total time  =         71 seconds =       1.18 minutes
Total time:
	user time   =     136.68 seconds =       2.28 minutes
	system time =      13.51 seconds =       0.23 minutes
	total time  =        151 seconds =       2.52 minutes

    Psi4 stopped on: Friday, 10 September 2021 11:34AM
    Psi4 wall time for execution: 0:02:30.74

*** Psi4 exiting successfully. Buy a developer a beer!
