
    -----------------------------------------------------------------------
          Psi4: An Open-Source Ab Initio Electronic Structure Package
                               Psi4 1.3.2 release

                         Git: Rev {HEAD} ecbda83 


    R. M. Parrish, L. A. Burns, D. G. A. Smith, A. C. Simmonett,
    A. E. DePrince III, E. G. Hohenstein, U. Bozkaya, A. Yu. Sokolov,
    R. Di Remigio, R. M. Richard, J. F. Gonthier, A. M. James,
    H. R. McAlexander, A. Kumar, M. Saitow, X. Wang, B. P. Pritchard,
    P. Verma, H. F. Schaefer III, K. Patkowski, R. A. King, E. F. Valeev,
    F. A. Evangelista, J. M. Turney, T. D. Crawford, and C. D. Sherrill,
    J. Chem. Theory Comput. 13(7) pp 3185--3197 (2017).
    (doi: 10.1021/acs.jctc.7b00174)


                         Additional Contributions by
    P. Kraus, H. Kruse, M. H. Lechner, M. C. Schieber, R. A. Shaw,
    A. Alenaizan, R. Galvelis, Z. L. Glick, S. Lehtola, and J. P. Misiewicz

    -----------------------------------------------------------------------


    Psi4 started on: Tuesday, 24 August 2021 05:42AM

    Process ID: 19741
    Host:       r282
    PSIDATADIR: /home/r09543063/miniconda3/envs/p4env/share/psi4
    Memory:     500.0 MiB
    Threads:    1
    
  ==> Input File <==

--------------------------------------------------------------------------
# Any line starting with the # character is a comment line
#! Sample  computation

memory 22 gb

molecule Dimer {
0 1
  C   -1.676709350  -0.155545695   0.000000000
  O   -0.993533620  -1.155786393   0.000000000
  O   -1.173945330   1.080177302   0.000000000
  H   -0.185940107   1.035554940   0.000000000
  C   -3.180974158  -0.156065960   0.000000000
  H   -3.550265591  -1.175547772   0.000000000
  H   -3.549007807   0.375205388  -0.876744631
  H   -3.549007807   0.375205388   0.876744631






 --
0 1
  H    3.905917637  -1.085082156   0.874204506
  H    3.905917637  -1.085082156  -0.874204506
  H    4.240860680   0.438258791   0.000000000
  H    1.510485692  -1.059175962   0.000000000
  C    3.658371981  -0.478643732   0.000000000
  C    2.193267024  -0.195488394   0.000000000
  O    1.728631576   0.925413346   0.000000000




units angstrom

no_reorient
symmetry c1
}

set globals{
  basis jun-cc-pVTZ
  scf_type DF 
  freeze_core True
}

energy('sapt0')


--------------------------------------------------------------------------

  Memory set to  20.489 GiB by Python driver.

  //>>>>>>>>>>>>>>>>>>>>>>>>>>>>>>>>>>>//
  //              Dimer HF             //
  //<<<<<<<<<<<<<<<<<<<<<<<<<<<<<<<<<<<//


*** tstart() called on r282
*** at Tue Aug 24 05:42:45 2021

   => Loading Basis Set <=

    Name: JUN-CC-PVTZ
    Role: ORBITAL
    Keyword: BASIS
    atoms 1, 5, 13-14 entry C          line   217 file /home/r09543063/miniconda3/envs/p4env/share/psi4/basis/jun-cc-pvtz.gbs 
    atoms 2-3, 15     entry O          line   305 file /home/r09543063/miniconda3/envs/p4env/share/psi4/basis/jun-cc-pvtz.gbs 
    atoms 4, 6-12     entry H          line    36 file /home/r09543063/miniconda3/envs/p4env/share/psi4/basis/jun-cc-pvtz.gbs 


         ---------------------------------------------------------
                                   SCF
               by Justin Turney, Rob Parrish, Andy Simmonett
                          and Daniel G. A. Smith
                              RHF Reference
                        1 Threads,  20980 MiB Core
         ---------------------------------------------------------

  ==> Geometry <==

    Molecular point group: c1
    Full point group: Cs

    Geometry (in Angstrom), charge = 0, multiplicity = 1:

       Center              X                  Y                   Z               Mass       
    ------------   -----------------  -----------------  -----------------  -----------------
         C           -1.750314825348    -0.151373496516     0.000000000000    12.000000000000
         O           -1.067139095348    -1.151614194516     0.000000000000    15.994914619570
         O           -1.247550805348     1.084349500484     0.000000000000    15.994914619570
         H           -0.259545582348     1.039727138484     0.000000000000     1.007825032230
         C           -3.254579633348    -0.151893761516     0.000000000000    12.000000000000
         H           -3.623871066348    -1.171375573516     0.000000000000     1.007825032230
         H           -3.622613282348     0.379377586484    -0.876744631000     1.007825032230
         H           -3.622613282348     0.379377586484     0.876744631000     1.007825032230
         H            3.832312161652    -1.080909957516     0.874204506000     1.007825032230
         H            3.832312161652    -1.080909957516    -0.874204506000     1.007825032230
         H            4.167255204652     0.442430989484     0.000000000000     1.007825032230
         H            1.436880216652    -1.055003763516     0.000000000000     1.007825032230
         C            3.584766505652    -0.474471533516     0.000000000000    12.000000000000
         C            2.119661548652    -0.191316195516     0.000000000000    12.000000000000
         O            1.655026100652     0.929585544484     0.000000000000    15.994914619570

  Running in c1 symmetry.

  Rotational constants: A =      0.25138  B =      0.03060  C =      0.02755 [cm^-1]
  Rotational constants: A =   7536.21640  B =    917.29542  C =    826.01881 [MHz]
  Nuclear repulsion =  287.904184887997019

  Charge       = 0
  Multiplicity = 1
  Electrons    = 56
  Nalpha       = 28
  Nbeta        = 28

  ==> Algorithm <==

  SCF Algorithm Type is DF.
  DIIS enabled.
  MOM disabled.
  Fractional occupation disabled.
  Guess Type is SAD.
  Energy threshold   = 1.00e-08
  Density threshold  = 1.00e-08
  Integral threshold = 0.00e+00

  ==> Primary Basis <==

  Basis Set: JUN-CC-PVTZ
    Blend: JUN-CC-PVTZ
    Number of shells: 139
    Number of basis function: 385
    Number of Cartesian functions: 435
    Spherical Harmonics?: true
    Max angular momentum: 3

   => Loading Basis Set <=

    Name: (JUN-CC-PVTZ AUX)
    Role: JKFIT
    Keyword: DF_BASIS_SCF
    atoms 1, 5, 13-14 entry C          line   152 file /home/r09543063/miniconda3/envs/p4env/share/psi4/basis/jun-cc-pvtz-jkfit.gbs 
    atoms 2-3, 15     entry O          line   272 file /home/r09543063/miniconda3/envs/p4env/share/psi4/basis/jun-cc-pvtz-jkfit.gbs 
    atoms 4, 6-12     entry H          line    70 file /home/r09543063/miniconda3/envs/p4env/share/psi4/basis/jun-cc-pvtz-jkfit.gbs 

  ==> Pre-Iterations <==

   -------------------------------------------------------
    Irrep   Nso     Nmo     Nalpha   Nbeta   Ndocc  Nsocc
   -------------------------------------------------------
     A        385     385       0       0       0       0
   -------------------------------------------------------
    Total     385     385      28      28      28       0
   -------------------------------------------------------

  ==> Integral Setup <==

  ==> DiskDFJK: Density-Fitted J/K Matrices <==

    J tasked:                  Yes
    K tasked:                  Yes
    wK tasked:                  No
    OpenMP threads:              1
    Integrals threads:           1
    Memory [MiB]:            15735
    Algorithm:                Core
    Integral Cache:           SAVE
    Schwarz Cutoff:          1E-12
    Fitting Condition:       1E-10

   => Auxiliary Basis Set <=

  Basis Set: (JUN-CC-PVTZ AUX)
    Blend: JUN-CC-PVTZ-JKFIT
    Number of shells: 283
    Number of basis function: 905
    Number of Cartesian functions: 1092
    Spherical Harmonics?: true
    Max angular momentum: 4

  Minimum eigenvalue in the overlap matrix is 5.3182915426E-05.
  Using Symmetric Orthogonalization.

  SCF Guess: Superposition of Atomic Densities via on-the-fly atomic UHF.

  ==> Iterations <==

                           Total Energy        Delta E     RMS |[F,P]|

   @DF-RHF iter SAD:  -379.26598536457692   -3.79266e+02   0.00000e+00 
   @DF-RHF iter   1:  -380.63571755587844   -1.36973e+00   1.93878e-03 DIIS
   @DF-RHF iter   2:  -380.82397008188735   -1.88253e-01   1.16232e-03 DIIS
   @DF-RHF iter   3:  -380.88840159218387   -6.44315e-02   2.04039e-04 DIIS
   @DF-RHF iter   4:  -380.89234678303808   -3.94519e-03   8.76197e-05 DIIS
   @DF-RHF iter   5:  -380.89312215374679   -7.75371e-04   2.00127e-05 DIIS
   @DF-RHF iter   6:  -380.89318237946253   -6.02257e-05   1.01439e-05 DIIS
   @DF-RHF iter   7:  -380.89319615232938   -1.37729e-05   3.45729e-06 DIIS
   @DF-RHF iter   8:  -380.89319879517149   -2.64284e-06   1.01692e-06 DIIS
   @DF-RHF iter   9:  -380.89319905860350   -2.63432e-07   2.18359e-07 DIIS
   @DF-RHF iter  10:  -380.89319906795896   -9.35546e-09   8.58905e-08 DIIS
   @DF-RHF iter  11:  -380.89319906875255   -7.93591e-10   3.15171e-08 DIIS
   @DF-RHF iter  12:  -380.89319906884140   -8.88463e-11   9.92291e-09 DIIS
  Energy and wave function converged.


  ==> Post-Iterations <==

    Orbital Energies [Eh]
    ---------------------

    Doubly Occupied:                                                      

       1A    -20.590238     2A    -20.572936     3A    -20.536233  
       4A    -11.376418     5A    -11.344339     6A    -11.246386  
       7A    -11.234574     8A     -1.449203     9A     -1.408572  
      10A     -1.345541    11A     -1.030892    12A     -1.014936  
      13A     -0.815048    14A     -0.809421    15A     -0.699442  
      16A     -0.686510    17A     -0.666205    18A     -0.637655  
      19A     -0.636522    20A     -0.612050    21A     -0.573009  
      22A     -0.568816    23A     -0.553395    24A     -0.548458  
      25A     -0.518150    26A     -0.468342    27A     -0.445224  
      28A     -0.439484  

    Virtual:                                                              

      29A      0.042757    30A      0.050983    31A      0.070971  
      32A      0.071573    33A      0.077949    34A      0.082142  
      35A      0.085669    36A      0.099294    37A      0.101448  
      38A      0.107903    39A      0.124572    40A      0.144283  
      41A      0.148235    42A      0.156610    43A      0.166969  
      44A      0.183347    45A      0.183599    46A      0.186506  
      47A      0.193242    48A      0.203120    49A      0.204389  
      50A      0.209970    51A      0.235976    52A      0.249290  
      53A      0.251610    54A      0.255986    55A      0.265460  
      56A      0.276379    57A      0.279765    58A      0.281113  
      59A      0.291667    60A      0.294581    61A      0.299915  
      62A      0.309180    63A      0.324358    64A      0.329084  
      65A      0.330720    66A      0.346269    67A      0.353397  
      68A      0.358930    69A      0.373967    70A      0.385487  
      71A      0.403953    72A      0.405883    73A      0.408718  
      74A      0.412262    75A      0.424984    76A      0.445819  
      77A      0.446151    78A      0.460846    79A      0.468418  
      80A      0.489766    81A      0.513599    82A      0.517028  
      83A      0.524171    84A      0.534029    85A      0.541838  
      86A      0.560961    87A      0.597129    88A      0.618619  
      89A      0.622402    90A      0.633231    91A      0.639238  
      92A      0.648684    93A      0.662427    94A      0.665182  
      95A      0.667683    96A      0.686006    97A      0.687133  
      98A      0.708108    99A      0.710426   100A      0.716487  
     101A      0.732833   102A      0.736065   103A      0.768078  
     104A      0.785884   105A      0.792674   106A      0.794930  
     107A      0.810533   108A      0.815186   109A      0.818924  
     110A      0.824456   111A      0.842653   112A      0.850675  
     113A      0.852460   114A      0.855016   115A      0.888673  
     116A      0.890658   117A      0.910679   118A      0.919180  
     119A      0.930932   120A      0.947964   121A      0.951806  
     122A      0.961845   123A      0.996429   124A      0.997487  
     125A      1.012160   126A      1.022614   127A      1.043508  
     128A      1.062474   129A      1.074549   130A      1.081499  
     131A      1.086727   132A      1.107612   133A      1.145397  
     134A      1.162882   135A      1.188118   136A      1.204425  
     137A      1.207638   138A      1.232353   139A      1.253674  
     140A      1.253798   141A      1.278363   142A      1.282006  
     143A      1.299971   144A      1.310990   145A      1.327710  
     146A      1.329940   147A      1.338621   148A      1.360781  
     149A      1.361569   150A      1.371452   151A      1.390472  
     152A      1.404300   153A      1.412437   154A      1.420584  
     155A      1.441460   156A      1.445859   157A      1.450248  
     158A      1.488051   159A      1.500454   160A      1.533443  
     161A      1.545098   162A      1.547281   163A      1.553568  
     164A      1.575363   165A      1.579589   166A      1.582871  
     167A      1.598180   168A      1.634193   169A      1.642056  
     170A      1.682285   171A      1.694148   172A      1.718928  
     173A      1.760243   174A      1.762224   175A      1.773349  
     176A      1.815314   177A      1.829741   178A      1.860112  
     179A      1.864238   180A      1.917420   181A      1.946258  
     182A      2.051160   183A      2.105324   184A      2.199247  
     185A      2.216046   186A      2.235488   187A      2.256623  
     188A      2.304293   189A      2.305033   190A      2.364160  
     191A      2.380699   192A      2.412917   193A      2.433006  
     194A      2.456084   195A      2.538220   196A      2.553607  
     197A      2.602976   198A      2.638456   199A      2.648855  
     200A      2.652600   201A      2.696187   202A      2.741714  
     203A      2.742751   204A      2.760104   205A      2.780975  
     206A      2.796139   207A      2.840011   208A      2.899460  
     209A      2.916644   210A      2.934627   211A      2.965117  
     212A      2.998677   213A      3.015612   214A      3.048454  
     215A      3.058090   216A      3.075261   217A      3.087150  
     218A      3.105526   219A      3.151469   220A      3.153738  
     221A      3.178924   222A      3.190250   223A      3.209832  
     224A      3.214996   225A      3.264657   226A      3.268887  
     227A      3.301969   228A      3.316748   229A      3.351530  
     230A      3.354313   231A      3.372968   232A      3.380211  
     233A      3.396632   234A      3.425701   235A      3.437995  
     236A      3.440650   237A      3.449741   238A      3.470745  
     239A      3.489472   240A      3.511894   241A      3.522152  
     242A      3.538663   243A      3.565053   244A      3.602592  
     245A      3.625000   246A      3.627176   247A      3.638804  
     248A      3.644087   249A      3.652153   250A      3.666776  
     251A      3.698564   252A      3.726254   253A      3.745596  
     254A      3.758147   255A      3.764550   256A      3.769241  
     257A      3.775001   258A      3.781099   259A      3.788422  
     260A      3.811702   261A      3.828819   262A      3.848898  
     263A      3.860401   264A      3.899818   265A      3.932293  
     266A      3.971350   267A      4.001793   268A      4.024943  
     269A      4.065937   270A      4.106578   271A      4.135186  
     272A      4.152171   273A      4.161138   274A      4.189128  
     275A      4.195378   276A      4.215925   277A      4.252746  
     278A      4.263652   279A      4.287720   280A      4.295698  
     281A      4.316692   282A      4.320035   283A      4.335517  
     284A      4.352334   285A      4.369024   286A      4.371039  
     287A      4.401034   288A      4.414993   289A      4.460752  
     290A      4.466985   291A      4.482259   292A      4.504715  
     293A      4.538941   294A      4.584643   295A      4.593339  
     296A      4.610687   297A      4.620080   298A      4.652065  
     299A      4.699591   300A      4.718117   301A      4.754372  
     302A      4.757181   303A      4.778753   304A      4.781872  
     305A      4.808890   306A      4.823253   307A      4.882335  
     308A      4.944179   309A      5.021010   310A      5.035771  
     311A      5.085551   312A      5.111479   313A      5.134965  
     314A      5.149692   315A      5.153329   316A      5.201131  
     317A      5.267323   318A      5.303219   319A      5.351365  
     320A      5.388159   321A      5.437358   322A      5.444069  
     323A      5.492788   324A      5.506748   325A      5.530602  
     326A      5.572643   327A      5.578238   328A      5.584232  
     329A      5.645057   330A      5.646102   331A      5.658828  
     332A      5.683795   333A      5.688859   334A      5.699280  
     335A      5.709393   336A      5.721885   337A      5.749789  
     338A      5.827919   339A      5.854744   340A      5.893919  
     341A      5.894097   342A      5.938931   343A      6.073884  
     344A      6.093591   345A      6.099397   346A      6.118143  
     347A      6.293579   348A      6.350417   349A      6.407487  
     350A      6.418586   351A      6.424117   352A      6.447346  
     353A      6.539751   354A      6.765792   355A      6.770379  
     356A      6.776343   357A      6.915024   358A      6.941620  
     359A      6.992449   360A      7.085676   361A      7.137683  
     362A      7.213064   363A      7.262360   364A      7.270177  
     365A      7.291033   366A      7.319941   367A      7.365325  
     368A      7.377306   369A      7.424539   370A      7.430682  
     371A      7.456787   372A      7.665164   373A      7.678576  
     374A      7.705211   375A      7.752874   376A      7.880673  
     377A      7.966701   378A      8.201972   379A     12.097172  
     380A     12.381654   381A     13.779496   382A     14.271803  
     383A     14.458046   384A     14.512836   385A     14.670736  

    Final Occupation by Irrep:
              A 
    DOCC [    28 ]

  @DF-RHF Final Energy:  -380.89319906884140

   => Energetics <=

    Nuclear Repulsion Energy =            287.9041848879970189
    One-Electron Energy =               -1091.9387672700329404
    Two-Electron Energy =                 423.1413833131945808
    Total Energy =                       -380.8931990688413975

Computation Completed


Properties will be evaluated at   0.000000,   0.000000,   0.000000 [a0]

Properties computed using the SCF density matrix

  Nuclear Dipole Moment: [e a0]
     X:     2.0031      Y:    -2.0089      Z:     0.0000

  Electronic Dipole Moment: [e a0]
     X:    -1.4969      Y:     1.5489      Z:    -0.0000

  Dipole Moment: [e a0]
     X:     0.5062      Y:    -0.4600      Z:    -0.0000     Total:     0.6840

  Dipole Moment: [D]
     X:     1.2867      Y:    -1.1692      Z:    -0.0000     Total:     1.7386


*** tstop() called on r282 at Tue Aug 24 05:43:11 2021
Module time:
	user time   =      24.48 seconds =       0.41 minutes
	system time =       0.75 seconds =       0.01 minutes
	total time  =         26 seconds =       0.43 minutes
Total time:
	user time   =      24.48 seconds =       0.41 minutes
	system time =       0.75 seconds =       0.01 minutes
	total time  =         26 seconds =       0.43 minutes

  //>>>>>>>>>>>>>>>>>>>>>>>>>>>>>>>>>>>//
  //            Monomer A HF           //
  //<<<<<<<<<<<<<<<<<<<<<<<<<<<<<<<<<<<//


*** tstart() called on r282
*** at Tue Aug 24 05:43:11 2021

   => Loading Basis Set <=

    Name: JUN-CC-PVTZ
    Role: ORBITAL
    Keyword: BASIS
    atoms 1, 5, 13-14 entry C          line   217 file /home/r09543063/miniconda3/envs/p4env/share/psi4/basis/jun-cc-pvtz.gbs 
    atoms 2-3, 15     entry O          line   305 file /home/r09543063/miniconda3/envs/p4env/share/psi4/basis/jun-cc-pvtz.gbs 
    atoms 4, 6-12     entry H          line    36 file /home/r09543063/miniconda3/envs/p4env/share/psi4/basis/jun-cc-pvtz.gbs 


         ---------------------------------------------------------
                                   SCF
               by Justin Turney, Rob Parrish, Andy Simmonett
                          and Daniel G. A. Smith
                              RHF Reference
                        1 Threads,  20980 MiB Core
         ---------------------------------------------------------

  ==> Geometry <==

    Molecular point group: c1
    Full point group: Cs

    Geometry (in Angstrom), charge = 0, multiplicity = 1:

       Center              X                  Y                   Z               Mass       
    ------------   -----------------  -----------------  -----------------  -----------------
         C           -1.750314825348    -0.151373496516     0.000000000000    12.000000000000
         O           -1.067139095348    -1.151614194516     0.000000000000    15.994914619570
         O           -1.247550805348     1.084349500484     0.000000000000    15.994914619570
         H           -0.259545582348     1.039727138484     0.000000000000     1.007825032230
         C           -3.254579633348    -0.151893761516     0.000000000000    12.000000000000
         H           -3.623871066348    -1.171375573516     0.000000000000     1.007825032230
         H           -3.622613282348     0.379377586484    -0.876744631000     1.007825032230
         H           -3.622613282348     0.379377586484     0.876744631000     1.007825032230
      Gh(H)           3.832312161652    -1.080909957516     0.874204506000     1.007825032230
      Gh(H)           3.832312161652    -1.080909957516    -0.874204506000     1.007825032230
      Gh(H)           4.167255204652     0.442430989484     0.000000000000     1.007825032230
      Gh(H)           1.436880216652    -1.055003763516     0.000000000000     1.007825032230
      Gh(C)           3.584766505652    -0.474471533516     0.000000000000    12.000000000000
      Gh(C)           2.119661548652    -0.191316195516     0.000000000000    12.000000000000
      Gh(O)           1.655026100652     0.929585544484     0.000000000000    15.994914619570

  Running in c1 symmetry.

  Rotational constants: A =      0.25138  B =      0.03060  C =      0.02755 [cm^-1]
  Rotational constants: A =   7536.21640  B =    917.29542  C =    826.01881 [MHz]
  Nuclear repulsion =  121.294624813580285

  Charge       = 0
  Multiplicity = 1
  Electrons    = 32
  Nalpha       = 16
  Nbeta        = 16

  ==> Algorithm <==

  SCF Algorithm Type is DF.
  DIIS enabled.
  MOM disabled.
  Fractional occupation disabled.
  Guess Type is SAD.
  Energy threshold   = 1.00e-08
  Density threshold  = 1.00e-08
  Integral threshold = 0.00e+00

  ==> Primary Basis <==

  Basis Set: JUN-CC-PVTZ
    Blend: JUN-CC-PVTZ
    Number of shells: 139
    Number of basis function: 385
    Number of Cartesian functions: 435
    Spherical Harmonics?: true
    Max angular momentum: 3

   => Loading Basis Set <=

    Name: (JUN-CC-PVTZ AUX)
    Role: JKFIT
    Keyword: DF_BASIS_SCF
    atoms 1, 5, 13-14 entry C          line   152 file /home/r09543063/miniconda3/envs/p4env/share/psi4/basis/jun-cc-pvtz-jkfit.gbs 
    atoms 2-3, 15     entry O          line   272 file /home/r09543063/miniconda3/envs/p4env/share/psi4/basis/jun-cc-pvtz-jkfit.gbs 
    atoms 4, 6-12     entry H          line    70 file /home/r09543063/miniconda3/envs/p4env/share/psi4/basis/jun-cc-pvtz-jkfit.gbs 

  ==> Pre-Iterations <==

   -------------------------------------------------------
    Irrep   Nso     Nmo     Nalpha   Nbeta   Ndocc  Nsocc
   -------------------------------------------------------
     A        385     385       0       0       0       0
   -------------------------------------------------------
    Total     385     385      16      16      16       0
   -------------------------------------------------------

  ==> Integral Setup <==

  ==> DiskDFJK: Density-Fitted J/K Matrices <==

    J tasked:                  Yes
    K tasked:                  Yes
    wK tasked:                  No
    OpenMP threads:              1
    Integrals threads:           1
    Memory [MiB]:            15735
    Algorithm:                Core
    Integral Cache:           LOAD
    Schwarz Cutoff:          1E-12
    Fitting Condition:       1E-10

   => Auxiliary Basis Set <=

  Basis Set: (JUN-CC-PVTZ AUX)
    Blend: JUN-CC-PVTZ-JKFIT
    Number of shells: 283
    Number of basis function: 905
    Number of Cartesian functions: 1092
    Spherical Harmonics?: true
    Max angular momentum: 4

  Minimum eigenvalue in the overlap matrix is 5.3182915426E-05.
  Using Symmetric Orthogonalization.

  SCF Guess: Superposition of Atomic Densities via on-the-fly atomic UHF.

  ==> Iterations <==

                           Total Energy        Delta E     RMS |[F,P]|

   @DF-RHF iter SAD:  -227.01476687624685   -2.27015e+02   0.00000e+00 
   @DF-RHF iter   1:  -227.74479793127654   -7.30031e-01   1.55524e-03 DIIS
   @DF-RHF iter   2:  -227.85896867714641   -1.14171e-01   9.51444e-04 DIIS
   @DF-RHF iter   3:  -227.90109813477136   -4.21295e-02   1.55526e-04 DIIS
   @DF-RHF iter   4:  -227.90330597826085   -2.20784e-03   7.11227e-05 DIIS
   @DF-RHF iter   5:  -227.90379098259328   -4.85004e-04   1.71480e-05 DIIS
   @DF-RHF iter   6:  -227.90383195437349   -4.09718e-05   8.23736e-06 DIIS
   @DF-RHF iter   7:  -227.90384208054516   -1.01262e-05   2.75616e-06 DIIS
   @DF-RHF iter   8:  -227.90384381046496   -1.72992e-06   7.31582e-07 DIIS
   @DF-RHF iter   9:  -227.90384395002431   -1.39559e-07   1.51745e-07 DIIS
   @DF-RHF iter  10:  -227.90384395504222   -5.01791e-09   3.71009e-08 DIIS
   @DF-RHF iter  11:  -227.90384395524399   -2.01766e-10   9.39586e-09 DIIS
  Energy and wave function converged.


  ==> Post-Iterations <==

    Orbital Energies [Eh]
    ---------------------

    Doubly Occupied:                                                      

       1A    -20.620509     2A    -20.547541     3A    -11.388933  
       4A    -11.244875     5A     -1.469233     6A     -1.360552  
       7A     -1.026574     8A     -0.831561     9A     -0.704648  
      10A     -0.682694    11A     -0.654067    12A     -0.581431  
      13A     -0.573007    14A     -0.563268    15A     -0.481916  
      16A     -0.453857  

    Virtual:                                                              

      17A      0.034558    18A      0.044383    19A      0.057448  
      20A      0.068043    21A      0.073644    22A      0.079965  
      23A      0.080574    24A      0.095937    25A      0.104034  
      26A      0.107082    27A      0.137010    28A      0.140106  
      29A      0.142459    30A      0.146620    31A      0.158184  
      32A      0.165326    33A      0.171659    34A      0.177585  
      35A      0.187828    36A      0.198518    37A      0.201571  
      38A      0.203007    39A      0.222923    40A      0.240425  
      41A      0.245111    42A      0.253854    43A      0.257872  
      44A      0.264877    45A      0.278020    46A      0.281599  
      47A      0.285507    48A      0.300643    49A      0.316602  
      50A      0.321975    51A      0.328445    52A      0.337396  
      53A      0.341369    54A      0.347418    55A      0.373038  
      56A      0.375653    57A      0.379752    58A      0.382135  
      59A      0.390616    60A      0.401594    61A      0.415220  
      62A      0.427092    63A      0.433870    64A      0.443938  
      65A      0.456575    66A      0.458561    67A      0.479368  
      68A      0.496494    69A      0.498951    70A      0.509648  
      71A      0.511248    72A      0.516570    73A      0.537359  
      74A      0.552830    75A      0.569038    76A      0.577661  
      77A      0.588547    78A      0.613221    79A      0.614205  
      80A      0.636697    81A      0.643392    82A      0.658531  
      83A      0.664708    84A      0.688835    85A      0.692083  
      86A      0.700607    87A      0.709259    88A      0.714994  
      89A      0.754147    90A      0.754619    91A      0.773919  
      92A      0.787671    93A      0.806611    94A      0.816779  
      95A      0.819177    96A      0.832571    97A      0.842812  
      98A      0.844877    99A      0.874592   100A      0.881106  
     101A      0.909016   102A      0.920686   103A      0.935241  
     104A      0.947379   105A      0.965544   106A      0.989713  
     107A      0.994051   108A      0.998387   109A      1.000650  
     110A      1.025322   111A      1.040750   112A      1.052419  
     113A      1.061691   114A      1.061711   115A      1.070560  
     116A      1.092687   117A      1.122115   118A      1.127761  
     119A      1.147008   120A      1.186305   121A      1.186471  
     122A      1.197741   123A      1.203388   124A      1.225301  
     125A      1.237717   126A      1.248772   127A      1.252132  
     128A      1.254663   129A      1.265823   130A      1.274705  
     131A      1.292343   132A      1.297204   133A      1.319602  
     134A      1.328141   135A      1.348725   136A      1.368298  
     137A      1.383978   138A      1.409018   139A      1.411896  
     140A      1.429038   141A      1.447039   142A      1.453060  
     143A      1.476120   144A      1.476232   145A      1.477978  
     146A      1.526877   147A      1.547589   148A      1.551252  
     149A      1.561789   150A      1.573646   151A      1.580198  
     152A      1.587855   153A      1.601265   154A      1.624227  
     155A      1.627768   156A      1.664398   157A      1.691723  
     158A      1.711610   159A      1.734423   160A      1.764019  
     161A      1.785962   162A      1.811522   163A      1.843862  
     164A      1.860948   165A      1.907231   166A      1.925522  
     167A      1.939313   168A      1.987111   169A      2.010810  
     170A      2.063239   171A      2.096503   172A      2.141238  
     173A      2.196331   174A      2.201328   175A      2.244243  
     176A      2.254313   177A      2.299887   178A      2.339701  
     179A      2.349413   180A      2.408244   181A      2.411901  
     182A      2.441226   183A      2.443454   184A      2.469895  
     185A      2.515211   186A      2.540309   187A      2.626879  
     188A      2.627437   189A      2.667947   190A      2.705748  
     191A      2.752539   192A      2.777639   193A      2.789528  
     194A      2.832292   195A      2.846471   196A      2.892402  
     197A      2.918240   198A      2.955346   199A      2.966217  
     200A      2.983400   201A      3.032466   202A      3.095920  
     203A      3.103830   204A      3.156314   205A      3.188375  
     206A      3.200187   207A      3.244071   208A      3.265141  
     209A      3.278824   210A      3.338952   211A      3.355688  
     212A      3.417623   213A      3.423758   214A      3.428042  
     215A      3.463323   216A      3.487254   217A      3.519405  
     218A      3.523568   219A      3.544015   220A      3.558888  
     221A      3.573026   222A      3.609139   223A      3.610967  
     224A      3.622006   225A      3.632241   226A      3.646037  
     227A      3.683827   228A      3.706729   229A      3.748235  
     230A      3.752126   231A      3.767295   232A      3.774530  
     233A      3.792448   234A      3.809562   235A      3.816195  
     236A      3.821887   237A      3.834219   238A      3.847436  
     239A      3.879620   240A      3.910420   241A      3.914940  
     242A      3.984899   243A      3.996999   244A      4.013948  
     245A      4.046375   246A      4.070883   247A      4.122483  
     248A      4.145946   249A      4.161222   250A      4.182918  
     251A      4.192722   252A      4.200454   253A      4.259817  
     254A      4.278801   255A      4.297780   256A      4.304467  
     257A      4.306496   258A      4.322300   259A      4.335658  
     260A      4.380816   261A      4.392161   262A      4.401698  
     263A      4.422219   264A      4.448586   265A      4.490701  
     266A      4.506799   267A      4.512530   268A      4.522621  
     269A      4.547426   270A      4.559851   271A      4.579520  
     272A      4.596218   273A      4.622789   274A      4.636112  
     275A      4.696291   276A      4.718310   277A      4.719439  
     278A      4.735669   279A      4.741303   280A      4.742888  
     281A      4.765733   282A      4.771899   283A      4.779422  
     284A      4.795804   285A      4.805117   286A      4.831193  
     287A      4.834303   288A      4.870968   289A      4.877621  
     290A      4.894508   291A      4.904462   292A      4.945104  
     293A      4.995069   294A      5.021127   295A      5.041329  
     296A      5.090879   297A      5.100253   298A      5.143640  
     299A      5.154536   300A      5.212683   301A      5.274294  
     302A      5.299451   303A      5.374470   304A      5.411910  
     305A      5.434213   306A      5.496301   307A      5.559300  
     308A      5.566071   309A      5.611480   310A      5.630047  
     311A      5.637493   312A      5.643069   313A      5.671916  
     314A      5.680931   315A      5.738499   316A      5.746789  
     317A      5.811144   318A      5.875779   319A      5.881498  
     320A      5.910127   321A      6.024263   322A      6.056516  
     323A      6.090349   324A      6.105174   325A      6.123746  
     326A      6.171960   327A      6.264964   328A      6.267484  
     329A      6.284232   330A      6.337795   331A      6.413430  
     332A      6.436266   333A      6.441907   334A      6.519849  
     335A      6.542802   336A      6.562730   337A      6.676631  
     338A      6.752666   339A      6.757341   340A      6.775197  
     341A      6.911189   342A      6.926905   343A      6.970097  
     344A      6.993186   345A      7.068161   346A      7.155232  
     347A      7.250923   348A      7.273307   349A      7.322098  
     350A      7.350807   351A      7.368257   352A      7.413038  
     353A      7.445319   354A      7.487747   355A      7.526051  
     356A      7.602031   357A      7.657581   358A      7.738383  
     359A      7.778810   360A      7.844200   361A      7.858184  
     362A      7.870090   363A      7.937439   364A      8.129126  
     365A      8.191918   366A      8.307042   367A      8.516956  
     368A      9.346206   369A      9.390126   370A      9.755538  
     371A      9.832400   372A      9.860830   373A      9.886692  
     374A     10.160785   375A     11.016001   376A     11.552636  
     377A     11.907984   378A     12.090756   379A     13.710982  
     380A     13.794224   381A     14.455832   382A     14.659321  
     383A     43.478589   384A     45.668498   385A     60.535811  

    Final Occupation by Irrep:
              A 
    DOCC [    16 ]

  @DF-RHF Final Energy:  -227.90384395524399

   => Energetics <=

    Nuclear Repulsion Energy =            121.2946248135802847
    One-Electron Energy =                -552.0276053822358335
    Two-Electron Energy =                 202.8291366134115492
    Total Energy =                       -227.9038439552439854

Computation Completed


Properties will be evaluated at   0.000000,   0.000000,   0.000000 [a0]

Properties computed using the SCF density matrix

  Nuclear Dipole Moment: [e a0]
     X:  -112.7704      Y:    -3.2704      Z:     0.0000

  Electronic Dipole Moment: [e a0]
     X:   112.3447      Y:     3.9898      Z:    -0.0000

  Dipole Moment: [e a0]
     X:    -0.4258      Y:     0.7195      Z:    -0.0000     Total:     0.8360

  Dipole Moment: [D]
     X:    -1.0822      Y:     1.8287      Z:    -0.0000     Total:     2.1249


*** tstop() called on r282 at Tue Aug 24 05:43:25 2021
Module time:
	user time   =      13.08 seconds =       0.22 minutes
	system time =       0.34 seconds =       0.01 minutes
	total time  =         14 seconds =       0.23 minutes
Total time:
	user time   =      37.56 seconds =       0.63 minutes
	system time =       1.09 seconds =       0.02 minutes
	total time  =         40 seconds =       0.67 minutes

  //>>>>>>>>>>>>>>>>>>>>>>>>>>>>>>>>>>>//
  //            Monomer B HF           //
  //<<<<<<<<<<<<<<<<<<<<<<<<<<<<<<<<<<<//


*** tstart() called on r282
*** at Tue Aug 24 05:43:25 2021

   => Loading Basis Set <=

    Name: JUN-CC-PVTZ
    Role: ORBITAL
    Keyword: BASIS
    atoms 1, 5, 13-14 entry C          line   217 file /home/r09543063/miniconda3/envs/p4env/share/psi4/basis/jun-cc-pvtz.gbs 
    atoms 2-3, 15     entry O          line   305 file /home/r09543063/miniconda3/envs/p4env/share/psi4/basis/jun-cc-pvtz.gbs 
    atoms 4, 6-12     entry H          line    36 file /home/r09543063/miniconda3/envs/p4env/share/psi4/basis/jun-cc-pvtz.gbs 


         ---------------------------------------------------------
                                   SCF
               by Justin Turney, Rob Parrish, Andy Simmonett
                          and Daniel G. A. Smith
                              RHF Reference
                        1 Threads,  20980 MiB Core
         ---------------------------------------------------------

  ==> Geometry <==

    Molecular point group: c1
    Full point group: Cs

    Geometry (in Angstrom), charge = 0, multiplicity = 1:

       Center              X                  Y                   Z               Mass       
    ------------   -----------------  -----------------  -----------------  -----------------
      Gh(C)          -1.750314825348    -0.151373496516     0.000000000000    12.000000000000
      Gh(O)          -1.067139095348    -1.151614194516     0.000000000000    15.994914619570
      Gh(O)          -1.247550805348     1.084349500484     0.000000000000    15.994914619570
      Gh(H)          -0.259545582348     1.039727138484     0.000000000000     1.007825032230
      Gh(C)          -3.254579633348    -0.151893761516     0.000000000000    12.000000000000
      Gh(H)          -3.623871066348    -1.171375573516     0.000000000000     1.007825032230
      Gh(H)          -3.622613282348     0.379377586484    -0.876744631000     1.007825032230
      Gh(H)          -3.622613282348     0.379377586484     0.876744631000     1.007825032230
         H            3.832312161652    -1.080909957516     0.874204506000     1.007825032230
         H            3.832312161652    -1.080909957516    -0.874204506000     1.007825032230
         H            4.167255204652     0.442430989484     0.000000000000     1.007825032230
         H            1.436880216652    -1.055003763516     0.000000000000     1.007825032230
         C            3.584766505652    -0.474471533516     0.000000000000    12.000000000000
         C            2.119661548652    -0.191316195516     0.000000000000    12.000000000000
         O            1.655026100652     0.929585544484     0.000000000000    15.994914619570

  Running in c1 symmetry.

  Rotational constants: A =      0.25138  B =      0.03060  C =      0.02755 [cm^-1]
  Rotational constants: A =   7536.21640  B =    917.29542  C =    826.01881 [MHz]
  Nuclear repulsion =   69.863477528795727

  Charge       = 0
  Multiplicity = 1
  Electrons    = 24
  Nalpha       = 12
  Nbeta        = 12

  ==> Algorithm <==

  SCF Algorithm Type is DF.
  DIIS enabled.
  MOM disabled.
  Fractional occupation disabled.
  Guess Type is SAD.
  Energy threshold   = 1.00e-08
  Density threshold  = 1.00e-08
  Integral threshold = 0.00e+00

  ==> Primary Basis <==

  Basis Set: JUN-CC-PVTZ
    Blend: JUN-CC-PVTZ
    Number of shells: 139
    Number of basis function: 385
    Number of Cartesian functions: 435
    Spherical Harmonics?: true
    Max angular momentum: 3

   => Loading Basis Set <=

    Name: (JUN-CC-PVTZ AUX)
    Role: JKFIT
    Keyword: DF_BASIS_SCF
    atoms 1, 5, 13-14 entry C          line   152 file /home/r09543063/miniconda3/envs/p4env/share/psi4/basis/jun-cc-pvtz-jkfit.gbs 
    atoms 2-3, 15     entry O          line   272 file /home/r09543063/miniconda3/envs/p4env/share/psi4/basis/jun-cc-pvtz-jkfit.gbs 
    atoms 4, 6-12     entry H          line    70 file /home/r09543063/miniconda3/envs/p4env/share/psi4/basis/jun-cc-pvtz-jkfit.gbs 

  ==> Pre-Iterations <==

   -------------------------------------------------------
    Irrep   Nso     Nmo     Nalpha   Nbeta   Ndocc  Nsocc
   -------------------------------------------------------
     A        385     385       0       0       0       0
   -------------------------------------------------------
    Total     385     385      12      12      12       0
   -------------------------------------------------------

  ==> Integral Setup <==

  ==> DiskDFJK: Density-Fitted J/K Matrices <==

    J tasked:                  Yes
    K tasked:                  Yes
    wK tasked:                  No
    OpenMP threads:              1
    Integrals threads:           1
    Memory [MiB]:            15735
    Algorithm:                Core
    Integral Cache:           LOAD
    Schwarz Cutoff:          1E-12
    Fitting Condition:       1E-10

   => Auxiliary Basis Set <=

  Basis Set: (JUN-CC-PVTZ AUX)
    Blend: JUN-CC-PVTZ-JKFIT
    Number of shells: 283
    Number of basis function: 905
    Number of Cartesian functions: 1092
    Spherical Harmonics?: true
    Max angular momentum: 4

  Minimum eigenvalue in the overlap matrix is 5.3182915426E-05.
  Using Symmetric Orthogonalization.

  SCF Guess: Superposition of Atomic Densities via on-the-fly atomic UHF.

  ==> Iterations <==

                           Total Energy        Delta E     RMS |[F,P]|

   @DF-RHF iter SAD:  -152.13422236417424   -1.52134e+02   0.00000e+00 
   @DF-RHF iter   1:  -152.85536987647831   -7.21148e-01   1.27318e-03 DIIS
   @DF-RHF iter   2:  -152.93631238493208   -8.09425e-02   8.67772e-04 DIIS
   @DF-RHF iter   3:  -152.97351842729137   -3.72060e-02   1.45126e-04 DIIS
   @DF-RHF iter   4:  -152.97561948407636   -2.10106e-03   5.65470e-05 DIIS
   @DF-RHF iter   5:  -152.97601294542267   -3.93461e-04   1.12759e-05 DIIS
   @DF-RHF iter   6:  -152.97604218822681   -2.92428e-05   4.50592e-06 DIIS
   @DF-RHF iter   7:  -152.97604611987234   -3.93165e-06   1.71176e-06 DIIS
   @DF-RHF iter   8:  -152.97604672874769   -6.08875e-07   3.73163e-07 DIIS
   @DF-RHF iter   9:  -152.97604675907027   -3.03226e-08   1.04826e-07 DIIS
   @DF-RHF iter  10:  -152.97604676102807   -1.95780e-09   2.20604e-08 DIIS
   @DF-RHF iter  11:  -152.97604676111143   -8.33609e-11   4.13833e-09 DIIS
  Energy and wave function converged.


  ==> Post-Iterations <==

    Orbital Energies [Eh]
    ---------------------

    Doubly Occupied:                                                      

       1A    -20.558735     2A    -11.335683     3A    -11.242234  
       4A     -1.391413     5A     -1.024869     6A     -0.804564  
       7A     -0.676226     8A     -0.624672     9A     -0.605844  
      10A     -0.563634    11A     -0.501973    12A     -0.428457  

    Virtual:                                                              

      13A      0.037808    14A      0.043060    15A      0.057357  
      16A      0.067014    17A      0.071735    18A      0.078585  
      19A      0.079397    20A      0.095763    21A      0.100918  
      22A      0.104047    23A      0.128055    24A      0.135555  
      25A      0.141641    26A      0.152755    27A      0.159974  
      28A      0.163123    29A      0.176460    30A      0.177320  
      31A      0.190705    32A      0.196368    33A      0.201897  
      34A      0.212709    35A      0.217100    36A      0.217143  
      37A      0.234147    38A      0.243475    39A      0.252610  
      40A      0.264546    41A      0.274450    42A      0.283110  
      43A      0.287026    44A      0.292756    45A      0.307282  
      46A      0.325962    47A      0.327097    48A      0.341438  
      49A      0.356475    50A      0.356793    51A      0.365380  
      52A      0.378640    53A      0.380589    54A      0.383861  
      55A      0.395108    56A      0.402697    57A      0.423968  
      58A      0.425346    59A      0.436785    60A      0.449106  
      61A      0.465642    62A      0.466631    63A      0.471786  
      64A      0.477602    65A      0.490152    66A      0.505637  
      67A      0.510108    68A      0.516408    69A      0.524383  
      70A      0.549960    71A      0.567955    72A      0.582692  
      73A      0.592880    74A      0.617293    75A      0.637768  
      76A      0.638456    77A      0.667364    78A      0.670362  
      79A      0.681977    80A      0.695204    81A      0.712725  
      82A      0.726157    83A      0.736405    84A      0.748573  
      85A      0.776121    86A      0.777466    87A      0.784800  
      88A      0.800372    89A      0.807892    90A      0.814148  
      91A      0.829701    92A      0.847671    93A      0.860908  
      94A      0.873464    95A      0.880205    96A      0.884145  
      97A      0.905949    98A      0.932567    99A      0.939900  
     100A      0.946593   101A      0.962957   102A      0.973238  
     103A      0.989539   104A      1.002206   105A      1.008980  
     106A      1.032183   107A      1.035439   108A      1.047190  
     109A      1.050351   110A      1.056522   111A      1.060843  
     112A      1.082786   113A      1.096626   114A      1.098444  
     115A      1.121417   116A      1.128293   117A      1.145245  
     118A      1.164460   119A      1.203857   120A      1.223511  
     121A      1.232857   122A      1.241905   123A      1.253436  
     124A      1.261101   125A      1.268910   126A      1.291385  
     127A      1.304290   128A      1.316547   129A      1.331042  
     130A      1.338158   131A      1.339244   132A      1.362488  
     133A      1.396214   134A      1.412028   135A      1.424470  
     136A      1.434192   137A      1.444389   138A      1.459650  
     139A      1.481819   140A      1.505456   141A      1.540482  
     142A      1.546839   143A      1.549226   144A      1.559147  
     145A      1.580512   146A      1.584972   147A      1.595702  
     148A      1.620545   149A      1.629678   150A      1.661599  
     151A      1.681861   152A      1.696801   153A      1.750628  
     154A      1.761838   155A      1.801624   156A      1.807411  
     157A      1.831283   158A      1.858878   159A      1.866086  
     160A      1.886503   161A      1.912780   162A      1.919862  
     163A      1.950861   164A      1.965269   165A      2.030673  
     166A      2.088033   167A      2.113987   168A      2.146069  
     169A      2.160303   170A      2.258501   171A      2.302068  
     172A      2.339119   173A      2.371882   174A      2.405812  
     175A      2.413044   176A      2.499482   177A      2.516468  
     178A      2.555195   179A      2.590136   180A      2.597570  
     181A      2.615625   182A      2.662011   183A      2.718188  
     184A      2.732733   185A      2.741893   186A      2.764159  
     187A      2.780399   188A      2.789954   189A      2.834658  
     190A      2.864080   191A      2.906175   192A      2.929203  
     193A      2.955148   194A      2.959227   195A      2.985200  
     196A      3.023780   197A      3.041139   198A      3.058275  
     199A      3.058994   200A      3.067318   201A      3.091720  
     202A      3.134332   203A      3.158619   204A      3.186416  
     205A      3.222086   206A      3.262096   207A      3.331933  
     208A      3.345205   209A      3.355884   210A      3.382880  
     211A      3.417070   212A      3.427454   213A      3.435258  
     214A      3.479522   215A      3.498247   216A      3.537619  
     217A      3.540853   218A      3.577709   219A      3.594754  
     220A      3.607663   221A      3.620820   222A      3.623870  
     223A      3.636909   224A      3.652474   225A      3.652996  
     226A      3.693840   227A      3.749989   228A      3.762447  
     229A      3.764166   230A      3.781985   231A      3.794915  
     232A      3.818056   233A      3.851546   234A      3.871056  
     235A      3.871839   236A      3.928773   237A      3.954053  
     238A      3.960508   239A      3.981536   240A      3.990243  
     241A      4.003964   242A      4.011566   243A      4.095326  
     244A      4.115587   245A      4.148960   246A      4.168346  
     247A      4.194416   248A      4.242226   249A      4.249215  
     250A      4.272482   251A      4.272866   252A      4.291195  
     253A      4.317310   254A      4.339875   255A      4.358980  
     256A      4.368702   257A      4.370961   258A      4.375023  
     259A      4.412722   260A      4.450953   261A      4.480852  
     262A      4.484191   263A      4.510211   264A      4.522128  
     265A      4.551242   266A      4.583175   267A      4.603231  
     268A      4.655057   269A      4.659082   270A      4.694264  
     271A      4.706389   272A      4.736294   273A      4.751063  
     274A      4.760137   275A      4.767619   276A      4.771962  
     277A      4.789768   278A      4.813216   279A      4.813603  
     280A      4.855242   281A      4.878558   282A      4.893940  
     283A      4.914129   284A      4.938388   285A      4.949587  
     286A      4.991433   287A      4.993699   288A      5.019531  
     289A      5.057136   290A      5.067055   291A      5.082453  
     292A      5.117488   293A      5.124439   294A      5.140640  
     295A      5.179815   296A      5.219576   297A      5.262455  
     298A      5.311282   299A      5.356105   300A      5.366755  
     301A      5.446206   302A      5.451524   303A      5.498121  
     304A      5.535392   305A      5.583296   306A      5.653360  
     307A      5.659224   308A      5.664647   309A      5.691711  
     310A      5.709298   311A      5.719057   312A      5.722358  
     313A      5.820164   314A      5.868327   315A      5.981256  
     316A      6.033813   317A      6.055951   318A      6.087482  
     319A      6.116621   320A      6.143883   321A      6.166766  
     322A      6.278462   323A      6.322796   324A      6.351462  
     325A      6.408343   326A      6.412476   327A      6.429685  
     328A      6.446817   329A      6.493004   330A      6.520445  
     331A      6.648995   332A      6.723533   333A      6.786261  
     334A      6.816008   335A      6.930078   336A      7.048710  
     337A      7.151503   338A      7.174851   339A      7.196731  
     340A      7.202695   341A      7.293979   342A      7.336406  
     343A      7.414869   344A      7.526372   345A      7.528818  
     346A      7.558586   347A      7.703261   348A      7.718247  
     349A      7.722086   350A      7.810766   351A      7.821706  
     352A      7.832670   353A      7.931500   354A      8.045012  
     355A      8.138568   356A      8.310369   357A      8.668065  
     358A      8.850395   359A      9.138266   360A      9.423639  
     361A      9.698895   362A      9.771245   363A      9.852065  
     364A      9.901917   365A      9.901985   366A      9.917291  
     367A      9.945357   368A     10.073520   369A     10.368760  
     370A     10.497141   371A     11.062239   372A     11.341534  
     373A     11.544953   374A     11.620432   375A     11.968450  
     376A     12.400722   377A     13.094872   378A     13.771566  
     379A     13.991227   380A     14.247091   381A     14.508704  
     382A     42.798222   383A     45.911870   384A     61.075411  
     385A     61.591433  

    Final Occupation by Irrep:
              A 
    DOCC [    12 ]

  @DF-RHF Final Energy:  -152.97604676111143

   => Energetics <=

    Nuclear Repulsion Energy =             69.8634775287957268
    One-Electron Energy =                -346.1624428384245107
    Two-Electron Energy =                 123.3229185485173502
    Total Energy =                       -152.9760467611114336

Computation Completed


Properties will be evaluated at   0.000000,   0.000000,   0.000000 [a0]

Properties computed using the SCF density matrix

  Nuclear Dipole Moment: [e a0]
     X:   114.7735      Y:     1.2615      Z:     0.0000

  Electronic Dipole Moment: [e a0]
     X:  -114.1115      Y:    -2.3751      Z:    -0.0000

  Dipole Moment: [e a0]
     X:     0.6620      Y:    -1.1136      Z:    -0.0000     Total:     1.2955

  Dipole Moment: [D]
     X:     1.6827      Y:    -2.8305      Z:    -0.0000     Total:     3.2929


*** tstop() called on r282 at Tue Aug 24 05:43:37 2021
Module time:
	user time   =      11.70 seconds =       0.20 minutes
	system time =       0.25 seconds =       0.00 minutes
	total time  =         12 seconds =       0.20 minutes
Total time:
	user time   =      49.27 seconds =       0.82 minutes
	system time =       1.34 seconds =       0.02 minutes
	total time  =         52 seconds =       0.87 minutes
  Constructing Basis Sets for SAPT...

   => Loading Basis Set <=

    Name: (JUN-CC-PVTZ AUX)
    Role: RIFIT
    Keyword: DF_BASIS_SAPT
    atoms 1, 5, 13-14 entry C          line   132 file /home/r09543063/miniconda3/envs/p4env/share/psi4/basis/jun-cc-pvtz-ri.gbs 
    atoms 2-3, 15     entry O          line   244 file /home/r09543063/miniconda3/envs/p4env/share/psi4/basis/jun-cc-pvtz-ri.gbs 
    atoms 4, 6-12     entry H          line    30 file /home/r09543063/miniconda3/envs/p4env/share/psi4/basis/jun-cc-pvtz-ri.gbs 


  //>>>>>>>>>>>>>>>>>>>>>>>>>>>>>>>>>>>//
  //               SAPT0               //
  //<<<<<<<<<<<<<<<<<<<<<<<<<<<<<<<<<<<//


*** tstart() called on r282
*** at Tue Aug 24 05:43:37 2021

        SAPT0  
    Ed Hohenstein
     6 June 2009

      Orbital Information
  --------------------------
    NSO        =       385
    NMO        =       385
    NRI        =       919
    NOCC A     =        16
    NOCC B     =        12
    FOCC A     =         4
    FOCC B     =         3
    NVIR A     =       369
    NVIR B     =       373

    Elst10,r            =    -0.020882366037 [Eh]
    Exch10              =     0.014622447965 [Eh]
    Exch10 (S^2)        =     0.014539074906 [Eh]

    Iter     Energy [mEh]          dE [mEh]         Residual      Time [s]
       1      -2.25600753       2.256007526       8.013255188             0
       2      -2.61898576       0.362978238       4.173619596             1
       3      -2.71681961       0.097833846       1.203593423             1
       4      -2.70183426      -0.014985355       0.490980910             1
       5      -2.69647137      -0.005362883       0.138648536             2
       6      -2.69842408       0.001952707       0.054054672             2
       7      -2.69877553       0.000351446       0.012164682             3
       8      -2.69860338      -0.000172144       0.004144954             3
       9      -2.69858944      -0.000013945       0.001290483             4
      10      -2.69860164       0.000012205       0.000331412             4
      11      -2.69860212       0.000000474       0.000064827             5
      12      -2.69860155      -0.000000570       0.000016422             6
      13      -2.69860153      -0.000000017       0.000004410             6
      14      -2.69860157       0.000000043       0.000000825             7

    CHF Iterations converged


    Iter     Energy [mEh]          dE [mEh]         Residual      Time [s]
       1      -4.41907795       4.419077950      17.188076409             0
       2      -5.14804326       0.728965308       9.656544514             0
       3      -5.78424770       0.636204447       2.145780392             1
       4      -5.73875665      -0.045491052       0.857257869             1
       5      -5.73194264      -0.006814014       0.264111304             2
       6      -5.73693327       0.004990627       0.089363526             2
       7      -5.73724274       0.000309474       0.017958999             3
       8      -5.73695138      -0.000291360       0.003411047             3
       9      -5.73698129       0.000029907       0.000702085             3
      10      -5.73698628       0.000004997       0.000130944             4
      11      -5.73698453      -0.000001759       0.000025845             4
      12      -5.73698462       0.000000090       0.000006991             5
      13      -5.73698467       0.000000052       0.000001748             5
      14      -5.73698466      -0.000000006       0.000000382             5

    CHF Iterations converged

    Ind20,r (A<-B)      =    -0.002698601573 [Eh]
    Ind20,r (B<-A)      =    -0.005736984661 [Eh]
    Ind20,r             =    -0.008435586235 [Eh]
    Exch-Ind20,r (A<-B) =     0.001741140602 [Eh]
    Exch-Ind20,r (B<-A) =     0.002291716415 [Eh]
    Exch-Ind20,r        =     0.004032857017 [Eh]
    Disp20              =    -0.007046990281 [Eh]
    Disp20 (SS)         =    -0.003523495140 [Eh]
    Disp20 (OS)         =    -0.003523495140 [Eh]
    Exch-Disp20         =     0.001078123292 [Eh]
    Exch-Disp20 (SS)    =     0.000675602549 [Eh]
    Exch-Disp20 (OS)    =     0.000402520742 [Eh]

    SAPT Results 
  --------------------------------------------------------------------------------------------------------
    Electrostatics                -20.88236604 [mEh]     -13.10388252 [kcal/mol]     -54.82664448 [kJ/mol]
      Elst10,r                    -20.88236604 [mEh]     -13.10388252 [kcal/mol]     -54.82664448 [kJ/mol]

    Exchange                       14.62244796 [mEh]       9.17572463 [kcal/mol]      38.39123184 [kJ/mol]
      Exch10                       14.62244796 [mEh]       9.17572463 [kcal/mol]      38.39123184 [kJ/mol]
      Exch10(S^2)                  14.53907491 [mEh]       9.12340724 [kcal/mol]      38.17233591 [kJ/mol]

    Induction                      -7.04843441 [mEh]      -4.42295937 [kcal/mol]     -18.50566200 [kJ/mol]
      Ind20,r                      -8.43558623 [mEh]      -5.29341028 [kcal/mol]     -22.14762861 [kJ/mol]
      Exch-Ind20,r                  4.03285702 [mEh]       2.53065598 [kcal/mol]      10.58826464 [kJ/mol]
      delta HF,r (2)               -2.64570520 [mEh]      -1.66020508 [kcal/mol]      -6.94629804 [kJ/mol]

    Dispersion                     -5.96886699 [mEh]      -3.74552058 [kcal/mol]     -15.67125812 [kJ/mol]
      Disp20                       -7.04699028 [mEh]      -4.42205316 [kcal/mol]     -18.50187043 [kJ/mol]
      Exch-Disp20                   1.07812329 [mEh]       0.67653258 [kcal/mol]       2.83061231 [kJ/mol]
      Disp20 (SS)                  -3.52349514 [mEh]      -2.21102658 [kcal/mol]      -9.25093522 [kJ/mol]
      Disp20 (OS)                  -3.52349514 [mEh]      -2.21102658 [kcal/mol]      -9.25093522 [kJ/mol]
      Exch-Disp20 (SS)              0.67560255 [mEh]       0.42394700 [kcal/mol]       1.77379425 [kJ/mol]
      Exch-Disp20 (OS)              0.40252074 [mEh]       0.25258558 [kcal/mol]       1.05681806 [kJ/mol]

  Total HF                        -13.30835249 [mEh]      -8.35111727 [kcal/mol]     -34.94107464 [kJ/mol]
  Total SAPT0                     -19.27721947 [mEh]     -12.09663785 [kcal/mol]     -50.61233276 [kJ/mol]

  Special recipe for scaled SAPT0 (see Manual):
    Electrostatics sSAPT0         -20.88236604 [mEh]     -13.10388252 [kcal/mol]     -54.82664448 [kJ/mol]
    Exchange sSAPT0                14.62244796 [mEh]       9.17572463 [kcal/mol]      38.39123184 [kJ/mol]
    Induction sSAPT0               -6.97865761 [mEh]      -4.37917376 [kcal/mol]     -18.32246302 [kJ/mol]
    Dispersion sSAPT0              -5.95021322 [mEh]      -3.73381516 [kcal/mol]     -15.62228265 [kJ/mol]
  Total sSAPT0                    -19.18878890 [mEh]     -12.04114682 [kcal/mol]     -50.38015831 [kJ/mol]
  --------------------------------------------------------------------------------------------------------

*** tstop() called on r282 at Tue Aug 24 05:44:23 2021
Module time:
	user time   =      36.80 seconds =       0.61 minutes
	system time =       7.98 seconds =       0.13 minutes
	total time  =         46 seconds =       0.77 minutes
Total time:
	user time   =      86.17 seconds =       1.44 minutes
	system time =       9.32 seconds =       0.16 minutes
	total time  =         98 seconds =       1.63 minutes

    Psi4 stopped on: Tuesday, 24 August 2021 05:44AM
    Psi4 wall time for execution: 0:01:37.56

*** Psi4 exiting successfully. Buy a developer a beer!
