
    -----------------------------------------------------------------------
          Psi4: An Open-Source Ab Initio Electronic Structure Package
                               Psi4 1.3.2 release

                         Git: Rev {HEAD} ecbda83 


    R. M. Parrish, L. A. Burns, D. G. A. Smith, A. C. Simmonett,
    A. E. DePrince III, E. G. Hohenstein, U. Bozkaya, A. Yu. Sokolov,
    R. Di Remigio, R. M. Richard, J. F. Gonthier, A. M. James,
    H. R. McAlexander, A. Kumar, M. Saitow, X. Wang, B. P. Pritchard,
    P. Verma, H. F. Schaefer III, K. Patkowski, R. A. King, E. F. Valeev,
    F. A. Evangelista, J. M. Turney, T. D. Crawford, and C. D. Sherrill,
    J. Chem. Theory Comput. 13(7) pp 3185--3197 (2017).
    (doi: 10.1021/acs.jctc.7b00174)


                         Additional Contributions by
    P. Kraus, H. Kruse, M. H. Lechner, M. C. Schieber, R. A. Shaw,
    A. Alenaizan, R. Galvelis, Z. L. Glick, S. Lehtola, and J. P. Misiewicz

    -----------------------------------------------------------------------


    Psi4 started on: Friday, 10 September 2021 01:16PM

    Process ID: 56673
    Host:       r282
    PSIDATADIR: /home/r08543048/miniconda3/share/psi4
    Memory:     500.0 MiB
    Threads:    1
    
  ==> Input File <==

--------------------------------------------------------------------------
# Any line starting with the # character is a comment line
#! Sample  computation

memory 22 gb

molecule Dimer {
0 1
 C  3.452390   -0.918375    0.000008
 C  2.701365    0.400918    0.000047
 C  1.206677    0.220650   -0.000012
 O  0.639423   -0.857603   -0.000052
 O  0.564234    1.395100   -0.000014
 H  3.196974   -1.508323   -0.877730
 H  4.526948   -0.743760    0.000067
 
H  3.196892   -1.508419    0.877658
 H  2.953789    1.008873   -0.870335
 
H  2.953726    1.008783    0.870511
 H -0.407819    1.214431   -0.000057
   
    
 --
0 1
 H -1.719249   -1.041485   -0.000051
 C -3.918822   -0.700401    0.000039
 C -2.493270   -0.261101   -0.000018
 O -2.154247    0.914815   -0.000008
 H -4.590019    0.153065    0.000080
 H -4.098315   -1.325890   -0.875713
 H -4.098243   -1.325919    0.875783









 
 







units angstrom

no_reorient
symmetry c1
}

set globals{
  basis jun-cc-pvtz
}

energy('sapt0')


--------------------------------------------------------------------------

  Memory set to  20.489 GiB by Python driver.

  //>>>>>>>>>>>>>>>>>>>>>>>>>>>>>>>>>>>//
  //              Dimer HF             //
  //<<<<<<<<<<<<<<<<<<<<<<<<<<<<<<<<<<<//


*** tstart() called on r282
*** at Fri Sep 10 13:16:17 2021

   => Loading Basis Set <=

    Name: JUN-CC-PVTZ
    Role: ORBITAL
    Keyword: BASIS
    atoms 1-3, 13-14  entry C          line   217 file /home/r08543048/miniconda3/share/psi4/basis/jun-cc-pvtz.gbs 
    atoms 4-5, 15     entry O          line   305 file /home/r08543048/miniconda3/share/psi4/basis/jun-cc-pvtz.gbs 
    atoms 6-12, 16-18 entry H          line    36 file /home/r08543048/miniconda3/share/psi4/basis/jun-cc-pvtz.gbs 


         ---------------------------------------------------------
                                   SCF
               by Justin Turney, Rob Parrish, Andy Simmonett
                          and Daniel G. A. Smith
                              RHF Reference
                        1 Threads,  20980 MiB Core
         ---------------------------------------------------------

  ==> Geometry <==

    Molecular point group: c1
    Full point group: C1

    Geometry (in Angstrom), charge = 0, multiplicity = 1:

       Center              X                  Y                   Z               Mass       
    ------------   -----------------  -----------------  -----------------  -----------------
         C            3.468439562671    -0.952504383203     0.000009702116    12.000000000000
         C            2.717414562671     0.366788616797     0.000048702116    12.000000000000
         C            1.222726562671     0.186520616797    -0.000010297884    12.000000000000
         O            0.655472562671    -0.891732383203    -0.000050297884    15.994914619570
         O            0.580283562671     1.360970616797    -0.000012297884    15.994914619570
         H            3.213023562671    -1.542452383203    -0.877728297884     1.007825032230
         H            4.542997562671    -0.777889383203     0.000068702116     1.007825032230
         H            3.212941562671    -1.542548383203     0.877659702116     1.007825032230
         H            2.969838562671     0.974743616797    -0.870333297884     1.007825032230
         H            2.969775562671     0.974653616797     0.870512702116     1.007825032230
         H           -0.391769437329     1.180301616797    -0.000055297884     1.007825032230
         H           -1.703199437329    -1.075614383203    -0.000049297884     1.007825032230
         C           -3.902772437329    -0.734530383203     0.000040702116    12.000000000000
         C           -2.477220437329    -0.295230383203    -0.000016297884    12.000000000000
         O           -2.138197437329     0.880685616797    -0.000006297884    15.994914619570
         H           -4.573969437329     0.118935616797     0.000081702116     1.007825032230
         H           -4.082265437329    -1.360019383203    -0.875711297884     1.007825032230
         H           -4.082193437329    -1.360048383203     0.875784702116     1.007825032230

  Running in c1 symmetry.

  Rotational constants: A =      0.18045  B =      0.02359  C =      0.02111 [cm^-1]
  Rotational constants: A =   5409.76515  B =    707.30611  C =    632.76727 [MHz]
  Nuclear repulsion =  364.172049529343269

  Charge       = 0
  Multiplicity = 1
  Electrons    = 64
  Nalpha       = 32
  Nbeta        = 32

  ==> Algorithm <==

  SCF Algorithm Type is DF.
  DIIS enabled.
  MOM disabled.
  Fractional occupation disabled.
  Guess Type is SAD.
  Energy threshold   = 1.00e-08
  Density threshold  = 1.00e-08
  Integral threshold = 0.00e+00

  ==> Primary Basis <==

  Basis Set: JUN-CC-PVTZ
    Blend: JUN-CC-PVTZ
    Number of shells: 164
    Number of basis function: 452
    Number of Cartesian functions: 510
    Spherical Harmonics?: true
    Max angular momentum: 3

   => Loading Basis Set <=

    Name: (JUN-CC-PVTZ AUX)
    Role: JKFIT
    Keyword: DF_BASIS_SCF
    atoms 1-3, 13-14  entry C          line   152 file /home/r08543048/miniconda3/share/psi4/basis/jun-cc-pvtz-jkfit.gbs 
    atoms 4-5, 15     entry O          line   272 file /home/r08543048/miniconda3/share/psi4/basis/jun-cc-pvtz-jkfit.gbs 
    atoms 6-12, 16-18 entry H          line    70 file /home/r08543048/miniconda3/share/psi4/basis/jun-cc-pvtz-jkfit.gbs 

  ==> Pre-Iterations <==

   -------------------------------------------------------
    Irrep   Nso     Nmo     Nalpha   Nbeta   Ndocc  Nsocc
   -------------------------------------------------------
     A        452     452       0       0       0       0
   -------------------------------------------------------
    Total     452     452      32      32      32       0
   -------------------------------------------------------

  ==> Integral Setup <==

  ==> DiskDFJK: Density-Fitted J/K Matrices <==

    J tasked:                  Yes
    K tasked:                  Yes
    wK tasked:                  No
    OpenMP threads:              1
    Integrals threads:           1
    Memory [MiB]:            15735
    Algorithm:                Core
    Integral Cache:           SAVE
    Schwarz Cutoff:          1E-12
    Fitting Condition:       1E-10

   => Auxiliary Basis Set <=

  Basis Set: (JUN-CC-PVTZ AUX)
    Blend: JUN-CC-PVTZ-JKFIT
    Number of shells: 332
    Number of basis function: 1060
    Number of Cartesian functions: 1278
    Spherical Harmonics?: true
    Max angular momentum: 4

  Minimum eigenvalue in the overlap matrix is 3.6625889536E-05.
  Using Symmetric Orthogonalization.

  SCF Guess: Superposition of Atomic Densities via on-the-fly atomic UHF.

  ==> Iterations <==

                           Total Energy        Delta E     RMS |[F,P]|

   @DF-RHF iter SAD:  -418.34035758712395   -4.18340e+02   0.00000e+00 
   @DF-RHF iter   1:  -419.64316095559963   -1.30280e+00   1.73378e-03 DIIS
   @DF-RHF iter   2:  -419.86403138635336   -2.20870e-01   1.00565e-03 DIIS
   @DF-RHF iter   3:  -419.93404057964858   -7.00092e-02   1.87056e-04 DIIS
   @DF-RHF iter   4:  -419.93854121359755   -4.50063e-03   8.33054e-05 DIIS
   @DF-RHF iter   5:  -419.93943482328604   -8.93610e-04   1.68725e-05 DIIS
   @DF-RHF iter   6:  -419.93949882257925   -6.39993e-05   8.38379e-06 DIIS
   @DF-RHF iter   7:  -419.93951123816674   -1.24156e-05   3.03409e-06 DIIS
   @DF-RHF iter   8:  -419.93951392714445   -2.68898e-06   1.10743e-06 DIIS
   @DF-RHF iter   9:  -419.93951431514745   -3.88003e-07   2.84007e-07 DIIS
   @DF-RHF iter  10:  -419.93951433810537   -2.29579e-08   7.88815e-08 DIIS
   @DF-RHF iter  11:  -419.93951433957028   -1.46491e-09   1.92944e-08 DIIS
   @DF-RHF iter  12:  -419.93951433965844   -8.81641e-11   5.06150e-09 DIIS
  Energy and wave function converged.


  ==> Post-Iterations <==

    Orbital Energies [Eh]
    ---------------------

    Doubly Occupied:                                                      

       1A    -20.582565     2A    -20.575131     3A    -20.534464  
       4A    -11.371823     5A    -11.347341     6A    -11.247729  
       7A    -11.236272     8A    -11.214185     9A     -1.442601  
      10A     -1.405102    11A     -1.339860    12A     -1.056485  
      13A     -1.033400    14A     -0.903687    15A     -0.815172  
      16A     -0.781574    17A     -0.701961    18A     -0.685077  
      19A     -0.669445    20A     -0.647367    21A     -0.635987  
      22A     -0.613802    23A     -0.581457    24A     -0.577732  
      25A     -0.564905    26A     -0.523512    27A     -0.518505  
      28A     -0.516304    29A     -0.495040    30A     -0.464858  
      31A     -0.445413    32A     -0.438051  

    Virtual:                                                              

      33A      0.041886    34A      0.054109    35A      0.064252  
      36A      0.069820    37A      0.070758    38A      0.078143  
      39A      0.079620    40A      0.097306    41A      0.099283  
      42A      0.104095    43A      0.111012    44A      0.112614  
      45A      0.123525    46A      0.130794    47A      0.146396  
      48A      0.156739    49A      0.166387    50A      0.176928  
      51A      0.186336    52A      0.191385    53A      0.194898  
      54A      0.195998    55A      0.201567    56A      0.216329  
      57A      0.224142    58A      0.227775    59A      0.240907  
      60A      0.253955    61A      0.263794    62A      0.265262  
      63A      0.270053    64A      0.273713    65A      0.288775  
      66A      0.291162    67A      0.299266    68A      0.300398  
      69A      0.302689    70A      0.312323    71A      0.317486  
      72A      0.323535    73A      0.327462    74A      0.334209  
      75A      0.343747    76A      0.345302    77A      0.358599  
      78A      0.364742    79A      0.379516    80A      0.392513  
      81A      0.396943    82A      0.404147    83A      0.406118  
      84A      0.416291    85A      0.433610    86A      0.439601  
      87A      0.442869    88A      0.450587    89A      0.456274  
      90A      0.467794    91A      0.468027    92A      0.478110  
      93A      0.505392    94A      0.515291    95A      0.519841  
      96A      0.529316    97A      0.546650    98A      0.551737  
      99A      0.559570   100A      0.560974   101A      0.563581  
     102A      0.573898   103A      0.619602   104A      0.627017  
     105A      0.632458   106A      0.636433   107A      0.641519  
     108A      0.668494   109A      0.677834   110A      0.687992  
     111A      0.694575   112A      0.700596   113A      0.704542  
     114A      0.719215   115A      0.727019   116A      0.729319  
     117A      0.738251   118A      0.741686   119A      0.746822  
     120A      0.772814   121A      0.785322   122A      0.792082  
     123A      0.804594   124A      0.806536   125A      0.809225  
     126A      0.816405   127A      0.827190   128A      0.844414  
     129A      0.851748   130A      0.854653   131A      0.862638  
     132A      0.870719   133A      0.877772   134A      0.892169  
     135A      0.896250   136A      0.906272   137A      0.925317  
     138A      0.932795   139A      0.960736   140A      0.961012  
     141A      0.964900   142A      0.970592   143A      0.985698  
     144A      1.000923   145A      1.016725   146A      1.038339  
     147A      1.042581   148A      1.049645   149A      1.060175  
     150A      1.082174   151A      1.097410   152A      1.101512  
     153A      1.106070   154A      1.134019   155A      1.141275  
     156A      1.148039   157A      1.181939   158A      1.209710  
     159A      1.236656   160A      1.239663   161A      1.245592  
     162A      1.255519   163A      1.259051   164A      1.278326  
     165A      1.288374   166A      1.302529   167A      1.312695  
     168A      1.339249   169A      1.341695   170A      1.361434  
     171A      1.373836   172A      1.374174   173A      1.384404  
     174A      1.399709   175A      1.403895   176A      1.423026  
     177A      1.436076   178A      1.438592   179A      1.441908  
     180A      1.456209   181A      1.466244   182A      1.479854  
     183A      1.494778   184A      1.496778   185A      1.518465  
     186A      1.531522   187A      1.541075   188A      1.551129  
     189A      1.551948   190A      1.574890   191A      1.578599  
     192A      1.590912   193A      1.591686   194A      1.618573  
     195A      1.642730   196A      1.643084   197A      1.676744  
     198A      1.685720   199A      1.688519   200A      1.722623  
     201A      1.753544   202A      1.755763   203A      1.796901  
     204A      1.802069   205A      1.812372   206A      1.828092  
     207A      1.837078   208A      1.859808   209A      1.875176  
     210A      1.908042   211A      1.911387   212A      1.931666  
     213A      1.971740   214A      2.063376   215A      2.112191  
     216A      2.133703   217A      2.220857   218A      2.239529  
     219A      2.267275   220A      2.294212   221A      2.307047  
     222A      2.310761   223A      2.363767   224A      2.414382  
     225A      2.444937   226A      2.453746   227A      2.523529  
     228A      2.542608   229A      2.600422   230A      2.631281  
     231A      2.649808   232A      2.665919   233A      2.685660  
     234A      2.707419   235A      2.745327   236A      2.758370  
     237A      2.772163   238A      2.796746   239A      2.804774  
     240A      2.860547   241A      2.898538   242A      2.900818  
     243A      2.918428   244A      2.939066   245A      2.960223  
     246A      2.977558   247A      3.002966   248A      3.031714  
     249A      3.035339   250A      3.054410   251A      3.078298  
     252A      3.085787   253A      3.090794   254A      3.121427  
     255A      3.133179   256A      3.136021   257A      3.152656  
     258A      3.154999   259A      3.189968   260A      3.217304  
     261A      3.217522   262A      3.246886   263A      3.255082  
     264A      3.293677   265A      3.309353   266A      3.317490  
     267A      3.325251   268A      3.353483   269A      3.356274  
     270A      3.373824   271A      3.383159   272A      3.390933  
     273A      3.401355   274A      3.415081   275A      3.453685  
     276A      3.470138   277A      3.474400   278A      3.486971  
     279A      3.487198   280A      3.496583   281A      3.499873  
     282A      3.522931   283A      3.526979   284A      3.528976  
     285A      3.566926   286A      3.574130   287A      3.600034  
     288A      3.613854   289A      3.619273   290A      3.625443  
     291A      3.640250   292A      3.655288   293A      3.663875  
     294A      3.671847   295A      3.684596   296A      3.726691  
     297A      3.740259   298A      3.748369   299A      3.756249  
     300A      3.775550   301A      3.793501   302A      3.794257  
     303A      3.802508   304A      3.806497   305A      3.851394  
     306A      3.865079   307A      3.884729   308A      3.889758  
     309A      3.908571   310A      3.920564   311A      3.955273  
     312A      3.965077   313A      3.988202   314A      4.000894  
     315A      4.013883   316A      4.065872   317A      4.073348  
     318A      4.105998   319A      4.128640   320A      4.165665  
     321A      4.186925   322A      4.220722   323A      4.223188  
     324A      4.228130   325A      4.247573   326A      4.260851  
     327A      4.261030   328A      4.294648   329A      4.296804  
     330A      4.312546   331A      4.317019   332A      4.349597  
     333A      4.358993   334A      4.363616   335A      4.374080  
     336A      4.375603   337A      4.408652   338A      4.413154  
     339A      4.436218   340A      4.445875   341A      4.468926  
     342A      4.481149   343A      4.487567   344A      4.493341  
     345A      4.538144   346A      4.548989   347A      4.596562  
     348A      4.605429   349A      4.636339   350A      4.643348  
     351A      4.679227   352A      4.692744   353A      4.700356  
     354A      4.717255   355A      4.722476   356A      4.740920  
     357A      4.755808   358A      4.766994   359A      4.791602  
     360A      4.799731   361A      4.817865   362A      4.875302  
     363A      4.925380   364A      4.937701   365A      4.970363  
     366A      5.012615   367A      5.026697   368A      5.061024  
     369A      5.120239   370A      5.140846   371A      5.142283  
     372A      5.158189   373A      5.231839   374A      5.258790  
     375A      5.276039   376A      5.278745   377A      5.303442  
     378A      5.322533   379A      5.328108   380A      5.347209  
     381A      5.366700   382A      5.446949   383A      5.464636  
     384A      5.481174   385A      5.515768   386A      5.534985  
     387A      5.582082   388A      5.594799   389A      5.623900  
     390A      5.651583   391A      5.659448   392A      5.660168  
     393A      5.689791   394A      5.705653   395A      5.718942  
     396A      5.743562   397A      5.744620   398A      5.758639  
     399A      5.812744   400A      5.830885   401A      5.851537  
     402A      5.882741   403A      5.891878   404A      5.904263  
     405A      5.914712   406A      5.994059   407A      6.038868  
     408A      6.072717   409A      6.084233   410A      6.121964  
     411A      6.156292   412A      6.311994   413A      6.363486  
     414A      6.405103   415A      6.418947   416A      6.484218  
     417A      6.502738   418A      6.506883   419A      6.569252  
     420A      6.743880   421A      6.772788   422A      6.774103  
     423A      6.917130   424A      6.968006   425A      6.976632  
     426A      7.106833   427A      7.160261   428A      7.236411  
     429A      7.250816   430A      7.289314   431A      7.322820  
     432A      7.331928   433A      7.382025   434A      7.414263  
     435A      7.436663   436A      7.444690   437A      7.470552  
     438A      7.682478   439A      7.703087   440A      7.737387  
     441A      7.780597   442A      7.900438   443A      8.027104  
     444A      8.290799   445A     12.155103   446A     12.412083  
     447A     13.844829   448A     14.123711   449A     14.206561  
     450A     14.489746   451A     14.554143   452A     14.733065  

    Final Occupation by Irrep:
              A 
    DOCC [    32 ]

  @DF-RHF Final Energy:  -419.93951433965844

   => Energetics <=

    Nuclear Repulsion Energy =            364.1720495293432691
    One-Electron Energy =               -1296.2895082897034627
    Two-Electron Energy =                 512.1779444207018059
    Total Energy =                       -419.9395143396584444

Computation Completed


Properties will be evaluated at   0.000000,   0.000000,   0.000000 [a0]

Properties computed using the SCF density matrix

  Nuclear Dipole Moment: [e a0]
     X:     1.9411      Y:    -4.1277      Z:     0.0002

  Electronic Dipole Moment: [e a0]
     X:    -2.4496      Y:     3.5186      Z:    -0.0002

  Dipole Moment: [e a0]
     X:    -0.5085      Y:    -0.6091      Z:     0.0000     Total:     0.7934

  Dipole Moment: [D]
     X:    -1.2925      Y:    -1.5481      Z:     0.0001     Total:     2.0167


*** tstop() called on r282 at Fri Sep 10 13:17:01 2021
Module time:
	user time   =      42.65 seconds =       0.71 minutes
	system time =       1.10 seconds =       0.02 minutes
	total time  =         44 seconds =       0.73 minutes
Total time:
	user time   =      42.65 seconds =       0.71 minutes
	system time =       1.10 seconds =       0.02 minutes
	total time  =         44 seconds =       0.73 minutes

  //>>>>>>>>>>>>>>>>>>>>>>>>>>>>>>>>>>>//
  //            Monomer A HF           //
  //<<<<<<<<<<<<<<<<<<<<<<<<<<<<<<<<<<<//


*** tstart() called on r282
*** at Fri Sep 10 13:17:01 2021

   => Loading Basis Set <=

    Name: JUN-CC-PVTZ
    Role: ORBITAL
    Keyword: BASIS
    atoms 1-3, 13-14  entry C          line   217 file /home/r08543048/miniconda3/share/psi4/basis/jun-cc-pvtz.gbs 
    atoms 4-5, 15     entry O          line   305 file /home/r08543048/miniconda3/share/psi4/basis/jun-cc-pvtz.gbs 
    atoms 6-12, 16-18 entry H          line    36 file /home/r08543048/miniconda3/share/psi4/basis/jun-cc-pvtz.gbs 


         ---------------------------------------------------------
                                   SCF
               by Justin Turney, Rob Parrish, Andy Simmonett
                          and Daniel G. A. Smith
                              RHF Reference
                        1 Threads,  20980 MiB Core
         ---------------------------------------------------------

  ==> Geometry <==

    Molecular point group: c1
    Full point group: C1

    Geometry (in Angstrom), charge = 0, multiplicity = 1:

       Center              X                  Y                   Z               Mass       
    ------------   -----------------  -----------------  -----------------  -----------------
         C            3.468439562671    -0.952504383203     0.000009702116    12.000000000000
         C            2.717414562671     0.366788616797     0.000048702116    12.000000000000
         C            1.222726562671     0.186520616797    -0.000010297884    12.000000000000
         O            0.655472562671    -0.891732383203    -0.000050297884    15.994914619570
         O            0.580283562671     1.360970616797    -0.000012297884    15.994914619570
         H            3.213023562671    -1.542452383203    -0.877728297884     1.007825032230
         H            4.542997562671    -0.777889383203     0.000068702116     1.007825032230
         H            3.212941562671    -1.542548383203     0.877659702116     1.007825032230
         H            2.969838562671     0.974743616797    -0.870333297884     1.007825032230
         H            2.969775562671     0.974653616797     0.870512702116     1.007825032230
         H           -0.391769437329     1.180301616797    -0.000055297884     1.007825032230
      Gh(H)          -1.703199437329    -1.075614383203    -0.000049297884     1.007825032230
      Gh(C)          -3.902772437329    -0.734530383203     0.000040702116    12.000000000000
      Gh(C)          -2.477220437329    -0.295230383203    -0.000016297884    12.000000000000
      Gh(O)          -2.138197437329     0.880685616797    -0.000006297884    15.994914619570
      Gh(H)          -4.573969437329     0.118935616797     0.000081702116     1.007825032230
      Gh(H)          -4.082265437329    -1.360019383203    -0.875711297884     1.007825032230
      Gh(H)          -4.082193437329    -1.360048383203     0.875784702116     1.007825032230

  Running in c1 symmetry.

  Rotational constants: A =      0.18045  B =      0.02359  C =      0.02111 [cm^-1]
  Rotational constants: A =   5409.76515  B =    707.30611  C =    632.76727 [MHz]
  Nuclear repulsion =  178.645088989153578

  Charge       = 0
  Multiplicity = 1
  Electrons    = 40
  Nalpha       = 20
  Nbeta        = 20

  ==> Algorithm <==

  SCF Algorithm Type is DF.
  DIIS enabled.
  MOM disabled.
  Fractional occupation disabled.
  Guess Type is SAD.
  Energy threshold   = 1.00e-08
  Density threshold  = 1.00e-08
  Integral threshold = 0.00e+00

  ==> Primary Basis <==

  Basis Set: JUN-CC-PVTZ
    Blend: JUN-CC-PVTZ
    Number of shells: 164
    Number of basis function: 452
    Number of Cartesian functions: 510
    Spherical Harmonics?: true
    Max angular momentum: 3

   => Loading Basis Set <=

    Name: (JUN-CC-PVTZ AUX)
    Role: JKFIT
    Keyword: DF_BASIS_SCF
    atoms 1-3, 13-14  entry C          line   152 file /home/r08543048/miniconda3/share/psi4/basis/jun-cc-pvtz-jkfit.gbs 
    atoms 4-5, 15     entry O          line   272 file /home/r08543048/miniconda3/share/psi4/basis/jun-cc-pvtz-jkfit.gbs 
    atoms 6-12, 16-18 entry H          line    70 file /home/r08543048/miniconda3/share/psi4/basis/jun-cc-pvtz-jkfit.gbs 

  ==> Pre-Iterations <==

   -------------------------------------------------------
    Irrep   Nso     Nmo     Nalpha   Nbeta   Ndocc  Nsocc
   -------------------------------------------------------
     A        452     452       0       0       0       0
   -------------------------------------------------------
    Total     452     452      20      20      20       0
   -------------------------------------------------------

  ==> Integral Setup <==

  ==> DiskDFJK: Density-Fitted J/K Matrices <==

    J tasked:                  Yes
    K tasked:                  Yes
    wK tasked:                  No
    OpenMP threads:              1
    Integrals threads:           1
    Memory [MiB]:            15735
    Algorithm:                Core
    Integral Cache:           LOAD
    Schwarz Cutoff:          1E-12
    Fitting Condition:       1E-10

   => Auxiliary Basis Set <=

  Basis Set: (JUN-CC-PVTZ AUX)
    Blend: JUN-CC-PVTZ-JKFIT
    Number of shells: 332
    Number of basis function: 1060
    Number of Cartesian functions: 1278
    Spherical Harmonics?: true
    Max angular momentum: 4

  Minimum eigenvalue in the overlap matrix is 3.6625889536E-05.
  Using Symmetric Orthogonalization.

  SCF Guess: Superposition of Atomic Densities via on-the-fly atomic UHF.

  ==> Iterations <==

                           Total Energy        Delta E     RMS |[F,P]|

   @DF-RHF iter SAD:  -266.06042648185883   -2.66060e+02   0.00000e+00 
   @DF-RHF iter   1:  -266.75008692848127   -6.89660e-01   1.43859e-03 DIIS
   @DF-RHF iter   2:  -266.89781012380956   -1.47723e-01   8.49726e-04 DIIS
   @DF-RHF iter   3:  -266.94793398160459   -5.01239e-02   1.51153e-04 DIIS
   @DF-RHF iter   4:  -266.95074211375066   -2.80813e-03   7.17223e-05 DIIS
   @DF-RHF iter   5:  -266.95136584781477   -6.23734e-04   1.42387e-05 DIIS
   @DF-RHF iter   6:  -266.95141045600735   -4.46082e-05   6.93556e-06 DIIS
   @DF-RHF iter   7:  -266.95141943809733   -8.98209e-06   2.51449e-06 DIIS
   @DF-RHF iter   8:  -266.95142132126534   -1.88317e-06   8.97968e-07 DIIS
   @DF-RHF iter   9:  -266.95142158162747   -2.60362e-07   2.10048e-07 DIIS
   @DF-RHF iter  10:  -266.95142159460039   -1.29729e-08   6.38697e-08 DIIS
   @DF-RHF iter  11:  -266.95142159538335   -7.82961e-10   1.61644e-08 DIIS
   @DF-RHF iter  12:  -266.95142159544065   -5.72982e-11   3.71453e-09 DIIS
  Energy and wave function converged.


  ==> Post-Iterations <==

    Orbital Energies [Eh]
    ---------------------

    Doubly Occupied:                                                      

       1A    -20.619346     2A    -20.547299     3A    -11.386024  
       4A    -11.247728     5A    -11.221226     6A     -1.465505  
       7A     -1.356907     8A     -1.066918     9A     -0.916042  
      10A     -0.798625    11A     -0.703729    12A     -0.689647  
      13A     -0.662559    14A     -0.594986    15A     -0.594110  
      16A     -0.534532    17A     -0.525178    18A     -0.504903  
      19A     -0.480542    20A     -0.451542  

    Virtual:                                                              

      21A      0.034433    22A      0.048695    23A      0.055230  
      24A      0.064235    25A      0.066647    26A      0.074067  
      27A      0.078006    28A      0.093996    29A      0.101072  
      30A      0.103409    31A      0.108168    32A      0.110421  
      33A      0.125265    34A      0.138116    35A      0.142368  
      36A      0.142370    37A      0.162583    38A      0.168286  
      39A      0.174249    40A      0.177611    41A      0.177990  
      42A      0.192477    43A      0.203781    44A      0.213386  
      45A      0.221776    46A      0.225431    47A      0.235044  
      48A      0.243611    49A      0.248687    50A      0.250873  
      51A      0.263258    52A      0.281563    53A      0.284003  
      54A      0.292926    55A      0.294874    56A      0.295584  
      57A      0.310176    58A      0.321182    59A      0.323840  
      60A      0.334331    61A      0.336394    62A      0.342623  
      63A      0.347296    64A      0.357853    65A      0.361526  
      66A      0.372272    67A      0.380639    68A      0.388265  
      69A      0.399679    70A      0.409629    71A      0.414494  
      72A      0.415227    73A      0.422968    74A      0.435068  
      75A      0.446129    76A      0.454870    77A      0.455788  
      78A      0.459039    79A      0.467812    80A      0.491860  
      81A      0.500678    82A      0.504602    83A      0.514427  
      84A      0.520479    85A      0.524962    86A      0.542639  
      87A      0.545508    88A      0.553565    89A      0.569209  
      90A      0.577280    91A      0.582235    92A      0.588218  
      93A      0.608143    94A      0.625418    95A      0.627620  
      96A      0.662439    97A      0.664859    98A      0.675614  
      99A      0.696678   100A      0.698685   101A      0.703185  
     102A      0.721507   103A      0.726105   104A      0.735299  
     105A      0.742726   106A      0.762201   107A      0.767139  
     108A      0.777875   109A      0.782835   110A      0.795184  
     111A      0.806751   112A      0.813696   113A      0.829412  
     114A      0.842521   115A      0.855330   116A      0.865714  
     117A      0.879605   118A      0.884973   119A      0.890990  
     120A      0.899293   121A      0.920309   122A      0.925717  
     123A      0.948944   124A      0.966872   125A      0.971479  
     126A      0.986516   127A      0.992389   128A      1.000709  
     129A      1.013510   130A      1.025091   131A      1.054046  
     132A      1.054847   133A      1.057729   134A      1.068164  
     135A      1.074526   136A      1.076606   137A      1.096330  
     138A      1.109060   139A      1.130553   140A      1.140528  
     141A      1.141931   142A      1.190507   143A      1.205391  
     144A      1.206523   145A      1.210431   146A      1.220033  
     147A      1.231922   148A      1.240155   149A      1.261738  
     150A      1.263320   151A      1.269758   152A      1.274144  
     153A      1.288343   154A      1.295250   155A      1.302158  
     156A      1.329345   157A      1.349919   158A      1.356013  
     159A      1.385739   160A      1.406074   161A      1.413269  
     162A      1.419566   163A      1.429402   164A      1.431536  
     165A      1.458330   166A      1.459142   167A      1.470139  
     168A      1.478533   169A      1.482556   170A      1.485805  
     171A      1.497242   172A      1.527606   173A      1.544781  
     174A      1.553039   175A      1.554897   176A      1.574245  
     177A      1.587319   178A      1.596912   179A      1.602421  
     180A      1.608550   181A      1.626979   182A      1.629741  
     183A      1.674014   184A      1.677969   185A      1.681935  
     186A      1.697474   187A      1.724458   188A      1.778613  
     189A      1.779669   190A      1.804269   191A      1.815941  
     192A      1.829837   193A      1.848957   194A      1.867546  
     195A      1.899405   196A      1.902889   197A      1.912700  
     198A      1.927841   199A      1.969693   200A      2.013185  
     201A      2.034408   202A      2.062751   203A      2.098173  
     204A      2.107689   205A      2.172204   206A      2.214250  
     207A      2.236994   208A      2.282172   209A      2.290659  
     210A      2.307725   211A      2.345993   212A      2.379842  
     213A      2.429062   214A      2.438516   215A      2.438570  
     216A      2.497801   217A      2.505604   218A      2.517834  
     219A      2.570516   220A      2.637488   221A      2.678991  
     222A      2.687299   223A      2.719011   224A      2.770486  
     225A      2.785722   226A      2.794674   227A      2.838283  
     228A      2.861078   229A      2.888105   230A      2.897805  
     231A      2.924121   232A      2.938582   233A      2.957791  
     234A      2.966574   235A      3.024417   236A      3.025528  
     237A      3.051305   238A      3.085459   239A      3.113182  
     240A      3.120234   241A      3.129366   242A      3.171157  
     243A      3.200167   244A      3.239186   245A      3.243221  
     246A      3.276353   247A      3.300755   248A      3.316159  
     249A      3.339059   250A      3.366029   251A      3.378387  
     252A      3.407340   253A      3.453420   254A      3.455502  
     255A      3.477067   256A      3.485519   257A      3.488282  
     258A      3.512612   259A      3.512692   260A      3.525897  
     261A      3.532123   262A      3.558731   263A      3.560840  
     264A      3.577366   265A      3.602806   266A      3.604079  
     267A      3.614558   268A      3.626539   269A      3.644333  
     270A      3.658905   271A      3.676213   272A      3.702596  
     273A      3.720105   274A      3.764703   275A      3.783281  
     276A      3.786533   277A      3.804124   278A      3.815358  
     279A      3.822233   280A      3.836433   281A      3.862930  
     282A      3.874273   283A      3.878127   284A      3.895475  
     285A      3.904654   286A      3.918302   287A      3.933671  
     288A      3.965035   289A      3.984231   290A      3.994008  
     291A      4.037419   292A      4.044997   293A      4.062658  
     294A      4.063772   295A      4.123193   296A      4.163968  
     297A      4.196318   298A      4.210206   299A      4.212452  
     300A      4.214996   301A      4.235368   302A      4.252946  
     303A      4.262346   304A      4.291440   305A      4.305263  
     306A      4.340145   307A      4.341673   308A      4.349911  
     309A      4.355931   310A      4.375426   311A      4.382090  
     312A      4.403359   313A      4.418000   314A      4.426718  
     315A      4.438712   316A      4.476355   317A      4.477051  
     318A      4.501839   319A      4.515151   320A      4.530901  
     321A      4.537395   322A      4.558454   323A      4.578354  
     324A      4.591204   325A      4.620310   326A      4.633323  
     327A      4.664568   328A      4.690503   329A      4.693935  
     330A      4.702447   331A      4.708480   332A      4.729845  
     333A      4.734772   334A      4.748317   335A      4.752868  
     336A      4.769356   337A      4.776756   338A      4.787279  
     339A      4.797755   340A      4.802892   341A      4.823581  
     342A      4.834344   343A      4.871597   344A      4.872721  
     345A      4.896257   346A      4.907637   347A      4.928891  
     348A      4.931677   349A      4.952650   350A      5.002240  
     351A      5.015039   352A      5.090172   353A      5.091636  
     354A      5.107300   355A      5.131852   356A      5.180475  
     357A      5.192749   358A      5.250766   359A      5.271736  
     360A      5.284402   361A      5.290718   362A      5.311775  
     363A      5.313506   364A      5.343328   365A      5.417720  
     366A      5.454807   367A      5.489031   368A      5.578348  
     369A      5.614235   370A      5.619258   371A      5.638912  
     372A      5.649591   373A      5.651569   374A      5.692693  
     375A      5.735012   376A      5.738020   377A      5.758095  
     378A      5.805735   379A      5.823050   380A      5.836650  
     381A      5.875932   382A      5.887045   383A      5.903311  
     384A      5.971485   385A      6.030272   386A      6.030586  
     387A      6.052352   388A      6.103855   389A      6.114255  
     390A      6.141592   391A      6.179356   392A      6.260471  
     393A      6.268623   394A      6.294375   395A      6.332478  
     396A      6.439543   397A      6.472411   398A      6.487347  
     399A      6.499719   400A      6.539296   401A      6.555860  
     402A      6.620066   403A      6.699315   404A      6.761080  
     405A      6.764030   406A      6.791982   407A      6.930405  
     408A      6.946747   409A      6.965438   410A      7.000690  
     411A      7.092368   412A      7.177206   413A      7.268926  
     414A      7.308008   415A      7.334489   416A      7.384463  
     417A      7.395999   418A      7.426150   419A      7.446931  
     420A      7.500429   421A      7.526271   422A      7.605939  
     423A      7.676204   424A      7.768375   425A      7.775374  
     426A      7.854260   427A      7.860152   428A      7.868088  
     429A      7.991479   430A      8.116674   431A      8.241353  
     432A      8.320930   433A      8.490807   434A      9.350404  
     435A      9.402327   436A      9.758052   437A      9.851459  
     438A      9.863067   439A      9.916648   440A     10.222686  
     441A     10.956938   442A     11.535539   443A     11.888364  
     444A     12.147938   445A     13.656731   446A     13.897993  
     447A     14.125024   448A     14.484738   449A     14.723173  
     450A     43.433968   451A     45.757393   452A     60.480993  

    Final Occupation by Irrep:
              A 
    DOCC [    20 ]

  @DF-RHF Final Energy:  -266.95142159544065

   => Energetics <=

    Nuclear Repulsion Energy =            178.6450889891535780
    One-Electron Energy =                -718.4583281829709449
    Two-Electron Energy =                 272.8618175983767173
    Total Energy =                       -266.9514215954406495

Computation Completed


Properties will be evaluated at   0.000000,   0.000000,   0.000000 [a0]

Properties computed using the SCF density matrix

  Nuclear Dipole Moment: [e a0]
     X:   133.8953      Y:     1.1821      Z:    -0.0002

  Electronic Dipole Moment: [e a0]
     X:  -133.5341      Y:    -0.4979      Z:     0.0002

  Dipole Moment: [e a0]
     X:     0.3612      Y:     0.6842      Z:     0.0000     Total:     0.7736

  Dipole Moment: [D]
     X:     0.9180      Y:     1.7390      Z:     0.0001     Total:     1.9664


*** tstop() called on r282 at Fri Sep 10 13:17:27 2021
Module time:
	user time   =      25.78 seconds =       0.43 minutes
	system time =       0.54 seconds =       0.01 minutes
	total time  =         26 seconds =       0.43 minutes
Total time:
	user time   =      68.43 seconds =       1.14 minutes
	system time =       1.64 seconds =       0.03 minutes
	total time  =         70 seconds =       1.17 minutes

  //>>>>>>>>>>>>>>>>>>>>>>>>>>>>>>>>>>>//
  //            Monomer B HF           //
  //<<<<<<<<<<<<<<<<<<<<<<<<<<<<<<<<<<<//


*** tstart() called on r282
*** at Fri Sep 10 13:17:27 2021

   => Loading Basis Set <=

    Name: JUN-CC-PVTZ
    Role: ORBITAL
    Keyword: BASIS
    atoms 1-3, 13-14  entry C          line   217 file /home/r08543048/miniconda3/share/psi4/basis/jun-cc-pvtz.gbs 
    atoms 4-5, 15     entry O          line   305 file /home/r08543048/miniconda3/share/psi4/basis/jun-cc-pvtz.gbs 
    atoms 6-12, 16-18 entry H          line    36 file /home/r08543048/miniconda3/share/psi4/basis/jun-cc-pvtz.gbs 


         ---------------------------------------------------------
                                   SCF
               by Justin Turney, Rob Parrish, Andy Simmonett
                          and Daniel G. A. Smith
                              RHF Reference
                        1 Threads,  20980 MiB Core
         ---------------------------------------------------------

  ==> Geometry <==

    Molecular point group: c1
    Full point group: C1

    Geometry (in Angstrom), charge = 0, multiplicity = 1:

       Center              X                  Y                   Z               Mass       
    ------------   -----------------  -----------------  -----------------  -----------------
      Gh(C)           3.468439562671    -0.952504383203     0.000009702116    12.000000000000
      Gh(C)           2.717414562671     0.366788616797     0.000048702116    12.000000000000
      Gh(C)           1.222726562671     0.186520616797    -0.000010297884    12.000000000000
      Gh(O)           0.655472562671    -0.891732383203    -0.000050297884    15.994914619570
      Gh(O)           0.580283562671     1.360970616797    -0.000012297884    15.994914619570
      Gh(H)           3.213023562671    -1.542452383203    -0.877728297884     1.007825032230
      Gh(H)           4.542997562671    -0.777889383203     0.000068702116     1.007825032230
      Gh(H)           3.212941562671    -1.542548383203     0.877659702116     1.007825032230
      Gh(H)           2.969838562671     0.974743616797    -0.870333297884     1.007825032230
      Gh(H)           2.969775562671     0.974653616797     0.870512702116     1.007825032230
      Gh(H)          -0.391769437329     1.180301616797    -0.000055297884     1.007825032230
         H           -1.703199437329    -1.075614383203    -0.000049297884     1.007825032230
         C           -3.902772437329    -0.734530383203     0.000040702116    12.000000000000
         C           -2.477220437329    -0.295230383203    -0.000016297884    12.000000000000
         O           -2.138197437329     0.880685616797    -0.000006297884    15.994914619570
         H           -4.573969437329     0.118935616797     0.000081702116     1.007825032230
         H           -4.082265437329    -1.360019383203    -0.875711297884     1.007825032230
         H           -4.082193437329    -1.360048383203     0.875784702116     1.007825032230

  Running in c1 symmetry.

  Rotational constants: A =      0.18045  B =      0.02359  C =      0.02111 [cm^-1]
  Rotational constants: A =   5409.76515  B =    707.30611  C =    632.76727 [MHz]
  Nuclear repulsion =   69.678246595435482

  Charge       = 0
  Multiplicity = 1
  Electrons    = 24
  Nalpha       = 12
  Nbeta        = 12

  ==> Algorithm <==

  SCF Algorithm Type is DF.
  DIIS enabled.
  MOM disabled.
  Fractional occupation disabled.
  Guess Type is SAD.
  Energy threshold   = 1.00e-08
  Density threshold  = 1.00e-08
  Integral threshold = 0.00e+00

  ==> Primary Basis <==

  Basis Set: JUN-CC-PVTZ
    Blend: JUN-CC-PVTZ
    Number of shells: 164
    Number of basis function: 452
    Number of Cartesian functions: 510
    Spherical Harmonics?: true
    Max angular momentum: 3

   => Loading Basis Set <=

    Name: (JUN-CC-PVTZ AUX)
    Role: JKFIT
    Keyword: DF_BASIS_SCF
    atoms 1-3, 13-14  entry C          line   152 file /home/r08543048/miniconda3/share/psi4/basis/jun-cc-pvtz-jkfit.gbs 
    atoms 4-5, 15     entry O          line   272 file /home/r08543048/miniconda3/share/psi4/basis/jun-cc-pvtz-jkfit.gbs 
    atoms 6-12, 16-18 entry H          line    70 file /home/r08543048/miniconda3/share/psi4/basis/jun-cc-pvtz-jkfit.gbs 

  ==> Pre-Iterations <==

   -------------------------------------------------------
    Irrep   Nso     Nmo     Nalpha   Nbeta   Ndocc  Nsocc
   -------------------------------------------------------
     A        452     452       0       0       0       0
   -------------------------------------------------------
    Total     452     452      12      12      12       0
   -------------------------------------------------------

  ==> Integral Setup <==

  ==> DiskDFJK: Density-Fitted J/K Matrices <==

    J tasked:                  Yes
    K tasked:                  Yes
    wK tasked:                  No
    OpenMP threads:              1
    Integrals threads:           1
    Memory [MiB]:            15735
    Algorithm:                Core
    Integral Cache:           LOAD
    Schwarz Cutoff:          1E-12
    Fitting Condition:       1E-10

   => Auxiliary Basis Set <=

  Basis Set: (JUN-CC-PVTZ AUX)
    Blend: JUN-CC-PVTZ-JKFIT
    Number of shells: 332
    Number of basis function: 1060
    Number of Cartesian functions: 1278
    Spherical Harmonics?: true
    Max angular momentum: 4

  Minimum eigenvalue in the overlap matrix is 3.6625889536E-05.
  Using Symmetric Orthogonalization.

  SCF Guess: Superposition of Atomic Densities via on-the-fly atomic UHF.

  ==> Iterations <==

                           Total Energy        Delta E     RMS |[F,P]|

   @DF-RHF iter SAD:  -152.11507436976657   -1.52115e+02   0.00000e+00 
   @DF-RHF iter   1:  -152.85359359851992   -7.38519e-01   1.08662e-03 DIIS
   @DF-RHF iter   2:  -152.93385892529824   -8.02653e-02   7.50783e-04 DIIS
   @DF-RHF iter   3:  -152.97232565221694   -3.84667e-02   1.25404e-04 DIIS
   @DF-RHF iter   4:  -152.97447607138417   -2.15042e-03   4.84376e-05 DIIS
   @DF-RHF iter   5:  -152.97487785409211   -4.01783e-04   9.68014e-06 DIIS
   @DF-RHF iter   6:  -152.97490769971972   -2.98456e-05   3.91507e-06 DIIS
   @DF-RHF iter   7:  -152.97491184533209   -4.14561e-06   1.52206e-06 DIIS
   @DF-RHF iter   8:  -152.97491251512182   -6.69790e-07   3.40602e-07 DIIS
   @DF-RHF iter   9:  -152.97491255052097   -3.53992e-08   9.38279e-08 DIIS
   @DF-RHF iter  10:  -152.97491255272482   -2.20385e-09   1.97150e-08 DIIS
   @DF-RHF iter  11:  -152.97491255281537   -9.05516e-11   3.61713e-09 DIIS
  Energy and wave function converged.


  ==> Post-Iterations <==

    Orbital Energies [Eh]
    ---------------------

    Doubly Occupied:                                                      

       1A    -20.558966     2A    -11.337349     3A    -11.242688  
       4A     -1.384577     5A     -1.026081     6A     -0.805769  
       7A     -0.674576     8A     -0.622072     9A     -0.606517  
      10A     -0.563552    11A     -0.498771    12A     -0.429593  

    Virtual:                                                              

      13A      0.034451    14A      0.041971    15A      0.055743  
      16A      0.059212    17A      0.063682    18A      0.076166  
      19A      0.077453    20A      0.091563    21A      0.097995  
      22A      0.098801    23A      0.106969    24A      0.107178  
      25A      0.124823    26A      0.128691    27A      0.135826  
      28A      0.153808    29A      0.161194    30A      0.161826  
      31A      0.165297    32A      0.175096    33A      0.184843  
      34A      0.190193    35A      0.197726    36A      0.201655  
      37A      0.212983    38A      0.215564    39A      0.221784  
      40A      0.224565    41A      0.246164    42A      0.252638  
      43A      0.255848    44A      0.266428    45A      0.276489  
      46A      0.279022    47A      0.287798    48A      0.302231  
      49A      0.309364    50A      0.309949    51A      0.327372  
      52A      0.329726    53A      0.330244    54A      0.347016  
      55A      0.349411    56A      0.364061    57A      0.372317  
      58A      0.377766    59A      0.380732    60A      0.394315  
      61A      0.403580    62A      0.411948    63A      0.416665  
      64A      0.432150    65A      0.438078    66A      0.444024  
      67A      0.445821    68A      0.452903    69A      0.463647  
      70A      0.464778    71A      0.469723    72A      0.487848  
      73A      0.489250    74A      0.511011    75A      0.516826  
      76A      0.523220    77A      0.538262    78A      0.544432  
      79A      0.545791    80A      0.561554    81A      0.565402  
      82A      0.568000    83A      0.591242    84A      0.624651  
      85A      0.637372    86A      0.639586    87A      0.643129  
      88A      0.648572    89A      0.666811    90A      0.677974  
      91A      0.682693    92A      0.691146    93A      0.710550  
      94A      0.716767    95A      0.731257    96A      0.733667  
      97A      0.750418    98A      0.765197    99A      0.782275  
     100A      0.790389   101A      0.791020   102A      0.801611  
     103A      0.810125   104A      0.823333   105A      0.861353  
     106A      0.866225   107A      0.870037   108A      0.879083  
     109A      0.889431   110A      0.898810   111A      0.914659  
     112A      0.926618   113A      0.932888   114A      0.947799  
     115A      0.966587   116A      0.984907   117A      0.988827  
     118A      1.006109   119A      1.023669   120A      1.040554  
     121A      1.047359   122A      1.050273   123A      1.056679  
     124A      1.066007   125A      1.072937   126A      1.081581  
     127A      1.084456   128A      1.098135   129A      1.107386  
     130A      1.141026   131A      1.145819   132A      1.160994  
     133A      1.174280   134A      1.190280   135A      1.210684  
     136A      1.220798   137A      1.231469   138A      1.249049  
     139A      1.254026   140A      1.261917   141A      1.267665  
     142A      1.271491   143A      1.279853   144A      1.288731  
     145A      1.300309   146A      1.318438   147A      1.323608  
     148A      1.326160   149A      1.336937   150A      1.356721  
     151A      1.357491   152A      1.369087   153A      1.404846  
     154A      1.413051   155A      1.427289   156A      1.436385  
     157A      1.452541   158A      1.482755   159A      1.489151  
     160A      1.502742   161A      1.518689   162A      1.520871  
     163A      1.537323   164A      1.553029   165A      1.573676  
     166A      1.581048   167A      1.582613   168A      1.587732  
     169A      1.597502   170A      1.612895   171A      1.616082  
     172A      1.666607   173A      1.677360   174A      1.688888  
     175A      1.700895   176A      1.711379   177A      1.761372  
     178A      1.762104   179A      1.780987   180A      1.787924  
     181A      1.809490   182A      1.823862   183A      1.845835  
     184A      1.885521   185A      1.903406   186A      1.934885  
     187A      1.937794   188A      1.950350   189A      1.967379  
     190A      2.001074   191A      2.021768   192A      2.062975  
     193A      2.087940   194A      2.121343   195A      2.155822  
     196A      2.175221   197A      2.178120   198A      2.241380  
     199A      2.277783   200A      2.310272   201A      2.332907  
     202A      2.364911   203A      2.381669   204A      2.413041  
     205A      2.437503   206A      2.509851   207A      2.538095  
     208A      2.549766   209A      2.586008   210A      2.606447  
     211A      2.627201   212A      2.632197   213A      2.639281  
     214A      2.699325   215A      2.733829   216A      2.744276  
     217A      2.760808   218A      2.780070   219A      2.796309  
     220A      2.806138   221A      2.879276   222A      2.890342  
     223A      2.935177   224A      2.938737   225A      2.984913  
     226A      2.998713   227A      3.024741   228A      3.059045  
     229A      3.059933   230A      3.074526   231A      3.086174  
     232A      3.091393   233A      3.106689   234A      3.158727  
     235A      3.179351   236A      3.206237   237A      3.227965  
     238A      3.281295   239A      3.335801   240A      3.352525  
     241A      3.386283   242A      3.404127   243A      3.426775  
     244A      3.451659   245A      3.458544   246A      3.487364  
     247A      3.498829   248A      3.538381   249A      3.546525  
     250A      3.576031   251A      3.604819   252A      3.605783  
     253A      3.606203   254A      3.620415   255A      3.629328  
     256A      3.648661   257A      3.650303   258A      3.672987  
     259A      3.698119   260A      3.727287   261A      3.729859  
     262A      3.749943   263A      3.761933   264A      3.774166  
     265A      3.785244   266A      3.803261   267A      3.823508  
     268A      3.832163   269A      3.855024   270A      3.855289  
     271A      3.880595   272A      3.886333   273A      3.910009  
     274A      3.914889   275A      3.968556   276A      3.987947  
     277A      3.997585   278A      4.003598   279A      4.028957  
     280A      4.033530   281A      4.098058   282A      4.104888  
     283A      4.141086   284A      4.162451   285A      4.170550  
     286A      4.185723   287A      4.200361   288A      4.238588  
     289A      4.257978   290A      4.269277   291A      4.293247  
     292A      4.294491   293A      4.311643   294A      4.337765  
     295A      4.357234   296A      4.370878   297A      4.385879  
     298A      4.395797   299A      4.407923   300A      4.423824  
     301A      4.464234   302A      4.481901   303A      4.485424  
     304A      4.491429   305A      4.492891   306A      4.533603  
     307A      4.549255   308A      4.589237   309A      4.617895  
     310A      4.651505   311A      4.656953   312A      4.685971  
     313A      4.691938   314A      4.708642   315A      4.737519  
     316A      4.738869   317A      4.746136   318A      4.761602  
     319A      4.770390   320A      4.778005   321A      4.799742  
     322A      4.804122   323A      4.813293   324A      4.821084  
     325A      4.821897   326A      4.849595   327A      4.864010  
     328A      4.904272   329A      4.912950   330A      4.922112  
     331A      4.955112   332A      4.958753   333A      4.976898  
     334A      4.986776   335A      4.993110   336A      5.013988  
     337A      5.020104   338A      5.021192   339A      5.041019  
     340A      5.057029   341A      5.075440   342A      5.109554  
     343A      5.114444   344A      5.149506   345A      5.149929  
     346A      5.176293   347A      5.190161   348A      5.257432  
     349A      5.274876   350A      5.282997   351A      5.310142  
     352A      5.366487   353A      5.415256   354A      5.460422  
     355A      5.470463   356A      5.514554   357A      5.540899  
     358A      5.543600   359A      5.572742   360A      5.588967  
     361A      5.613058   362A      5.667137   363A      5.674795  
     364A      5.719345   365A      5.724662   366A      5.738436  
     367A      5.755337   368A      5.755565   369A      5.821413  
     370A      5.829538   371A      5.870539   372A      5.925011  
     373A      6.003631   374A      6.092098   375A      6.107876  
     376A      6.109260   377A      6.171438   378A      6.200556  
     379A      6.200638   380A      6.309480   381A      6.365921  
     382A      6.398040   383A      6.410740   384A      6.419789  
     385A      6.439824   386A      6.444081   387A      6.462966  
     388A      6.524096   389A      6.562271   390A      6.569744  
     391A      6.649025   392A      6.760071   393A      6.826793  
     394A      6.829028   395A      6.900889   396A      6.938870  
     397A      7.044303   398A      7.155546   399A      7.198740  
     400A      7.201444   401A      7.256121   402A      7.277941  
     403A      7.370029   404A      7.411521   405A      7.468928  
     406A      7.527889   407A      7.543635   408A      7.604391  
     409A      7.685579   410A      7.694943   411A      7.753316  
     412A      7.788891   413A      7.802286   414A      7.857630  
     415A      7.860648   416A      7.952048   417A      7.990123  
     418A      8.062260   419A      8.185116   420A      8.251343  
     421A      8.517028   422A      8.668693   423A      8.884463  
     424A      9.164485   425A      9.441339   426A      9.684792  
     427A      9.743503   428A      9.790580   429A      9.869158  
     430A      9.908500   431A      9.921564   432A      9.962974  
     433A      9.989440   434A     10.123207   435A     10.394174  
     436A     10.507604   437A     11.078605   438A     11.410472  
     439A     11.581261   440A     11.634831   441A     12.033203  
     442A     12.429948   443A     13.145520   444A     13.780979  
     445A     14.013142   446A     14.153446   447A     14.551669  
     448A     42.967165   449A     45.076434   450A     45.797160  
     451A     61.130975   452A     61.948507  

    Final Occupation by Irrep:
              A 
    DOCC [    12 ]

  @DF-RHF Final Energy:  -152.97491255281537

   => Energetics <=

    Nuclear Repulsion Energy =             69.6782465954354819
    One-Electron Energy =                -345.8052964276326975
    Two-Electron Energy =                 123.1521372793818330
    Total Energy =                       -152.9749125528153684

Computation Completed


Properties will be evaluated at   0.000000,   0.000000,   0.000000 [a0]

Properties computed using the SCF density matrix

  Nuclear Dipole Moment: [e a0]
     X:  -131.9542      Y:    -5.3098      Z:     0.0004

  Electronic Dipole Moment: [e a0]
     X:   131.4136      Y:     4.1074      Z:    -0.0004

  Dipole Moment: [e a0]
     X:    -0.5406      Y:    -1.2024      Z:     0.0000     Total:     1.3184

  Dipole Moment: [D]
     X:    -1.3742      Y:    -3.0562      Z:     0.0000     Total:     3.3509


*** tstop() called on r282 at Fri Sep 10 13:17:49 2021
Module time:
	user time   =      21.04 seconds =       0.35 minutes
	system time =       0.46 seconds =       0.01 minutes
	total time  =         22 seconds =       0.37 minutes
Total time:
	user time   =      89.47 seconds =       1.49 minutes
	system time =       2.10 seconds =       0.04 minutes
	total time  =         92 seconds =       1.53 minutes
  Constructing Basis Sets for SAPT...

   => Loading Basis Set <=

    Name: (JUN-CC-PVTZ AUX)
    Role: RIFIT
    Keyword: DF_BASIS_SAPT
    atoms 1-3, 13-14  entry C          line   132 file /home/r08543048/miniconda3/share/psi4/basis/jun-cc-pvtz-ri.gbs 
    atoms 4-5, 15     entry O          line   244 file /home/r08543048/miniconda3/share/psi4/basis/jun-cc-pvtz-ri.gbs 
    atoms 6-12, 16-18 entry H          line    30 file /home/r08543048/miniconda3/share/psi4/basis/jun-cc-pvtz-ri.gbs 


  //>>>>>>>>>>>>>>>>>>>>>>>>>>>>>>>>>>>//
  //               SAPT0               //
  //<<<<<<<<<<<<<<<<<<<<<<<<<<<<<<<<<<<//


*** tstart() called on r282
*** at Fri Sep 10 13:17:49 2021

        SAPT0  
    Ed Hohenstein
     6 June 2009

      Orbital Information
  --------------------------
    NSO        =       452
    NMO        =       452
    NRI        =      1076
    NOCC A     =        20
    NOCC B     =        12
    FOCC A     =         0
    FOCC B     =         0
    NVIR A     =       432
    NVIR B     =       440

    Elst10,r            =    -0.027086262335 [Eh]
    Exch10              =     0.024711668193 [Eh]
    Exch10 (S^2)        =     0.024483049291 [Eh]

    Iter     Energy [mEh]          dE [mEh]         Residual      Time [s]
       1      -3.85436134       3.854361341      10.104286607             0
       2      -4.46122979       0.606868448       5.103496788             1
       3      -4.61765210       0.156422311       1.414956870             2
       4      -4.59137044      -0.026281657       0.577554647             3
       5      -4.58506440      -0.006306042       0.176745388             3
       6      -4.58769091       0.002626515       0.080295743             4
       7      -4.58858231       0.000891395       0.021243110             5
       8      -4.58831383      -0.000268482       0.007117530             6
       9      -4.58823313      -0.000080696       0.001726695             6
      10      -4.58825794       0.000024810       0.000433379             7
      11      -4.58825752      -0.000000423       0.000092968             8
      12      -4.58825672      -0.000000802       0.000027911             9
      13      -4.58825666      -0.000000054       0.000006971             9
      14      -4.58825673       0.000000070       0.000001429            10
      15      -4.58825672      -0.000000007       0.000000350            11

    CHF Iterations converged


    Iter     Energy [mEh]          dE [mEh]         Residual      Time [s]
       1      -6.93984427       6.939844271      21.069121927             1
       2      -8.09348985       1.153645581      11.766664384             2
       3      -9.03032112       0.936831273       2.712617793             2
       4      -8.96210776      -0.068213362       1.105151419             3
       5      -8.94869946      -0.013408307       0.346459900             4
       6      -8.95720077       0.008501319       0.115894751             4
       7      -8.95767476       0.000473988       0.023397483             5
       8      -8.95719814      -0.000476627       0.004506426             6
       9      -8.95724550       0.000047360       0.000906187             6
      10      -8.95725418       0.000008687       0.000169882             7
      11      -8.95725144      -0.000002745       0.000036382             8
      12      -8.95725146       0.000000027       0.000010499             8
      13      -8.95725159       0.000000122       0.000002320             9
      14      -8.95725157      -0.000000011       0.000000503            10

    CHF Iterations converged

    Ind20,r (A<-B)      =    -0.004588256724 [Eh]
    Ind20,r (B<-A)      =    -0.008957251575 [Eh]
    Ind20,r             =    -0.013545508299 [Eh]
    Exch-Ind20,r (A<-B) =     0.003290410270 [Eh]
    Exch-Ind20,r (B<-A) =     0.003866265847 [Eh]
    Exch-Ind20,r        =     0.007156676117 [Eh]
    Disp20              =    -0.009778864625 [Eh]
    Disp20 (SS)         =    -0.004889432313 [Eh]
    Disp20 (OS)         =    -0.004889432313 [Eh]
    Exch-Disp20         =     0.001724977762 [Eh]
    Exch-Disp20 (SS)    =     0.001077031531 [Eh]
    Exch-Disp20 (OS)    =     0.000647946230 [Eh]

    SAPT Results 
  --------------------------------------------------------------------------------------------------------
    Electrostatics                -27.08626234 [mEh]     -16.99688622 [kcal/mol]     -71.11497196 [kJ/mol]
      Elst10,r                    -27.08626234 [mEh]     -16.99688622 [kcal/mol]     -71.11497196 [kJ/mol]

    Exchange                       24.71166819 [mEh]      15.50680590 [kcal/mol]      64.88047590 [kJ/mol]
      Exch10                       24.71166819 [mEh]      15.50680590 [kcal/mol]      64.88047590 [kJ/mol]
      Exch10(S^2)                  24.48304929 [mEh]      15.36334538 [kcal/mol]      64.28023706 [kJ/mol]

    Induction                     -10.80559726 [mEh]      -6.78061465 [kcal/mol]     -28.37009170 [kJ/mol]
      Ind20,r                     -13.54550830 [mEh]      -8.49993478 [kcal/mol]     -35.56372714 [kJ/mol]
      Exch-Ind20,r                  7.15667612 [mEh]       4.49088206 [kcal/mol]      18.78985056 [kJ/mol]
      delta HF,r (2)               -4.41676508 [mEh]      -2.77156193 [kcal/mol]     -11.59621512 [kJ/mol]

    Dispersion                     -8.05388686 [mEh]      -5.05389031 [kcal/mol]     -21.14547705 [kJ/mol]
      Disp20                       -9.77886463 [mEh]      -6.13633019 [kcal/mol]     -25.67440554 [kJ/mol]
      Exch-Disp20                   1.72497776 [mEh]       1.08243989 [kcal/mol]       4.52892849 [kJ/mol]
      Disp20 (SS)                  -4.88943231 [mEh]      -3.06816510 [kcal/mol]     -12.83720277 [kJ/mol]
      Disp20 (OS)                  -4.88943231 [mEh]      -3.06816510 [kcal/mol]     -12.83720277 [kJ/mol]
      Exch-Disp20 (SS)              1.07703153 [mEh]       0.67584749 [kcal/mol]       2.82774590 [kJ/mol]
      Exch-Disp20 (OS)              0.64794623 [mEh]       0.40659240 [kcal/mol]       1.70118259 [kJ/mol]

  Total HF                        -13.18019140 [mEh]      -8.27069497 [kcal/mol]     -34.60458776 [kJ/mol]
  Total SAPT0                     -21.23407827 [mEh]     -13.32458528 [kcal/mol]     -55.75006481 [kJ/mol]

  Special recipe for scaled SAPT0 (see Manual):
    Electrostatics sSAPT0         -27.08626234 [mEh]     -16.99688622 [kcal/mol]     -71.11497196 [kJ/mol]
    Exchange sSAPT0                24.71166819 [mEh]      15.50680590 [kcal/mol]      64.88047590 [kJ/mol]
    Induction sSAPT0              -10.60323556 [mEh]      -6.65363077 [kcal/mol]     -27.83879114 [kJ/mol]
    Dispersion sSAPT0              -8.00511151 [mEh]      -5.02328331 [kcal/mol]     -21.01741737 [kJ/mol]
  Total sSAPT0                    -20.98294121 [mEh]     -13.16699440 [kcal/mol]     -55.09070457 [kJ/mol]
  --------------------------------------------------------------------------------------------------------

*** tstop() called on r282 at Fri Sep 10 13:19:17 2021
Module time:
	user time   =      71.67 seconds =       1.19 minutes
	system time =      13.81 seconds =       0.23 minutes
	total time  =         88 seconds =       1.47 minutes
Total time:
	user time   =     161.25 seconds =       2.69 minutes
	system time =      15.91 seconds =       0.27 minutes
	total time  =        180 seconds =       3.00 minutes

    Psi4 stopped on: Friday, 10 September 2021 01:19PM
    Psi4 wall time for execution: 0:02:59.57

*** Psi4 exiting successfully. Buy a developer a beer!
