
    -----------------------------------------------------------------------
          Psi4: An Open-Source Ab Initio Electronic Structure Package
                               Psi4 1.3.2 release

                         Git: Rev {HEAD} ecbda83 


    R. M. Parrish, L. A. Burns, D. G. A. Smith, A. C. Simmonett,
    A. E. DePrince III, E. G. Hohenstein, U. Bozkaya, A. Yu. Sokolov,
    R. Di Remigio, R. M. Richard, J. F. Gonthier, A. M. James,
    H. R. McAlexander, A. Kumar, M. Saitow, X. Wang, B. P. Pritchard,
    P. Verma, H. F. Schaefer III, K. Patkowski, R. A. King, E. F. Valeev,
    F. A. Evangelista, J. M. Turney, T. D. Crawford, and C. D. Sherrill,
    J. Chem. Theory Comput. 13(7) pp 3185--3197 (2017).
    (doi: 10.1021/acs.jctc.7b00174)


                         Additional Contributions by
    P. Kraus, H. Kruse, M. H. Lechner, M. C. Schieber, R. A. Shaw,
    A. Alenaizan, R. Galvelis, Z. L. Glick, S. Lehtola, and J. P. Misiewicz

    -----------------------------------------------------------------------


    Psi4 started on: Tuesday, 24 August 2021 05:42AM

    Process ID: 19734
    Host:       r282
    PSIDATADIR: /home/r09543063/miniconda3/envs/p4env/share/psi4
    Memory:     500.0 MiB
    Threads:    1
    
  ==> Input File <==

--------------------------------------------------------------------------
# Any line starting with the # character is a comment line
#! Sample  computation

memory 22 gb

molecule Dimer {
0 1
  C   -1.676709350  -0.155545695   0.000000000
  O   -0.993533620  -1.155786393   0.000000000
  O   -1.173945330   1.080177302   0.000000000
  H   -0.185940107   1.035554940   0.000000000
  C   -3.180974158  -0.156065960   0.000000000
  H   -3.550265591  -1.175547772   0.000000000
  H   -3.549007807   0.375205388  -0.876744631
  H   -3.549007807   0.375205388   0.876744631






 --
0 1
  H    3.818891652  -1.080075720   0.874204506
  H    3.818891652  -1.080075720  -0.874204506
  H    4.153834695   0.443265227   0.000000000
  H    1.423459707  -1.054169526   0.000000000
  C    3.571345996  -0.473637296   0.000000000
  C    2.106241039  -0.190481958   0.000000000
  O    1.641605591   0.930419782   0.000000000




units angstrom

no_reorient
symmetry c1
}

set globals{
  basis jun-cc-pVTZ
  scf_type DF 
  freeze_core True
}

energy('sapt0')


--------------------------------------------------------------------------

  Memory set to  20.489 GiB by Python driver.

  //>>>>>>>>>>>>>>>>>>>>>>>>>>>>>>>>>>>//
  //              Dimer HF             //
  //<<<<<<<<<<<<<<<<<<<<<<<<<<<<<<<<<<<//


*** tstart() called on r282
*** at Tue Aug 24 05:42:35 2021

   => Loading Basis Set <=

    Name: JUN-CC-PVTZ
    Role: ORBITAL
    Keyword: BASIS
    atoms 1, 5, 13-14 entry C          line   217 file /home/r09543063/miniconda3/envs/p4env/share/psi4/basis/jun-cc-pvtz.gbs 
    atoms 2-3, 15     entry O          line   305 file /home/r09543063/miniconda3/envs/p4env/share/psi4/basis/jun-cc-pvtz.gbs 
    atoms 4, 6-12     entry H          line    36 file /home/r09543063/miniconda3/envs/p4env/share/psi4/basis/jun-cc-pvtz.gbs 


         ---------------------------------------------------------
                                   SCF
               by Justin Turney, Rob Parrish, Andy Simmonett
                          and Daniel G. A. Smith
                              RHF Reference
                        1 Threads,  20980 MiB Core
         ---------------------------------------------------------

  ==> Geometry <==

    Molecular point group: c1
    Full point group: Cs

    Geometry (in Angstrom), charge = 0, multiplicity = 1:

       Center              X                  Y                   Z               Mass       
    ------------   -----------------  -----------------  -----------------  -----------------
         C           -1.713490966586    -0.153491901635     0.000000000000    12.000000000000
         O           -1.030315236586    -1.153732599635     0.000000000000    15.994914619570
         O           -1.210726946586     1.082231095365     0.000000000000    15.994914619570
         H           -0.222721723586     1.037608733365     0.000000000000     1.007825032230
         C           -3.217755774586    -0.154012166635     0.000000000000    12.000000000000
         H           -3.587047207586    -1.173493978635     0.000000000000     1.007825032230
         H           -3.585789423586     0.377259181365    -0.876744631000     1.007825032230
         H           -3.585789423586     0.377259181365     0.876744631000     1.007825032230
         H            3.782110035414    -1.078021926635     0.874204506000     1.007825032230
         H            3.782110035414    -1.078021926635    -0.874204506000     1.007825032230
         H            4.117053078414     0.445319020365     0.000000000000     1.007825032230
         H            1.386678090414    -1.052115732635     0.000000000000     1.007825032230
         C            3.534564379414    -0.471583502635     0.000000000000    12.000000000000
         C            2.069459422414    -0.188428164635     0.000000000000    12.000000000000
         O            1.604823974414     0.932473575365     0.000000000000    15.994914619570

  Running in c1 symmetry.

  Rotational constants: A =      0.25122  B =      0.03167  C =      0.02842 [cm^-1]
  Rotational constants: A =   7531.53442  B =    949.44763  C =    851.94019 [MHz]
  Nuclear repulsion =  290.014201025422722

  Charge       = 0
  Multiplicity = 1
  Electrons    = 56
  Nalpha       = 28
  Nbeta        = 28

  ==> Algorithm <==

  SCF Algorithm Type is DF.
  DIIS enabled.
  MOM disabled.
  Fractional occupation disabled.
  Guess Type is SAD.
  Energy threshold   = 1.00e-08
  Density threshold  = 1.00e-08
  Integral threshold = 0.00e+00

  ==> Primary Basis <==

  Basis Set: JUN-CC-PVTZ
    Blend: JUN-CC-PVTZ
    Number of shells: 139
    Number of basis function: 385
    Number of Cartesian functions: 435
    Spherical Harmonics?: true
    Max angular momentum: 3

   => Loading Basis Set <=

    Name: (JUN-CC-PVTZ AUX)
    Role: JKFIT
    Keyword: DF_BASIS_SCF
    atoms 1, 5, 13-14 entry C          line   152 file /home/r09543063/miniconda3/envs/p4env/share/psi4/basis/jun-cc-pvtz-jkfit.gbs 
    atoms 2-3, 15     entry O          line   272 file /home/r09543063/miniconda3/envs/p4env/share/psi4/basis/jun-cc-pvtz-jkfit.gbs 
    atoms 4, 6-12     entry H          line    70 file /home/r09543063/miniconda3/envs/p4env/share/psi4/basis/jun-cc-pvtz-jkfit.gbs 

  ==> Pre-Iterations <==

   -------------------------------------------------------
    Irrep   Nso     Nmo     Nalpha   Nbeta   Ndocc  Nsocc
   -------------------------------------------------------
     A        385     385       0       0       0       0
   -------------------------------------------------------
    Total     385     385      28      28      28       0
   -------------------------------------------------------

  ==> Integral Setup <==

  ==> DiskDFJK: Density-Fitted J/K Matrices <==

    J tasked:                  Yes
    K tasked:                  Yes
    wK tasked:                  No
    OpenMP threads:              1
    Integrals threads:           1
    Memory [MiB]:            15735
    Algorithm:                Core
    Integral Cache:           SAVE
    Schwarz Cutoff:          1E-12
    Fitting Condition:       1E-10

   => Auxiliary Basis Set <=

  Basis Set: (JUN-CC-PVTZ AUX)
    Blend: JUN-CC-PVTZ-JKFIT
    Number of shells: 283
    Number of basis function: 905
    Number of Cartesian functions: 1092
    Spherical Harmonics?: true
    Max angular momentum: 4

  Minimum eigenvalue in the overlap matrix is 5.2570489829E-05.
  Using Symmetric Orthogonalization.

  SCF Guess: Superposition of Atomic Densities via on-the-fly atomic UHF.

  ==> Iterations <==

                           Total Energy        Delta E     RMS |[F,P]|

   @DF-RHF iter SAD:  -379.29327217413311   -3.79293e+02   0.00000e+00 
   @DF-RHF iter   1:  -380.63787605692846   -1.34460e+00   1.93141e-03 DIIS
   @DF-RHF iter   2:  -380.82567676675103   -1.87801e-01   1.14852e-03 DIIS
   @DF-RHF iter   3:  -380.88858287344976   -6.29061e-02   2.02633e-04 DIIS
   @DF-RHF iter   4:  -380.89248903396162   -3.90616e-03   8.70720e-05 DIIS
   @DF-RHF iter   5:  -380.89325099873798   -7.61965e-04   1.99293e-05 DIIS
   @DF-RHF iter   6:  -380.89331041444416   -5.94157e-05   1.01182e-05 DIIS
   @DF-RHF iter   7:  -380.89332397945088   -1.35650e-05   3.41383e-06 DIIS
   @DF-RHF iter   8:  -380.89332656727424   -2.58782e-06   1.01427e-06 DIIS
   @DF-RHF iter   9:  -380.89332682811352   -2.60839e-07   2.30626e-07 DIIS
   @DF-RHF iter  10:  -380.89332683784721   -9.73370e-09   9.82294e-08 DIIS
   @DF-RHF iter  11:  -380.89332683880383   -9.56618e-10   3.42915e-08 DIIS
   @DF-RHF iter  12:  -380.89332683891274   -1.08912e-10   9.54876e-09 DIIS
  Energy and wave function converged.


  ==> Post-Iterations <==

    Orbital Energies [Eh]
    ---------------------

    Doubly Occupied:                                                      

       1A    -20.586623     2A    -20.574500     3A    -20.535331  
       4A    -11.375375     5A    -11.345270     6A    -11.246977  
       7A    -11.233681     8A     -1.447670     9A     -1.410796  
      10A     -1.344251    11A     -1.031783    12A     -1.013991  
      13A     -0.816079    14A     -0.808899    15A     -0.701510  
      16A     -0.686160    17A     -0.664672    18A     -0.637901  
      19A     -0.636281    20A     -0.612921    21A     -0.573925  
      22A     -0.568043    23A     -0.551235    24A     -0.547183  
      25A     -0.520055    26A     -0.467132    27A     -0.446092  
      28A     -0.439068  

    Virtual:                                                              

      29A      0.042489    30A      0.051214    31A      0.071008  
      32A      0.071415    33A      0.078053    34A      0.082291  
      35A      0.085928    36A      0.099250    37A      0.101448  
      38A      0.108324    39A      0.124776    40A      0.144965  
      41A      0.149086    42A      0.156981    43A      0.166816  
      44A      0.183475    45A      0.183872    46A      0.186732  
      47A      0.193205    48A      0.204016    49A      0.204841  
      50A      0.210349    51A      0.236551    52A      0.249748  
      53A      0.252295    54A      0.258345    55A      0.267113  
      56A      0.276718    57A      0.280444    58A      0.282085  
      59A      0.292136    60A      0.295337    61A      0.301680  
      62A      0.310013    63A      0.324687    64A      0.329961  
      65A      0.331165    66A      0.348412    67A      0.354415  
      68A      0.359999    69A      0.375741    70A      0.387827  
      71A      0.405287    72A      0.406782    73A      0.411527  
      74A      0.416554    75A      0.426358    76A      0.447402  
      77A      0.451835    78A      0.463069    79A      0.468759  
      80A      0.492309    81A      0.514516    82A      0.517835  
      83A      0.524687    84A      0.536289    85A      0.548319  
      86A      0.563967    87A      0.597982    88A      0.619262  
      89A      0.622765    90A      0.633252    91A      0.638915  
      92A      0.648253    93A      0.662050    94A      0.666790  
      95A      0.669109    96A      0.687008    97A      0.687638  
      98A      0.708729    99A      0.711716   100A      0.718294  
     101A      0.733244   102A      0.737279   103A      0.770023  
     104A      0.785639   105A      0.797194   106A      0.797492  
     107A      0.810953   108A      0.815119   109A      0.822054  
     110A      0.829046   111A      0.844986   112A      0.850361  
     113A      0.855823   114A      0.855957   115A      0.889286  
     116A      0.891746   117A      0.911442   118A      0.924523  
     119A      0.935898   120A      0.950080   121A      0.954664  
     122A      0.963697   123A      0.997706   124A      1.000953  
     125A      1.020685   126A      1.028793   127A      1.042800  
     128A      1.067441   129A      1.077670   130A      1.079482  
     131A      1.091734   132A      1.111051   133A      1.149168  
     134A      1.173138   135A      1.186736   136A      1.212164  
     137A      1.214719   138A      1.236174   139A      1.252447  
     140A      1.258243   141A      1.280276   142A      1.281378  
     143A      1.301875   144A      1.315208   145A      1.329563  
     146A      1.330404   147A      1.350384   148A      1.362758  
     149A      1.363356   150A      1.379104   151A      1.391772  
     152A      1.404911   153A      1.416209   154A      1.419214  
     155A      1.447572   156A      1.454386   157A      1.455752  
     158A      1.489815   159A      1.504487   160A      1.540616  
     161A      1.547823   162A      1.549665   163A      1.557928  
     164A      1.578329   165A      1.579322   166A      1.585680  
     167A      1.596752   168A      1.637914   169A      1.652507  
     170A      1.692256   171A      1.699138   172A      1.725517  
     173A      1.760898   174A      1.772395   175A      1.775050  
     176A      1.825077   177A      1.836035   178A      1.860831  
     179A      1.864664   180A      1.929583   181A      1.951128  
     182A      2.063488   183A      2.105302   184A      2.207891  
     185A      2.222857   186A      2.239204   187A      2.266846  
     188A      2.297901   189A      2.302353   190A      2.361913  
     191A      2.382315   192A      2.434964   193A      2.443500  
     194A      2.456918   195A      2.538649   196A      2.580348  
     197A      2.602792   198A      2.639864   199A      2.653285  
     200A      2.663991   201A      2.695590   202A      2.744506  
     203A      2.749080   204A      2.764219   205A      2.781603  
     206A      2.804035   207A      2.842302   208A      2.904904  
     209A      2.917002   210A      2.937354   211A      2.966123  
     212A      3.002660   213A      3.016307   214A      3.052139  
     215A      3.059865   216A      3.085151   217A      3.086499  
     218A      3.106347   219A      3.153476   220A      3.164701  
     221A      3.180644   222A      3.199483   223A      3.210429  
     224A      3.216394   225A      3.267281   226A      3.268343  
     227A      3.306964   228A      3.318839   229A      3.352779  
     230A      3.355104   231A      3.375157   232A      3.381826  
     233A      3.398200   234A      3.425941   235A      3.442126  
     236A      3.443144   237A      3.449060   238A      3.473982  
     239A      3.489822   240A      3.513419   241A      3.524639  
     242A      3.548549   243A      3.565392   244A      3.601678  
     245A      3.625771   246A      3.626307   247A      3.639250  
     248A      3.648809   249A      3.655884   250A      3.679656  
     251A      3.704211   252A      3.728820   253A      3.745463  
     254A      3.757887   255A      3.766129   256A      3.771014  
     257A      3.779273   258A      3.782940   259A      3.791071  
     260A      3.815747   261A      3.831179   262A      3.852494  
     263A      3.860947   264A      3.905029   265A      3.936344  
     266A      3.968261   267A      4.001755   268A      4.030452  
     269A      4.070869   270A      4.109066   271A      4.140078  
     272A      4.155182   273A      4.161183   274A      4.188836  
     275A      4.196883   276A      4.219345   277A      4.255418  
     278A      4.270730   279A      4.288337   280A      4.299105  
     281A      4.319016   282A      4.323955   283A      4.342041  
     284A      4.351098   285A      4.371280   286A      4.373580  
     287A      4.402811   288A      4.417719   289A      4.463388  
     290A      4.466188   291A      4.482205   292A      4.515146  
     293A      4.540287   294A      4.591085   295A      4.604092  
     296A      4.613429   297A      4.635481   298A      4.654693  
     299A      4.697886   300A      4.732507   301A      4.756421  
     302A      4.759584   303A      4.779923   304A      4.783145  
     305A      4.810208   306A      4.827759   307A      4.882909  
     308A      4.966705   309A      5.021494   310A      5.044147  
     311A      5.066154   312A      5.120077   313A      5.134495  
     314A      5.137941   315A      5.154212   316A      5.215623  
     317A      5.281178   318A      5.305075   319A      5.354062  
     320A      5.388840   321A      5.438267   322A      5.444989  
     323A      5.497571   324A      5.507736   325A      5.530013  
     326A      5.574800   327A      5.577474   328A      5.585296  
     329A      5.646218   330A      5.646510   331A      5.659575  
     332A      5.683735   333A      5.690035   334A      5.703406  
     335A      5.717455   336A      5.739897   337A      5.750221  
     338A      5.838271   339A      5.863032   340A      5.896038  
     341A      5.897890   342A      5.945296   343A      6.075616  
     344A      6.098029   345A      6.105233   346A      6.121799  
     347A      6.296751   348A      6.361009   349A      6.407315  
     350A      6.418823   351A      6.425134   352A      6.448654  
     353A      6.542017   354A      6.766347   355A      6.773882  
     356A      6.775086   357A      6.920012   358A      6.942945  
     359A      6.987558   360A      7.092795   361A      7.144877  
     362A      7.218647   363A      7.265252   364A      7.274436  
     365A      7.295578   366A      7.324701   367A      7.375514  
     368A      7.376317   369A      7.433409   370A      7.433797  
     371A      7.461704   372A      7.669266   373A      7.689339  
     374A      7.719065   375A      7.758759   376A      7.891193  
     377A      7.977100   378A      8.250807   379A     12.120034  
     380A     12.400640   381A     13.805941   382A     14.314093  
     383A     14.470806   384A     14.522568   385A     14.676439  

    Final Occupation by Irrep:
              A 
    DOCC [    28 ]

  @DF-RHF Final Energy:  -380.89332683891274

   => Energetics <=

    Nuclear Repulsion Energy =            290.0142010254227216
    One-Electron Energy =               -1096.1682426077115906
    Two-Electron Energy =                 425.2607147433761270
    Total Energy =                       -380.8933268389127420

Computation Completed


Properties will be evaluated at   0.000000,   0.000000,   0.000000 [a0]

Properties computed using the SCF density matrix

  Nuclear Dipole Moment: [e a0]
     X:     1.9531      Y:    -2.0060      Z:     0.0000

  Electronic Dipole Moment: [e a0]
     X:    -1.4142      Y:     1.5401      Z:    -0.0000

  Dipole Moment: [e a0]
     X:     0.5389      Y:    -0.4659      Z:    -0.0000     Total:     0.7124

  Dipole Moment: [D]
     X:     1.3696      Y:    -1.1843      Z:    -0.0000     Total:     1.8106


*** tstop() called on r282 at Tue Aug 24 05:43:02 2021
Module time:
	user time   =      25.52 seconds =       0.43 minutes
	system time =       0.76 seconds =       0.01 minutes
	total time  =         27 seconds =       0.45 minutes
Total time:
	user time   =      25.52 seconds =       0.43 minutes
	system time =       0.76 seconds =       0.01 minutes
	total time  =         27 seconds =       0.45 minutes

  //>>>>>>>>>>>>>>>>>>>>>>>>>>>>>>>>>>>//
  //            Monomer A HF           //
  //<<<<<<<<<<<<<<<<<<<<<<<<<<<<<<<<<<<//


*** tstart() called on r282
*** at Tue Aug 24 05:43:02 2021

   => Loading Basis Set <=

    Name: JUN-CC-PVTZ
    Role: ORBITAL
    Keyword: BASIS
    atoms 1, 5, 13-14 entry C          line   217 file /home/r09543063/miniconda3/envs/p4env/share/psi4/basis/jun-cc-pvtz.gbs 
    atoms 2-3, 15     entry O          line   305 file /home/r09543063/miniconda3/envs/p4env/share/psi4/basis/jun-cc-pvtz.gbs 
    atoms 4, 6-12     entry H          line    36 file /home/r09543063/miniconda3/envs/p4env/share/psi4/basis/jun-cc-pvtz.gbs 


         ---------------------------------------------------------
                                   SCF
               by Justin Turney, Rob Parrish, Andy Simmonett
                          and Daniel G. A. Smith
                              RHF Reference
                        1 Threads,  20980 MiB Core
         ---------------------------------------------------------

  ==> Geometry <==

    Molecular point group: c1
    Full point group: Cs

    Geometry (in Angstrom), charge = 0, multiplicity = 1:

       Center              X                  Y                   Z               Mass       
    ------------   -----------------  -----------------  -----------------  -----------------
         C           -1.713490966586    -0.153491901635     0.000000000000    12.000000000000
         O           -1.030315236586    -1.153732599635     0.000000000000    15.994914619570
         O           -1.210726946586     1.082231095365     0.000000000000    15.994914619570
         H           -0.222721723586     1.037608733365     0.000000000000     1.007825032230
         C           -3.217755774586    -0.154012166635     0.000000000000    12.000000000000
         H           -3.587047207586    -1.173493978635     0.000000000000     1.007825032230
         H           -3.585789423586     0.377259181365    -0.876744631000     1.007825032230
         H           -3.585789423586     0.377259181365     0.876744631000     1.007825032230
      Gh(H)           3.782110035414    -1.078021926635     0.874204506000     1.007825032230
      Gh(H)           3.782110035414    -1.078021926635    -0.874204506000     1.007825032230
      Gh(H)           4.117053078414     0.445319020365     0.000000000000     1.007825032230
      Gh(H)           1.386678090414    -1.052115732635     0.000000000000     1.007825032230
      Gh(C)           3.534564379414    -0.471583502635     0.000000000000    12.000000000000
      Gh(C)           2.069459422414    -0.188428164635     0.000000000000    12.000000000000
      Gh(O)           1.604823974414     0.932473575365     0.000000000000    15.994914619570

  Running in c1 symmetry.

  Rotational constants: A =      0.25122  B =      0.03167  C =      0.02842 [cm^-1]
  Rotational constants: A =   7531.53442  B =    949.44763  C =    851.94019 [MHz]
  Nuclear repulsion =  121.294624813580299

  Charge       = 0
  Multiplicity = 1
  Electrons    = 32
  Nalpha       = 16
  Nbeta        = 16

  ==> Algorithm <==

  SCF Algorithm Type is DF.
  DIIS enabled.
  MOM disabled.
  Fractional occupation disabled.
  Guess Type is SAD.
  Energy threshold   = 1.00e-08
  Density threshold  = 1.00e-08
  Integral threshold = 0.00e+00

  ==> Primary Basis <==

  Basis Set: JUN-CC-PVTZ
    Blend: JUN-CC-PVTZ
    Number of shells: 139
    Number of basis function: 385
    Number of Cartesian functions: 435
    Spherical Harmonics?: true
    Max angular momentum: 3

   => Loading Basis Set <=

    Name: (JUN-CC-PVTZ AUX)
    Role: JKFIT
    Keyword: DF_BASIS_SCF
    atoms 1, 5, 13-14 entry C          line   152 file /home/r09543063/miniconda3/envs/p4env/share/psi4/basis/jun-cc-pvtz-jkfit.gbs 
    atoms 2-3, 15     entry O          line   272 file /home/r09543063/miniconda3/envs/p4env/share/psi4/basis/jun-cc-pvtz-jkfit.gbs 
    atoms 4, 6-12     entry H          line    70 file /home/r09543063/miniconda3/envs/p4env/share/psi4/basis/jun-cc-pvtz-jkfit.gbs 

  ==> Pre-Iterations <==

   -------------------------------------------------------
    Irrep   Nso     Nmo     Nalpha   Nbeta   Ndocc  Nsocc
   -------------------------------------------------------
     A        385     385       0       0       0       0
   -------------------------------------------------------
    Total     385     385      16      16      16       0
   -------------------------------------------------------

  ==> Integral Setup <==

  ==> DiskDFJK: Density-Fitted J/K Matrices <==

    J tasked:                  Yes
    K tasked:                  Yes
    wK tasked:                  No
    OpenMP threads:              1
    Integrals threads:           1
    Memory [MiB]:            15735
    Algorithm:                Core
    Integral Cache:           LOAD
    Schwarz Cutoff:          1E-12
    Fitting Condition:       1E-10

   => Auxiliary Basis Set <=

  Basis Set: (JUN-CC-PVTZ AUX)
    Blend: JUN-CC-PVTZ-JKFIT
    Number of shells: 283
    Number of basis function: 905
    Number of Cartesian functions: 1092
    Spherical Harmonics?: true
    Max angular momentum: 4

  Minimum eigenvalue in the overlap matrix is 5.2570489829E-05.
  Using Symmetric Orthogonalization.

  SCF Guess: Superposition of Atomic Densities via on-the-fly atomic UHF.

  ==> Iterations <==

                           Total Energy        Delta E     RMS |[F,P]|

   @DF-RHF iter SAD:  -227.01476702417997   -2.27015e+02   0.00000e+00 
   @DF-RHF iter   1:  -227.74480976516742   -7.30043e-01   1.55524e-03 DIIS
   @DF-RHF iter   2:  -227.85898075832802   -1.14171e-01   9.51443e-04 DIIS
   @DF-RHF iter   3:  -227.90111006137008   -4.21293e-02   1.55525e-04 DIIS
   @DF-RHF iter   4:  -227.90331789459981   -2.20783e-03   7.11226e-05 DIIS
   @DF-RHF iter   5:  -227.90380289575313   -4.85001e-04   1.71482e-05 DIIS
   @DF-RHF iter   6:  -227.90384387010104   -4.09743e-05   8.23767e-06 DIIS
   @DF-RHF iter   7:  -227.90385399667576   -1.01266e-05   2.75628e-06 DIIS
   @DF-RHF iter   8:  -227.90385572680464   -1.73013e-06   7.31581e-07 DIIS
   @DF-RHF iter   9:  -227.90385586637578   -1.39571e-07   1.51757e-07 DIIS
   @DF-RHF iter  10:  -227.90385587139153   -5.01575e-09   3.71008e-08 DIIS
   @DF-RHF iter  11:  -227.90385587159162   -2.00089e-10   9.39496e-09 DIIS
  Energy and wave function converged.


  ==> Post-Iterations <==

    Orbital Energies [Eh]
    ---------------------

    Doubly Occupied:                                                      

       1A    -20.620507     2A    -20.547537     3A    -11.388931  
       4A    -11.244875     5A     -1.469228     6A     -1.360548  
       7A     -1.026573     8A     -0.831558     9A     -0.704644  
      10A     -0.682693    11A     -0.654065    12A     -0.581430  
      13A     -0.573006    14A     -0.563267    15A     -0.481912  
      16A     -0.453858  

    Virtual:                                                              

      17A      0.034601    18A      0.044403    19A      0.057746  
      20A      0.068015    21A      0.073984    22A      0.080089  
      23A      0.080647    24A      0.096121    25A      0.104534  
      26A      0.107718    27A      0.137371    28A      0.140764  
      29A      0.142903    30A      0.146716    31A      0.158390  
      32A      0.165855    33A      0.172050    34A      0.177940  
      35A      0.187763    36A      0.198729    37A      0.201981  
      38A      0.204406    39A      0.224229    40A      0.241041  
      41A      0.245552    42A      0.253819    43A      0.258689  
      44A      0.265367    45A      0.278996    46A      0.282201  
      47A      0.286046    48A      0.301996    49A      0.317824  
      50A      0.322416    51A      0.329269    52A      0.338057  
      53A      0.342333    54A      0.348037    55A      0.375163  
      56A      0.376562    57A      0.381600    58A      0.383679  
      59A      0.391649    60A      0.402681    61A      0.417726  
      62A      0.428328    63A      0.434888    64A      0.444986  
      65A      0.457675    66A      0.460564    67A      0.480363  
      68A      0.499359    69A      0.500904    70A      0.510564  
      71A      0.511195    72A      0.517821    73A      0.540105  
      74A      0.553509    75A      0.572821    76A      0.579572  
      77A      0.590686    78A      0.615851    79A      0.616891  
      80A      0.636723    81A      0.644431    82A      0.659198  
      83A      0.666511    84A      0.690977    85A      0.694560  
      86A      0.701277    87A      0.711857    88A      0.715363  
      89A      0.757524    90A      0.758491    91A      0.776541  
      92A      0.789587    93A      0.810789    94A      0.816935  
      95A      0.820989    96A      0.834357    97A      0.841735  
      98A      0.844870    99A      0.875159   100A      0.884268  
     101A      0.910095   102A      0.922769   103A      0.940582  
     104A      0.947628   105A      0.968554   106A      0.992782  
     107A      0.998048   108A      1.000988   109A      1.006252  
     110A      1.029414   111A      1.043613   112A      1.054784  
     113A      1.064395   114A      1.065410   115A      1.071639  
     116A      1.093514   117A      1.127463   118A      1.129166  
     119A      1.155063   120A      1.187812   121A      1.193090  
     122A      1.205159   123A      1.207036   124A      1.226936  
     125A      1.239194   126A      1.254886   127A      1.257740  
     128A      1.258727   129A      1.267866   130A      1.275190  
     131A      1.294427   132A      1.300189   133A      1.318816  
     134A      1.332815   135A      1.351520   136A      1.371101  
     137A      1.388570   138A      1.412790   139A      1.415458  
     140A      1.428014   141A      1.452442   142A      1.456013  
     143A      1.476596   144A      1.481266   145A      1.482336  
     146A      1.530441   147A      1.548611   148A      1.552474  
     149A      1.563761   150A      1.575369   151A      1.586482  
     152A      1.589580   153A      1.608256   154A      1.628227  
     155A      1.630240   156A      1.666674   157A      1.693690  
     158A      1.717845   159A      1.735590   160A      1.764884  
     161A      1.797522   162A      1.824645   163A      1.852579  
     164A      1.862871   165A      1.910679   166A      1.932683  
     167A      1.942577   168A      2.010977   169A      2.011738  
     170A      2.065300   171A      2.097984   172A      2.152694  
     173A      2.201620   174A      2.208089   175A      2.250865  
     176A      2.264511   177A      2.299476   178A      2.341913  
     179A      2.353045   180A      2.414837   181A      2.420842  
     182A      2.442031   183A      2.447349   184A      2.482596  
     185A      2.516787   186A      2.534591   187A      2.627721  
     188A      2.637644   189A      2.677061   190A      2.708583  
     191A      2.758023   192A      2.779083   193A      2.787727  
     194A      2.832008   195A      2.845817   196A      2.901381  
     197A      2.919199   198A      2.955171   199A      2.964173  
     200A      2.989053   201A      3.035452   202A      3.095955  
     203A      3.109713   204A      3.156917   205A      3.193153  
     206A      3.200294   207A      3.251842   208A      3.273448  
     209A      3.282434   210A      3.341133   211A      3.356536  
     212A      3.418744   213A      3.424811   214A      3.431209  
     215A      3.460690   216A      3.493615   217A      3.522417  
     218A      3.523528   219A      3.545212   220A      3.559657  
     221A      3.574020   222A      3.611110   223A      3.612104  
     224A      3.623228   225A      3.634521   226A      3.654629  
     227A      3.687187   228A      3.708013   229A      3.751838  
     230A      3.753034   231A      3.767883   232A      3.776514  
     233A      3.795538   234A      3.809681   235A      3.818483  
     236A      3.822892   237A      3.835778   238A      3.849550  
     239A      3.882452   240A      3.911198   241A      3.923042  
     242A      3.985315   243A      3.998582   244A      4.017861  
     245A      4.048513   246A      4.073181   247A      4.131403  
     248A      4.146966   249A      4.162071   250A      4.183649  
     251A      4.197809   252A      4.201209   253A      4.259961  
     254A      4.280185   255A      4.302054   256A      4.306624  
     257A      4.309552   258A      4.326132   259A      4.337876  
     260A      4.382143   261A      4.392716   262A      4.403284  
     263A      4.425418   264A      4.449711   265A      4.498888  
     266A      4.506879   267A      4.514375   268A      4.528307  
     269A      4.553021   270A      4.559438   271A      4.588954  
     272A      4.601048   273A      4.636245   274A      4.638138  
     275A      4.695757   276A      4.720721   277A      4.730529  
     278A      4.736369   279A      4.740861   280A      4.742752  
     281A      4.767338   282A      4.775504   283A      4.779112  
     284A      4.800090   285A      4.807116   286A      4.834647  
     287A      4.841455   288A      4.871324   289A      4.894950  
     290A      4.895783   291A      4.906274   292A      4.948475  
     293A      5.001150   294A      5.026490   295A      5.048806  
     296A      5.091363   297A      5.103135   298A      5.143748  
     299A      5.157742   300A      5.226736   301A      5.275316  
     302A      5.301497   303A      5.368961   304A      5.422856  
     305A      5.434274   306A      5.496396   307A      5.562124  
     308A      5.566027   309A      5.612281   310A      5.637805  
     311A      5.638711   312A      5.644415   313A      5.674217  
     314A      5.681033   315A      5.738944   316A      5.747219  
     317A      5.818983   318A      5.876139   319A      5.883282  
     320A      5.914965   321A      6.024786   322A      6.056716  
     323A      6.090414   324A      6.105242   325A      6.124681  
     326A      6.177427   327A      6.265201   328A      6.266313  
     329A      6.287197   330A      6.338814   331A      6.413637  
     332A      6.436937   333A      6.442477   334A      6.519523  
     335A      6.543684   336A      6.593612   337A      6.679636  
     338A      6.755932   339A      6.761974   340A      6.779739  
     341A      6.920520   342A      6.926011   343A      6.965819  
     344A      6.999581   345A      7.077023   346A      7.159726  
     347A      7.252456   348A      7.278309   349A      7.318302  
     350A      7.359900   351A      7.370318   352A      7.419447  
     353A      7.446036   354A      7.490886   355A      7.526912  
     356A      7.601600   357A      7.664720   358A      7.745726  
     359A      7.778865   360A      7.846701   361A      7.861308  
     362A      7.868860   363A      7.947394   364A      8.121376  
     365A      8.215193   366A      8.321421   367A      8.521694  
     368A      9.352835   369A      9.401914   370A      9.755672  
     371A      9.835974   372A      9.860823   373A      9.905015  
     374A     10.190160   375A     11.022019   376A     11.550940  
     377A     11.905609   378A     12.111760   379A     13.699595  
     380A     13.829936   381A     14.471464   382A     14.664057  
     383A     43.522229   384A     45.683496   385A     60.629365  

    Final Occupation by Irrep:
              A 
    DOCC [    16 ]

  @DF-RHF Final Energy:  -227.90385587159162

   => Energetics <=

    Nuclear Repulsion Energy =            121.2946248135802989
    One-Electron Energy =                -552.0276977484213603
    Two-Electron Energy =                 202.8292170632494447
    Total Energy =                       -227.9038558715916167

Computation Completed


Properties will be evaluated at   0.000000,   0.000000,   0.000000 [a0]

Properties computed using the SCF density matrix

  Nuclear Dipole Moment: [e a0]
     X:  -110.5436      Y:    -3.3985      Z:     0.0000

  Electronic Dipole Moment: [e a0]
     X:   110.1179      Y:     4.1180      Z:    -0.0000

  Dipole Moment: [e a0]
     X:    -0.4257      Y:     0.7195      Z:    -0.0000     Total:     0.8360

  Dipole Moment: [D]
     X:    -1.0821      Y:     1.8287      Z:    -0.0000     Total:     2.1249


*** tstop() called on r282 at Tue Aug 24 05:43:15 2021
Module time:
	user time   =      12.54 seconds =       0.21 minutes
	system time =       0.36 seconds =       0.01 minutes
	total time  =         13 seconds =       0.22 minutes
Total time:
	user time   =      38.07 seconds =       0.63 minutes
	system time =       1.12 seconds =       0.02 minutes
	total time  =         40 seconds =       0.67 minutes

  //>>>>>>>>>>>>>>>>>>>>>>>>>>>>>>>>>>>//
  //            Monomer B HF           //
  //<<<<<<<<<<<<<<<<<<<<<<<<<<<<<<<<<<<//


*** tstart() called on r282
*** at Tue Aug 24 05:43:15 2021

   => Loading Basis Set <=

    Name: JUN-CC-PVTZ
    Role: ORBITAL
    Keyword: BASIS
    atoms 1, 5, 13-14 entry C          line   217 file /home/r09543063/miniconda3/envs/p4env/share/psi4/basis/jun-cc-pvtz.gbs 
    atoms 2-3, 15     entry O          line   305 file /home/r09543063/miniconda3/envs/p4env/share/psi4/basis/jun-cc-pvtz.gbs 
    atoms 4, 6-12     entry H          line    36 file /home/r09543063/miniconda3/envs/p4env/share/psi4/basis/jun-cc-pvtz.gbs 


         ---------------------------------------------------------
                                   SCF
               by Justin Turney, Rob Parrish, Andy Simmonett
                          and Daniel G. A. Smith
                              RHF Reference
                        1 Threads,  20980 MiB Core
         ---------------------------------------------------------

  ==> Geometry <==

    Molecular point group: c1
    Full point group: Cs

    Geometry (in Angstrom), charge = 0, multiplicity = 1:

       Center              X                  Y                   Z               Mass       
    ------------   -----------------  -----------------  -----------------  -----------------
      Gh(C)          -1.713490966586    -0.153491901635     0.000000000000    12.000000000000
      Gh(O)          -1.030315236586    -1.153732599635     0.000000000000    15.994914619570
      Gh(O)          -1.210726946586     1.082231095365     0.000000000000    15.994914619570
      Gh(H)          -0.222721723586     1.037608733365     0.000000000000     1.007825032230
      Gh(C)          -3.217755774586    -0.154012166635     0.000000000000    12.000000000000
      Gh(H)          -3.587047207586    -1.173493978635     0.000000000000     1.007825032230
      Gh(H)          -3.585789423586     0.377259181365    -0.876744631000     1.007825032230
      Gh(H)          -3.585789423586     0.377259181365     0.876744631000     1.007825032230
         H            3.782110035414    -1.078021926635     0.874204506000     1.007825032230
         H            3.782110035414    -1.078021926635    -0.874204506000     1.007825032230
         H            4.117053078414     0.445319020365     0.000000000000     1.007825032230
         H            1.386678090414    -1.052115732635     0.000000000000     1.007825032230
         C            3.534564379414    -0.471583502635     0.000000000000    12.000000000000
         C            2.069459422414    -0.188428164635     0.000000000000    12.000000000000
         O            1.604823974414     0.932473575365     0.000000000000    15.994914619570

  Running in c1 symmetry.

  Rotational constants: A =      0.25122  B =      0.03167  C =      0.02842 [cm^-1]
  Rotational constants: A =   7531.53442  B =    949.44763  C =    851.94019 [MHz]
  Nuclear repulsion =   69.863477528795727

  Charge       = 0
  Multiplicity = 1
  Electrons    = 24
  Nalpha       = 12
  Nbeta        = 12

  ==> Algorithm <==

  SCF Algorithm Type is DF.
  DIIS enabled.
  MOM disabled.
  Fractional occupation disabled.
  Guess Type is SAD.
  Energy threshold   = 1.00e-08
  Density threshold  = 1.00e-08
  Integral threshold = 0.00e+00

  ==> Primary Basis <==

  Basis Set: JUN-CC-PVTZ
    Blend: JUN-CC-PVTZ
    Number of shells: 139
    Number of basis function: 385
    Number of Cartesian functions: 435
    Spherical Harmonics?: true
    Max angular momentum: 3

   => Loading Basis Set <=

    Name: (JUN-CC-PVTZ AUX)
    Role: JKFIT
    Keyword: DF_BASIS_SCF
    atoms 1, 5, 13-14 entry C          line   152 file /home/r09543063/miniconda3/envs/p4env/share/psi4/basis/jun-cc-pvtz-jkfit.gbs 
    atoms 2-3, 15     entry O          line   272 file /home/r09543063/miniconda3/envs/p4env/share/psi4/basis/jun-cc-pvtz-jkfit.gbs 
    atoms 4, 6-12     entry H          line    70 file /home/r09543063/miniconda3/envs/p4env/share/psi4/basis/jun-cc-pvtz-jkfit.gbs 

  ==> Pre-Iterations <==

   -------------------------------------------------------
    Irrep   Nso     Nmo     Nalpha   Nbeta   Ndocc  Nsocc
   -------------------------------------------------------
     A        385     385       0       0       0       0
   -------------------------------------------------------
    Total     385     385      12      12      12       0
   -------------------------------------------------------

  ==> Integral Setup <==

  ==> DiskDFJK: Density-Fitted J/K Matrices <==

    J tasked:                  Yes
    K tasked:                  Yes
    wK tasked:                  No
    OpenMP threads:              1
    Integrals threads:           1
    Memory [MiB]:            15735
    Algorithm:                Core
    Integral Cache:           LOAD
    Schwarz Cutoff:          1E-12
    Fitting Condition:       1E-10

   => Auxiliary Basis Set <=

  Basis Set: (JUN-CC-PVTZ AUX)
    Blend: JUN-CC-PVTZ-JKFIT
    Number of shells: 283
    Number of basis function: 905
    Number of Cartesian functions: 1092
    Spherical Harmonics?: true
    Max angular momentum: 4

  Minimum eigenvalue in the overlap matrix is 5.2570489829E-05.
  Using Symmetric Orthogonalization.

  SCF Guess: Superposition of Atomic Densities via on-the-fly atomic UHF.

  ==> Iterations <==

                           Total Energy        Delta E     RMS |[F,P]|

   @DF-RHF iter SAD:  -152.13422249807118   -1.52134e+02   0.00000e+00 
   @DF-RHF iter   1:  -152.85537794837043   -7.21155e-01   1.27318e-03 DIIS
   @DF-RHF iter   2:  -152.93632241729671   -8.09445e-02   8.67770e-04 DIIS
   @DF-RHF iter   3:  -152.97352829120319   -3.72059e-02   1.45127e-04 DIIS
   @DF-RHF iter   4:  -152.97562942784523   -2.10114e-03   5.65489e-05 DIIS
   @DF-RHF iter   5:  -152.97602291818751   -3.93490e-04   1.12769e-05 DIIS
   @DF-RHF iter   6:  -152.97605216687668   -2.92487e-05   4.50645e-06 DIIS
   @DF-RHF iter   7:  -152.97605609971384   -3.93284e-06   1.71190e-06 DIIS
   @DF-RHF iter   8:  -152.97605670873088   -6.09017e-07   3.73162e-07 DIIS
   @DF-RHF iter   9:  -152.97605673905394   -3.03231e-08   1.04835e-07 DIIS
   @DF-RHF iter  10:  -152.97605674101240   -1.95845e-09   2.20638e-08 DIIS
   @DF-RHF iter  11:  -152.97605674109519   -8.27924e-11   4.13916e-09 DIIS
  Energy and wave function converged.


  ==> Post-Iterations <==

    Orbital Energies [Eh]
    ---------------------

    Doubly Occupied:                                                      

       1A    -20.558733     2A    -11.335679     3A    -11.242232  
       4A     -1.391409     5A     -1.024867     6A     -0.804562  
       7A     -0.676223     8A     -0.624669     9A     -0.605842  
      10A     -0.563632    11A     -0.501970    12A     -0.428456  

    Virtual:                                                              

      13A      0.037925    14A      0.042926    15A      0.057551  
      16A      0.066984    17A      0.072049    18A      0.078766  
      19A      0.079539    20A      0.095811    21A      0.101288  
      22A      0.104461    23A      0.128640    24A      0.136337  
      25A      0.142396    26A      0.153010    27A      0.160081  
      28A      0.162708    29A      0.177077    30A      0.177822  
      31A      0.190916    32A      0.197118    33A      0.202213  
      34A      0.213089    35A      0.217385    36A      0.217778  
      37A      0.234556    38A      0.244400    39A      0.254359  
      40A      0.264964    41A      0.275425    42A      0.284168  
      43A      0.287739    44A      0.293157    45A      0.308096  
      46A      0.326209    47A      0.327816    48A      0.342255  
      49A      0.356637    50A      0.358300    51A      0.367474  
      52A      0.379823    53A      0.381038    54A      0.386456  
      55A      0.395808    56A      0.404017    57A      0.426044  
      58A      0.426624    59A      0.437739    60A      0.451349  
      61A      0.466177    62A      0.466798    63A      0.472406  
      64A      0.480791    65A      0.493190    66A      0.506477  
      67A      0.511257    68A      0.520732    69A      0.525172  
      70A      0.553419    71A      0.569158    72A      0.584731  
      73A      0.595353    74A      0.618417    75A      0.638600  
      76A      0.640179    77A      0.670011    78A      0.674361  
      79A      0.683616    80A      0.698123    81A      0.713199  
      82A      0.727487    83A      0.736703    84A      0.749661  
      85A      0.776360    86A      0.779049    87A      0.783737  
      88A      0.799866    89A      0.814947    90A      0.815953  
      91A      0.831238    92A      0.850528    93A      0.863567  
      94A      0.879420    95A      0.879681    96A      0.885564  
      97A      0.910494    98A      0.931484    99A      0.941374  
     100A      0.949803   101A      0.967152   102A      0.975300  
     103A      0.990404   104A      1.006755   105A      1.012986  
     106A      1.037563   107A      1.038611   108A      1.046740  
     109A      1.052701   110A      1.057339   111A      1.060636  
     112A      1.083838   113A      1.100739   114A      1.102522  
     115A      1.127960   116A      1.131825   117A      1.147211  
     118A      1.167782   119A      1.208342   120A      1.224089  
     121A      1.236850   122A      1.249711   123A      1.255733  
     124A      1.262713   125A      1.270226   126A      1.296726  
     127A      1.305382   128A      1.319751   129A      1.338729  
     130A      1.339916   131A      1.343089   132A      1.365878  
     133A      1.400758   134A      1.413056   135A      1.431259  
     136A      1.438996   137A      1.451687   138A      1.462052  
     139A      1.482380   140A      1.512913   141A      1.547309  
     142A      1.550562   143A      1.552041   144A      1.561741  
     145A      1.581758   146A      1.588950   147A      1.599717  
     148A      1.621149   149A      1.632499   150A      1.668627  
     151A      1.689794   152A      1.698982   153A      1.760603  
     154A      1.761861   155A      1.804501   156A      1.815382  
     157A      1.833541   158A      1.866143   159A      1.878402  
     160A      1.907112   161A      1.918540   162A      1.921348  
     163A      1.954217   164A      1.970464   165A      2.031734  
     166A      2.093583   167A      2.116951   168A      2.147698  
     169A      2.170046   170A      2.264232   171A      2.303906  
     172A      2.340047   173A      2.373120   174A      2.407225  
     175A      2.414752   176A      2.500222   177A      2.522303  
     178A      2.564871   179A      2.593316   180A      2.598881  
     181A      2.617144   182A      2.667220   183A      2.718144  
     184A      2.731629   185A      2.744606   186A      2.766596  
     187A      2.786718   188A      2.792990   189A      2.842569  
     190A      2.869849   191A      2.918472   192A      2.931529  
     193A      2.959527   194A      2.965549   195A      2.987505  
     196A      3.027939   197A      3.043036   198A      3.059462  
     199A      3.067492   200A      3.077610   201A      3.091756  
     202A      3.145869   203A      3.159097   204A      3.187860  
     205A      3.224870   206A      3.269762   207A      3.333969  
     208A      3.342595   209A      3.369235   210A      3.384873  
     211A      3.421961   212A      3.430158   213A      3.441602  
     214A      3.482861   215A      3.498984   216A      3.543598  
     217A      3.552374   218A      3.586861   219A      3.594947  
     220A      3.607499   221A      3.621793   222A      3.624888  
     223A      3.639198   224A      3.653741   225A      3.661155  
     226A      3.694719   227A      3.750174   228A      3.764604  
     229A      3.767048   230A      3.787391   231A      3.796964  
     232A      3.823045   233A      3.853707   234A      3.872316  
     235A      3.872853   236A      3.933516   237A      3.955940  
     238A      3.964118   239A      3.989535   240A      4.000487  
     241A      4.004870   242A      4.012094   243A      4.099068  
     244A      4.115885   245A      4.151161   246A      4.169049  
     247A      4.197653   248A      4.240101   249A      4.252020  
     250A      4.272953   251A      4.279979   252A      4.292430  
     253A      4.320820   254A      4.341610   255A      4.361233  
     256A      4.369673   257A      4.375068   258A      4.379742  
     259A      4.413954   260A      4.451775   261A      4.484466  
     262A      4.485094   263A      4.512288   264A      4.523456  
     265A      4.554258   266A      4.584490   267A      4.606138  
     268A      4.657823   269A      4.661892   270A      4.701873  
     271A      4.708599   272A      4.742427   273A      4.752332  
     274A      4.760938   275A      4.771406   276A      4.777318  
     277A      4.792722   278A      4.816506   279A      4.820749  
     280A      4.855526   281A      4.879000   282A      4.894365  
     283A      4.922943   284A      4.943737   285A      4.955614  
     286A      4.995017   287A      4.995997   288A      5.014866  
     289A      5.063356   290A      5.073963   291A      5.091134  
     292A      5.118419   293A      5.134772   294A      5.141973  
     295A      5.179838   296A      5.221424   297A      5.262058  
     298A      5.324175   299A      5.358053   300A      5.376091  
     301A      5.449671   302A      5.458508   303A      5.502095  
     304A      5.535499   305A      5.583939   306A      5.641088  
     307A      5.665890   308A      5.667873   309A      5.692077  
     310A      5.701676   311A      5.724087   312A      5.730153  
     313A      5.821686   314A      5.872666   315A      5.981730  
     316A      6.038926   317A      6.056214   318A      6.095518  
     319A      6.118653   320A      6.144304   321A      6.169121  
     322A      6.278668   323A      6.299008   324A      6.347004  
     325A      6.412821   326A      6.418068   327A      6.447220  
     328A      6.491946   329A      6.497087   330A      6.520556  
     331A      6.650346   332A      6.724082   333A      6.786118  
     334A      6.817564   335A      6.938927   336A      7.049251  
     337A      7.153897   338A      7.178114   339A      7.197167  
     340A      7.203764   341A      7.297377   342A      7.357177  
     343A      7.413400   344A      7.527147   345A      7.530661  
     346A      7.561382   347A      7.714103   348A      7.723515  
     349A      7.742654   350A      7.811589   351A      7.835330  
     352A      7.837756   353A      7.936629   354A      8.049195  
     355A      8.147067   356A      8.320389   357A      8.679505  
     358A      8.860310   359A      9.141483   360A      9.428678  
     361A      9.701442   362A      9.773877   363A      9.854970  
     364A      9.903114   365A      9.905180   366A      9.918231  
     367A      9.949471   368A     10.081978   369A     10.378963  
     370A     10.502730   371A     11.073790   372A     11.359333  
     373A     11.546761   374A     11.621184   375A     11.971534  
     376A     12.420997   377A     13.104302   378A     13.780122  
     379A     13.999661   380A     14.292538   381A     14.514748  
     382A     42.853901   383A     45.922487   384A     61.095686  
     385A     61.652257  

    Final Occupation by Irrep:
              A 
    DOCC [    12 ]

  @DF-RHF Final Energy:  -152.97605674109519

   => Energetics <=

    Nuclear Repulsion Energy =             69.8634775287957268
    One-Electron Energy =                -346.1625208463155445
    Two-Electron Energy =                 123.3229865764246256
    Total Energy =                       -152.9760567410951921

Computation Completed


Properties will be evaluated at   0.000000,   0.000000,   0.000000 [a0]

Properties computed using the SCF density matrix

  Nuclear Dipole Moment: [e a0]
     X:   112.4967      Y:     1.3925      Z:     0.0000

  Electronic Dipole Moment: [e a0]
     X:  -111.8347      Y:    -2.5061      Z:     0.0000

  Dipole Moment: [e a0]
     X:     0.6620      Y:    -1.1136      Z:     0.0000     Total:     1.2955

  Dipole Moment: [D]
     X:     1.6826      Y:    -2.8304      Z:     0.0000     Total:     3.2928


*** tstop() called on r282 at Tue Aug 24 05:43:27 2021
Module time:
	user time   =      12.31 seconds =       0.21 minutes
	system time =       0.27 seconds =       0.00 minutes
	total time  =         12 seconds =       0.20 minutes
Total time:
	user time   =      50.39 seconds =       0.84 minutes
	system time =       1.39 seconds =       0.02 minutes
	total time  =         52 seconds =       0.87 minutes
  Constructing Basis Sets for SAPT...

   => Loading Basis Set <=

    Name: (JUN-CC-PVTZ AUX)
    Role: RIFIT
    Keyword: DF_BASIS_SAPT
    atoms 1, 5, 13-14 entry C          line   132 file /home/r09543063/miniconda3/envs/p4env/share/psi4/basis/jun-cc-pvtz-ri.gbs 
    atoms 2-3, 15     entry O          line   244 file /home/r09543063/miniconda3/envs/p4env/share/psi4/basis/jun-cc-pvtz-ri.gbs 
    atoms 4, 6-12     entry H          line    30 file /home/r09543063/miniconda3/envs/p4env/share/psi4/basis/jun-cc-pvtz-ri.gbs 


  //>>>>>>>>>>>>>>>>>>>>>>>>>>>>>>>>>>>//
  //               SAPT0               //
  //<<<<<<<<<<<<<<<<<<<<<<<<<<<<<<<<<<<//


*** tstart() called on r282
*** at Tue Aug 24 05:43:27 2021

        SAPT0  
    Ed Hohenstein
     6 June 2009

      Orbital Information
  --------------------------
    NSO        =       385
    NMO        =       385
    NRI        =       919
    NOCC A     =        16
    NOCC B     =        12
    FOCC A     =         4
    FOCC B     =         3
    NVIR A     =       369
    NVIR B     =       373

    Elst10,r            =    -0.024311523700 [Eh]
    Exch10              =     0.019994060003 [Eh]
    Exch10 (S^2)        =     0.019843011896 [Eh]

    Iter     Energy [mEh]          dE [mEh]         Residual      Time [s]
       1      -3.06376313       3.063763129       9.075579002             1
       2      -3.55603521       0.492272081       4.613743330             1
       3      -3.67847217       0.122436956       1.313174950             2
       4      -3.65717781      -0.021294355       0.534285691             2
       5      -3.65161347      -0.005564344       0.154349936             3
       6      -3.65402218       0.002408716       0.064874032             3
       7      -3.65451624       0.000494056       0.018571554             4
       8      -3.65433784      -0.000178396       0.006272568             4
       9      -3.65426998      -0.000067863       0.001452592             4
      10      -3.65428785       0.000017869       0.000362675             5
      11      -3.65428810       0.000000247       0.000068681             5
      12      -3.65428734      -0.000000755       0.000014213             6
      13      -3.65428741       0.000000069       0.000004290             6
      14      -3.65428745       0.000000035       0.000000950             7

    CHF Iterations converged


    Iter     Energy [mEh]          dE [mEh]         Residual      Time [s]
       1      -5.80803884       5.808038835      19.413235322             0
       2      -6.77373926       0.965700426      10.875126141             1
       3      -7.57257869       0.798839427       2.453787727             1
       4      -7.51455596      -0.058022728       0.980145204             2
       5      -7.50458926      -0.009966697       0.302772309             2
       6      -7.51123051       0.006641249       0.102563364             3
       7      -7.51164390       0.000413390       0.020632333             3
       8      -7.51125708      -0.000386819       0.003980714             4
       9      -7.51129557       0.000038490       0.000807709             4
      10      -7.51130262       0.000007041       0.000149572             4
      11      -7.51130023      -0.000002389       0.000027161             5
      12      -7.51130044       0.000000211       0.000005647             5
      13      -7.51130045       0.000000014       0.000001322             6
      14      -7.51130044      -0.000000008       0.000000357             6

    CHF Iterations converged

    Ind20,r (A<-B)      =    -0.003654287447 [Eh]
    Ind20,r (B<-A)      =    -0.007511300444 [Eh]
    Ind20,r             =    -0.011165587891 [Eh]
    Exch-Ind20,r (A<-B) =     0.002527985456 [Eh]
    Exch-Ind20,r (B<-A) =     0.003136408339 [Eh]
    Exch-Ind20,r        =     0.005664393794 [Eh]
    Disp20              =    -0.008495277300 [Eh]
    Disp20 (SS)         =    -0.004247638650 [Eh]
    Disp20 (OS)         =    -0.004247638650 [Eh]
    Exch-Disp20         =     0.001419066368 [Eh]
    Exch-Disp20 (SS)    =     0.000887419275 [Eh]
    Exch-Disp20 (OS)    =     0.000531647093 [Eh]

    SAPT Results 
  --------------------------------------------------------------------------------------------------------
    Electrostatics                -24.31152370 [mEh]     -15.25571144 [kcal/mol]     -63.82989668 [kJ/mol]
      Elst10,r                    -24.31152370 [mEh]     -15.25571144 [kcal/mol]     -63.82989668 [kJ/mol]

    Exchange                       19.99406000 [mEh]      12.54646207 [kcal/mol]      52.49439731 [kJ/mol]
      Exch10                       19.99406000 [mEh]      12.54646207 [kcal/mol]      52.49439731 [kJ/mol]
      Exch10(S^2)                  19.84301190 [mEh]      12.45167795 [kcal/mol]      52.09782056 [kJ/mol]

    Induction                      -9.09676253 [mEh]      -5.70830467 [kcal/mol]     -23.88354673 [kJ/mol]
      Ind20,r                     -11.16558789 [mEh]      -7.00651218 [kcal/mol]     -29.31524697 [kJ/mol]
      Exch-Ind20,r                  5.66439379 [mEh]       3.55446077 [kcal/mol]      14.87186386 [kJ/mol]
      delta HF,r (2)               -3.59556843 [mEh]      -2.25625326 [kcal/mol]      -9.44016362 [kJ/mol]

    Dispersion                     -7.07621093 [mEh]      -4.44038940 [kcal/mol]     -18.57858924 [kJ/mol]
      Disp20                       -8.49527730 [mEh]      -5.33086699 [kcal/mol]     -22.30434748 [kJ/mol]
      Exch-Disp20                   1.41906637 [mEh]       0.89047759 [kcal/mol]       3.72575824 [kJ/mol]
      Disp20 (SS)                  -4.24763865 [mEh]      -2.66543349 [kcal/mol]     -11.15217374 [kJ/mol]
      Disp20 (OS)                  -4.24763865 [mEh]      -2.66543349 [kcal/mol]     -11.15217374 [kJ/mol]
      Exch-Disp20 (SS)              0.88741927 [mEh]       0.55686400 [kcal/mol]       2.32991899 [kJ/mol]
      Exch-Disp20 (OS)              0.53164709 [mEh]       0.33361359 [kcal/mol]       1.39583925 [kJ/mol]

  Total HF                        -13.41422623 [mEh]      -8.41755404 [kcal/mol]     -35.21904610 [kJ/mol]
  Total SAPT0                     -20.49043716 [mEh]     -12.85794344 [kcal/mol]     -53.79763535 [kJ/mol]

  Special recipe for scaled SAPT0 (see Manual):
    Electrostatics sSAPT0         -24.31152370 [mEh]     -15.25571144 [kcal/mol]     -63.82989668 [kJ/mol]
    Exchange sSAPT0                19.99406000 [mEh]      12.54646207 [kcal/mol]      52.49439731 [kJ/mol]
    Induction sSAPT0               -8.96642061 [mEh]      -5.62651388 [kcal/mol]     -23.54133407 [kJ/mol]
    Dispersion sSAPT0              -7.04355716 [mEh]      -4.41989885 [kcal/mol]     -18.49285677 [kJ/mol]
  Total sSAPT0                    -20.32744147 [mEh]     -12.75566210 [kcal/mol]     -53.36969022 [kJ/mol]
  --------------------------------------------------------------------------------------------------------

*** tstop() called on r282 at Tue Aug 24 05:44:14 2021
Module time:
	user time   =      37.16 seconds =       0.62 minutes
	system time =       8.82 seconds =       0.15 minutes
	total time  =         47 seconds =       0.78 minutes
Total time:
	user time   =      87.65 seconds =       1.46 minutes
	system time =      10.21 seconds =       0.17 minutes
	total time  =         99 seconds =       1.65 minutes

    Psi4 stopped on: Tuesday, 24 August 2021 05:44AM
    Psi4 wall time for execution: 0:01:39.31

*** Psi4 exiting successfully. Buy a developer a beer!
