
    -----------------------------------------------------------------------
          Psi4: An Open-Source Ab Initio Electronic Structure Package
                               Psi4 1.3.2 release

                         Git: Rev {HEAD} ecbda83 


    R. M. Parrish, L. A. Burns, D. G. A. Smith, A. C. Simmonett,
    A. E. DePrince III, E. G. Hohenstein, U. Bozkaya, A. Yu. Sokolov,
    R. Di Remigio, R. M. Richard, J. F. Gonthier, A. M. James,
    H. R. McAlexander, A. Kumar, M. Saitow, X. Wang, B. P. Pritchard,
    P. Verma, H. F. Schaefer III, K. Patkowski, R. A. King, E. F. Valeev,
    F. A. Evangelista, J. M. Turney, T. D. Crawford, and C. D. Sherrill,
    J. Chem. Theory Comput. 13(7) pp 3185--3197 (2017).
    (doi: 10.1021/acs.jctc.7b00174)


                         Additional Contributions by
    P. Kraus, H. Kruse, M. H. Lechner, M. C. Schieber, R. A. Shaw,
    A. Alenaizan, R. Galvelis, Z. L. Glick, S. Lehtola, and J. P. Misiewicz

    -----------------------------------------------------------------------


    Psi4 started on: Friday, 10 September 2021 01:00PM

    Process ID: 56655
    Host:       r282
    PSIDATADIR: /home/r08543048/miniconda3/share/psi4
    Memory:     500.0 MiB
    Threads:    1
    
  ==> Input File <==

--------------------------------------------------------------------------
# Any line starting with the # character is a comment line
#! Sample  computation

memory 22 gb

molecule Dimer {
0 1
 C -1.707002   -0.158429   -0.000030
 O -1.003322   -1.152720   -0.000276
 O -1.223712    1.089893    0.000189
 H -0.236164    1.037416    0.000148
 C -3.207229   -0.174553   -0.000015
 H -3.563002   -1.198470   -0.000193
 H -3.575451    0.352952    0.877792
 
H -3.575473    0.353262   -0.877628
 
     

    
    
 --
0 1
 H 1.357431   -1.027395    0.000077
 C 3.493006   -0.399872   -0.000017
 C 2.022111   -0.152114    0.000078
 O 1.531394    0.969104    0.000065
 H 4.046017    0.534513   -0.000056
 H 3.753274   -0.996338    0.875698
 H 3.753171   -0.996348   -0.875757









 
 







units angstrom

no_reorient
symmetry c1
}

set globals{
  basis jun-cc-pvtz
}

energy('sapt0')


--------------------------------------------------------------------------

  Memory set to  20.489 GiB by Python driver.

  //>>>>>>>>>>>>>>>>>>>>>>>>>>>>>>>>>>>//
  //              Dimer HF             //
  //<<<<<<<<<<<<<<<<<<<<<<<<<<<<<<<<<<<//


*** tstart() called on r282
*** at Fri Sep 10 13:00:38 2021

   => Loading Basis Set <=

    Name: JUN-CC-PVTZ
    Role: ORBITAL
    Keyword: BASIS
    atoms 1, 5, 10-11   entry C          line   217 file /home/r08543048/miniconda3/share/psi4/basis/jun-cc-pvtz.gbs 
    atoms 2-3, 12       entry O          line   305 file /home/r08543048/miniconda3/share/psi4/basis/jun-cc-pvtz.gbs 
    atoms 4, 6-9, 13-15 entry H          line    36 file /home/r08543048/miniconda3/share/psi4/basis/jun-cc-pvtz.gbs 


         ---------------------------------------------------------
                                   SCF
               by Justin Turney, Rob Parrish, Andy Simmonett
                          and Daniel G. A. Smith
                              RHF Reference
                        1 Threads,  20980 MiB Core
         ---------------------------------------------------------

  ==> Geometry <==

    Molecular point group: c1
    Full point group: C1

    Geometry (in Angstrom), charge = 0, multiplicity = 1:

       Center              X                  Y                   Z               Mass       
    ------------   -----------------  -----------------  -----------------  -----------------
         C           -1.688347685459    -0.176888053404    -0.000029247897    12.000000000000
         O           -0.984667685459    -1.171179053404    -0.000275247897    15.994914619570
         O           -1.205057685459     1.071433946596     0.000189752103    15.994914619570
         H           -0.217509685459     1.018956946596     0.000148752103     1.007825032230
         C           -3.188574685459    -0.193012053404    -0.000014247897    12.000000000000
         H           -3.544347685459    -1.216929053404    -0.000192247897     1.007825032230
         H           -3.556796685459     0.334492946596     0.877792752103     1.007825032230
         H           -3.556818685459     0.334802946596    -0.877627247897     1.007825032230
         H            1.376085314541    -1.045854053404     0.000077752103     1.007825032230
         C            3.511660314541    -0.418331053404    -0.000016247897    12.000000000000
         C            2.040765314541    -0.170573053404     0.000078752103    12.000000000000
         O            1.550048314541     0.950644946596     0.000065752103    15.994914619570
         H            4.064671314541     0.516053946596    -0.000055247897     1.007825032230
         H            3.771928314541    -1.014797053404     0.875698752103     1.007825032230
         H            3.771825314541    -1.014807053404    -0.875756247897     1.007825032230

  Running in c1 symmetry.

  Rotational constants: A =      0.25057  B =      0.03242  C =      0.02901 [cm^-1]
  Rotational constants: A =   7511.80050  B =    972.00197  C =    869.81794 [MHz]
  Nuclear repulsion =  291.173715880278905

  Charge       = 0
  Multiplicity = 1
  Electrons    = 56
  Nalpha       = 28
  Nbeta        = 28

  ==> Algorithm <==

  SCF Algorithm Type is DF.
  DIIS enabled.
  MOM disabled.
  Fractional occupation disabled.
  Guess Type is SAD.
  Energy threshold   = 1.00e-08
  Density threshold  = 1.00e-08
  Integral threshold = 0.00e+00

  ==> Primary Basis <==

  Basis Set: JUN-CC-PVTZ
    Blend: JUN-CC-PVTZ
    Number of shells: 139
    Number of basis function: 385
    Number of Cartesian functions: 435
    Spherical Harmonics?: true
    Max angular momentum: 3

   => Loading Basis Set <=

    Name: (JUN-CC-PVTZ AUX)
    Role: JKFIT
    Keyword: DF_BASIS_SCF
    atoms 1, 5, 10-11   entry C          line   152 file /home/r08543048/miniconda3/share/psi4/basis/jun-cc-pvtz-jkfit.gbs 
    atoms 2-3, 12       entry O          line   272 file /home/r08543048/miniconda3/share/psi4/basis/jun-cc-pvtz-jkfit.gbs 
    atoms 4, 6-9, 13-15 entry H          line    70 file /home/r08543048/miniconda3/share/psi4/basis/jun-cc-pvtz-jkfit.gbs 

  ==> Pre-Iterations <==

   -------------------------------------------------------
    Irrep   Nso     Nmo     Nalpha   Nbeta   Ndocc  Nsocc
   -------------------------------------------------------
     A        385     385       0       0       0       0
   -------------------------------------------------------
    Total     385     385      28      28      28       0
   -------------------------------------------------------

  ==> Integral Setup <==

  ==> DiskDFJK: Density-Fitted J/K Matrices <==

    J tasked:                  Yes
    K tasked:                  Yes
    wK tasked:                  No
    OpenMP threads:              1
    Integrals threads:           1
    Memory [MiB]:            15735
    Algorithm:                Core
    Integral Cache:           SAVE
    Schwarz Cutoff:          1E-12
    Fitting Condition:       1E-10

   => Auxiliary Basis Set <=

  Basis Set: (JUN-CC-PVTZ AUX)
    Blend: JUN-CC-PVTZ-JKFIT
    Number of shells: 283
    Number of basis function: 905
    Number of Cartesian functions: 1092
    Spherical Harmonics?: true
    Max angular momentum: 4

  Minimum eigenvalue in the overlap matrix is 5.2147874336E-05.
  Using Symmetric Orthogonalization.

  SCF Guess: Superposition of Atomic Densities via on-the-fly atomic UHF.

  ==> Iterations <==

                           Total Energy        Delta E     RMS |[F,P]|

   @DF-RHF iter SAD:  -379.28313717234693   -3.79283e+02   0.00000e+00 
   @DF-RHF iter   1:  -380.63642597799037   -1.35329e+00   1.92850e-03 DIIS
   @DF-RHF iter   2:  -380.82342327709006   -1.86997e-01   1.15061e-03 DIIS
   @DF-RHF iter   3:  -380.88663564179183   -6.32124e-02   2.04403e-04 DIIS
   @DF-RHF iter   4:  -380.89058835653435   -3.95271e-03   8.73442e-05 DIIS
   @DF-RHF iter   5:  -380.89135635799153   -7.68001e-04   2.02411e-05 DIIS
   @DF-RHF iter   6:  -380.89141624458148   -5.98866e-05   1.02281e-05 DIIS
   @DF-RHF iter   7:  -380.89143015972513   -1.39151e-05   3.42860e-06 DIIS
   @DF-RHF iter   8:  -380.89143280365744   -2.64393e-06   1.04696e-06 DIIS
   @DF-RHF iter   9:  -380.89143308528219   -2.81625e-07   2.29686e-07 DIIS
   @DF-RHF iter  10:  -380.89143309626439   -1.09822e-08   7.96932e-08 DIIS
   @DF-RHF iter  11:  -380.89143309710772   -8.43329e-10   2.59233e-08 DIIS
   @DF-RHF iter  12:  -380.89143309718048   -7.27596e-11   1.15932e-08 DIIS
   @DF-RHF iter  13:  -380.89143309719003   -9.54969e-12   2.50886e-09 DIIS
  Energy and wave function converged.


  ==> Post-Iterations <==

    Orbital Energies [Eh]
    ---------------------

    Doubly Occupied:                                                      

       1A    -20.584179     2A    -20.575492     3A    -20.535493  
       4A    -11.375945     5A    -11.347663     6A    -11.247890  
       7A    -11.233054     8A     -1.443987     9A     -1.405467  
      10A     -1.340716    11A     -1.033752    12A     -1.015113  
      13A     -0.817019    14A     -0.806603    15A     -0.702288  
      16A     -0.684568    17A     -0.662117    18A     -0.636130  
      19A     -0.634733    20A     -0.613885    21A     -0.575001  
      22A     -0.567544    23A     -0.550369    24A     -0.546275  
      25A     -0.518530    26A     -0.465309    27A     -0.447247  
      28A     -0.439569  

    Virtual:                                                              

      29A      0.042186    30A      0.051342    31A      0.070757  
      32A      0.071230    33A      0.078298    34A      0.082210  
      35A      0.086082    36A      0.099189    37A      0.100395  
      38A      0.108640    39A      0.123869    40A      0.145420  
      41A      0.149612    42A      0.156810    43A      0.167037  
      44A      0.183377    45A      0.183486    46A      0.186170  
      47A      0.193020    48A      0.204317    49A      0.205333  
      50A      0.210745    51A      0.237266    52A      0.250405  
      53A      0.252313    54A      0.260115    55A      0.267901  
      56A      0.277000    57A      0.280526    58A      0.282398  
      59A      0.292610    60A      0.295903    61A      0.303063  
      62A      0.310283    63A      0.324316    64A      0.330094  
      65A      0.331266    66A      0.349802    67A      0.354784  
      68A      0.360929    69A      0.376839    70A      0.389529  
      71A      0.405964    72A      0.407258    73A      0.412714  
      74A      0.420516    75A      0.427178    76A      0.447110  
      77A      0.458166    78A      0.464603    79A      0.470123  
      80A      0.494817    81A      0.514972    82A      0.518192  
      83A      0.524444    84A      0.538979    85A      0.552833  
      86A      0.563127    87A      0.598537    88A      0.617698  
      89A      0.621300    90A      0.633941    91A      0.638327  
      92A      0.646150    93A      0.662600    94A      0.668082  
      95A      0.668315    96A      0.687343    97A      0.688685  
      98A      0.707834    99A      0.712167   100A      0.717776  
     101A      0.735521   102A      0.736190   103A      0.771690  
     104A      0.784705   105A      0.796563   106A      0.800261  
     107A      0.808356   108A      0.814708   109A      0.824590  
     110A      0.831788   111A      0.845832   112A      0.849512  
     113A      0.855668   114A      0.855993   115A      0.888784  
     116A      0.891574   117A      0.911001   118A      0.927773  
     119A      0.938967   120A      0.952212   121A      0.959124  
     122A      0.965972   123A      0.997185   124A      1.004262  
     125A      1.025808   126A      1.032638   127A      1.041317  
     128A      1.071500   129A      1.077482   130A      1.079420  
     131A      1.094273   132A      1.113407   133A      1.149248  
     134A      1.178817   135A      1.185398   136A      1.214735  
     137A      1.222294   138A      1.240031   139A      1.250030  
     140A      1.262584   141A      1.278189   142A      1.279940  
     143A      1.303868   144A      1.318101   145A      1.327819  
     146A      1.330938   147A      1.354724   148A      1.361240  
     149A      1.363707   150A      1.385365   151A      1.393372  
     152A      1.404398   153A      1.414770   154A      1.421642  
     155A      1.450669   156A      1.460648   157A      1.462413  
     158A      1.488586   159A      1.506105   160A      1.540935  
     161A      1.547635   162A      1.553468   163A      1.561769  
     164A      1.577266   165A      1.581890   166A      1.587435  
     167A      1.596871   168A      1.638564   169A      1.654830  
     170A      1.695140   171A      1.705749   172A      1.731534  
     173A      1.759846   174A      1.776128   175A      1.780819  
     176A      1.829306   177A      1.840690   178A      1.862565  
     179A      1.865607   180A      1.940793   181A      1.956897  
     182A      2.068087   183A      2.101554   184A      2.215021  
     185A      2.226588   186A      2.241003   187A      2.274614  
     188A      2.290658   189A      2.301210   190A      2.357223  
     191A      2.384544   192A      2.434006   193A      2.453767  
     194A      2.459956   195A      2.536720   196A      2.599127  
     197A      2.599855   198A      2.639614   199A      2.656173  
     200A      2.671712   201A      2.692434   202A      2.745357  
     203A      2.752530   204A      2.763651   205A      2.779800  
     206A      2.806141   207A      2.842153   208A      2.908928  
     209A      2.917315   210A      2.940525   211A      2.967838  
     212A      3.006900   213A      3.014997   214A      3.055893  
     215A      3.064327   216A      3.085603   217A      3.092842  
     218A      3.106863   219A      3.152468   220A      3.170343  
     221A      3.179284   222A      3.205958   223A      3.208341  
     224A      3.217178   225A      3.267456   226A      3.267604  
     227A      3.309651   228A      3.320465   229A      3.352666  
     230A      3.354906   231A      3.380364   232A      3.382126  
     233A      3.398334   234A      3.424394   235A      3.444131  
     236A      3.444753   237A      3.450242   238A      3.477716  
     239A      3.486947   240A      3.513660   241A      3.523168  
     242A      3.557516   243A      3.563030   244A      3.598616  
     245A      3.620863   246A      3.623628   247A      3.638183  
     248A      3.648587   249A      3.655960   250A      3.681733  
     251A      3.707715   252A      3.721748   253A      3.744968  
     254A      3.754866   255A      3.768796   256A      3.771026  
     257A      3.781316   258A      3.783034   259A      3.789896  
     260A      3.817765   261A      3.837286   262A      3.856472  
     263A      3.862134   264A      3.910897   265A      3.934309  
     266A      3.962279   267A      4.000910   268A      4.034931  
     269A      4.066066   270A      4.102424   271A      4.140044  
     272A      4.159665   273A      4.164366   274A      4.186802  
     275A      4.197289   276A      4.213479   277A      4.257294  
     278A      4.278071   279A      4.291190   280A      4.304452  
     281A      4.318902   282A      4.328950   283A      4.344718  
     284A      4.350213   285A      4.368649   286A      4.378190  
     287A      4.406536   288A      4.418212   289A      4.465595  
     290A      4.468640   291A      4.482284   292A      4.519621  
     293A      4.539139   294A      4.594475   295A      4.608573  
     296A      4.615872   297A      4.656326   298A      4.657226  
     299A      4.691606   300A      4.736189   301A      4.755190  
     302A      4.755734   303A      4.782502   304A      4.784437  
     305A      4.808889   306A      4.826824   307A      4.876854  
     308A      4.978388   309A      5.026571   310A      5.029154  
     311A      5.061279   312A      5.119185   313A      5.141719  
     314A      5.150798   315A      5.159882   316A      5.226751  
     317A      5.298744   318A      5.318339   319A      5.356353  
     320A      5.393634   321A      5.446500   322A      5.449717  
     323A      5.501392   324A      5.519905   325A      5.534925  
     326A      5.573381   327A      5.580758   328A      5.586515  
     329A      5.646761   330A      5.652283   331A      5.659641  
     332A      5.688369   333A      5.689126   334A      5.705582  
     335A      5.716423   336A      5.745025   337A      5.757145  
     338A      5.840083   339A      5.874589   340A      5.897083  
     341A      5.901161   342A      5.941817   343A      6.070835  
     344A      6.083372   345A      6.108424   346A      6.122777  
     347A      6.295042   348A      6.363460   349A      6.404440  
     350A      6.416831   351A      6.424586   352A      6.446977  
     353A      6.527191   354A      6.742969   355A      6.746676  
     356A      6.766461   357A      6.914300   358A      6.957837  
     359A      6.972138   360A      7.097334   361A      7.153494  
     362A      7.224362   363A      7.248549   364A      7.277921  
     365A      7.296169   366A      7.316983   367A      7.376091  
     368A      7.382668   369A      7.414734   370A      7.440036  
     371A      7.465822   372A      7.669216   373A      7.693275  
     374A      7.731787   375A      7.764086   376A      7.888113  
     377A      7.997152   378A      8.284273   379A     12.112041  
     380A     12.397176   381A     13.775779   382A     14.174837  
     383A     14.345794   384A     14.537909   385A     14.711037  

    Final Occupation by Irrep:
              A 
    DOCC [    28 ]

  @DF-RHF Final Energy:  -380.89143309719003

   => Energetics <=

    Nuclear Repulsion Energy =            291.1737158802789054
    One-Electron Energy =               -1098.5184237552953164
    Two-Electron Energy =                 426.4532747778263797
    Total Energy =                       -380.8914330971900313

Computation Completed


Properties will be evaluated at   0.000000,   0.000000,   0.000000 [a0]

Properties computed using the SCF density matrix

  Nuclear Dipole Moment: [e a0]
     X:     1.9741      Y:    -1.9534      Z:     0.0001

  Electronic Dipole Moment: [e a0]
     X:    -1.3994      Y:     1.4711      Z:     0.0001

  Dipole Moment: [e a0]
     X:     0.5746      Y:    -0.4824      Z:     0.0001     Total:     0.7503

  Dipole Moment: [D]
     X:     1.4606      Y:    -1.2260      Z:     0.0004     Total:     1.9070


*** tstop() called on r282 at Fri Sep 10 13:01:05 2021
Module time:
	user time   =      26.15 seconds =       0.44 minutes
	system time =       0.70 seconds =       0.01 minutes
	total time  =         27 seconds =       0.45 minutes
Total time:
	user time   =      26.15 seconds =       0.44 minutes
	system time =       0.70 seconds =       0.01 minutes
	total time  =         27 seconds =       0.45 minutes

  //>>>>>>>>>>>>>>>>>>>>>>>>>>>>>>>>>>>//
  //            Monomer A HF           //
  //<<<<<<<<<<<<<<<<<<<<<<<<<<<<<<<<<<<//


*** tstart() called on r282
*** at Fri Sep 10 13:01:05 2021

   => Loading Basis Set <=

    Name: JUN-CC-PVTZ
    Role: ORBITAL
    Keyword: BASIS
    atoms 1, 5, 10-11   entry C          line   217 file /home/r08543048/miniconda3/share/psi4/basis/jun-cc-pvtz.gbs 
    atoms 2-3, 12       entry O          line   305 file /home/r08543048/miniconda3/share/psi4/basis/jun-cc-pvtz.gbs 
    atoms 4, 6-9, 13-15 entry H          line    36 file /home/r08543048/miniconda3/share/psi4/basis/jun-cc-pvtz.gbs 


         ---------------------------------------------------------
                                   SCF
               by Justin Turney, Rob Parrish, Andy Simmonett
                          and Daniel G. A. Smith
                              RHF Reference
                        1 Threads,  20980 MiB Core
         ---------------------------------------------------------

  ==> Geometry <==

    Molecular point group: c1
    Full point group: C1

    Geometry (in Angstrom), charge = 0, multiplicity = 1:

       Center              X                  Y                   Z               Mass       
    ------------   -----------------  -----------------  -----------------  -----------------
         C           -1.688347685459    -0.176888053404    -0.000029247897    12.000000000000
         O           -0.984667685459    -1.171179053404    -0.000275247897    15.994914619570
         O           -1.205057685459     1.071433946596     0.000189752103    15.994914619570
         H           -0.217509685459     1.018956946596     0.000148752103     1.007825032230
         C           -3.188574685459    -0.193012053404    -0.000014247897    12.000000000000
         H           -3.544347685459    -1.216929053404    -0.000192247897     1.007825032230
         H           -3.556796685459     0.334492946596     0.877792752103     1.007825032230
         H           -3.556818685459     0.334802946596    -0.877627247897     1.007825032230
      Gh(H)           1.376085314541    -1.045854053404     0.000077752103     1.007825032230
      Gh(C)           3.511660314541    -0.418331053404    -0.000016247897    12.000000000000
      Gh(C)           2.040765314541    -0.170573053404     0.000078752103    12.000000000000
      Gh(O)           1.550048314541     0.950644946596     0.000065752103    15.994914619570
      Gh(H)           4.064671314541     0.516053946596    -0.000055247897     1.007825032230
      Gh(H)           3.771928314541    -1.014797053404     0.875698752103     1.007825032230
      Gh(H)           3.771825314541    -1.014807053404    -0.875756247897     1.007825032230

  Running in c1 symmetry.

  Rotational constants: A =      0.25057  B =      0.03242  C =      0.02901 [cm^-1]
  Rotational constants: A =   7511.80050  B =    972.00197  C =    869.81794 [MHz]
  Nuclear repulsion =  121.135504593385875

  Charge       = 0
  Multiplicity = 1
  Electrons    = 32
  Nalpha       = 16
  Nbeta        = 16

  ==> Algorithm <==

  SCF Algorithm Type is DF.
  DIIS enabled.
  MOM disabled.
  Fractional occupation disabled.
  Guess Type is SAD.
  Energy threshold   = 1.00e-08
  Density threshold  = 1.00e-08
  Integral threshold = 0.00e+00

  ==> Primary Basis <==

  Basis Set: JUN-CC-PVTZ
    Blend: JUN-CC-PVTZ
    Number of shells: 139
    Number of basis function: 385
    Number of Cartesian functions: 435
    Spherical Harmonics?: true
    Max angular momentum: 3

   => Loading Basis Set <=

    Name: (JUN-CC-PVTZ AUX)
    Role: JKFIT
    Keyword: DF_BASIS_SCF
    atoms 1, 5, 10-11   entry C          line   152 file /home/r08543048/miniconda3/share/psi4/basis/jun-cc-pvtz-jkfit.gbs 
    atoms 2-3, 12       entry O          line   272 file /home/r08543048/miniconda3/share/psi4/basis/jun-cc-pvtz-jkfit.gbs 
    atoms 4, 6-9, 13-15 entry H          line    70 file /home/r08543048/miniconda3/share/psi4/basis/jun-cc-pvtz-jkfit.gbs 

  ==> Pre-Iterations <==

   -------------------------------------------------------
    Irrep   Nso     Nmo     Nalpha   Nbeta   Ndocc  Nsocc
   -------------------------------------------------------
     A        385     385       0       0       0       0
   -------------------------------------------------------
    Total     385     385      16      16      16       0
   -------------------------------------------------------

  ==> Integral Setup <==

  ==> DiskDFJK: Density-Fitted J/K Matrices <==

    J tasked:                  Yes
    K tasked:                  Yes
    wK tasked:                  No
    OpenMP threads:              1
    Integrals threads:           1
    Memory [MiB]:            15735
    Algorithm:                Core
    Integral Cache:           LOAD
    Schwarz Cutoff:          1E-12
    Fitting Condition:       1E-10

   => Auxiliary Basis Set <=

  Basis Set: (JUN-CC-PVTZ AUX)
    Blend: JUN-CC-PVTZ-JKFIT
    Number of shells: 283
    Number of basis function: 905
    Number of Cartesian functions: 1092
    Spherical Harmonics?: true
    Max angular momentum: 4

  Minimum eigenvalue in the overlap matrix is 5.2147874336E-05.
  Using Symmetric Orthogonalization.

  SCF Guess: Superposition of Atomic Densities via on-the-fly atomic UHF.

  ==> Iterations <==

                           Total Energy        Delta E     RMS |[F,P]|

   @DF-RHF iter SAD:  -227.00230485858404   -2.27002e+02   0.00000e+00 
   @DF-RHF iter   1:  -227.74373932016448   -7.41434e-01   1.55614e-03 DIIS
   @DF-RHF iter   2:  -227.85746341890584   -1.13724e-01   9.58980e-04 DIIS
   @DF-RHF iter   3:  -227.90033598448633   -4.28726e-02   1.57331e-04 DIIS
   @DF-RHF iter   4:  -227.90257824438225   -2.24226e-03   7.15445e-05 DIIS
   @DF-RHF iter   5:  -227.90307133140652   -4.93087e-04   1.74320e-05 DIIS
   @DF-RHF iter   6:  -227.90311312169771   -4.17903e-05   8.30779e-06 DIIS
   @DF-RHF iter   7:  -227.90312359414122   -1.04724e-05   2.78996e-06 DIIS
   @DF-RHF iter   8:  -227.90312538739389   -1.79325e-06   7.55519e-07 DIIS
   @DF-RHF iter   9:  -227.90312553731542   -1.49922e-07   1.58455e-07 DIIS
   @DF-RHF iter  10:  -227.90312554281672   -5.50131e-09   3.99288e-08 DIIS
   @DF-RHF iter  11:  -227.90312554304614   -2.29420e-10   1.06570e-08 DIIS
   @DF-RHF iter  12:  -227.90312554306243   -1.62856e-11   3.32896e-09 DIIS
  Energy and wave function converged.


  ==> Post-Iterations <==

    Orbital Energies [Eh]
    ---------------------

    Doubly Occupied:                                                      

       1A    -20.621498     2A    -20.548850     3A    -11.390704  
       4A    -11.245205     5A     -1.467498     6A     -1.358159  
       7A     -1.028758     8A     -0.828924     9A     -0.705487  
      10A     -0.681610    11A     -0.653848    12A     -0.582026  
      13A     -0.574112    14A     -0.564004    15A     -0.481283  
      16A     -0.454585  

    Virtual:                                                              

      17A      0.034813    18A      0.044273    19A      0.058189  
      20A      0.068007    21A      0.074148    22A      0.079973  
      23A      0.080580    24A      0.096139    25A      0.104967  
      26A      0.108130    27A      0.137733    28A      0.141326  
      29A      0.142878    30A      0.147190    31A      0.158343  
      32A      0.166046    33A      0.172548    34A      0.176590  
      35A      0.187319    36A      0.198712    37A      0.202161  
      38A      0.205381    39A      0.225731    40A      0.241340  
      41A      0.245788    42A      0.253836    43A      0.258890  
      44A      0.265606    45A      0.279197    46A      0.282443  
      47A      0.286319    48A      0.302853    49A      0.318515  
      50A      0.321851    51A      0.329529    52A      0.338411  
      53A      0.343153    54A      0.348443    55A      0.376530  
      56A      0.377557    57A      0.382825    58A      0.384403  
      59A      0.392400    60A      0.404590    61A      0.419666  
      62A      0.428828    63A      0.435930    64A      0.445328  
      65A      0.458340    66A      0.462430    67A      0.480416  
      68A      0.499988    69A      0.503114    70A      0.510813  
      71A      0.511487    72A      0.519018    73A      0.542384  
      74A      0.553687    75A      0.572075    76A      0.580764  
      77A      0.592553    78A      0.615055    79A      0.618437  
      80A      0.637250    81A      0.642946    82A      0.659768  
      83A      0.665137    84A      0.691848    85A      0.694448  
      86A      0.702276    87A      0.712119    88A      0.717204  
      89A      0.757779    90A      0.762552    91A      0.778919  
      92A      0.789856    93A      0.812878    94A      0.816484  
      95A      0.821165    96A      0.835027    97A      0.840014  
      98A      0.844381    99A      0.875386   100A      0.885072  
     101A      0.910569   102A      0.925077   103A      0.941181  
     104A      0.948653   105A      0.970525   106A      0.995837  
     107A      0.998234   108A      1.002581   109A      1.013517  
     110A      1.030844   111A      1.046012   112A      1.057120  
     113A      1.066138   114A      1.068171   115A      1.073115  
     116A      1.092683   117A      1.128269   118A      1.130299  
     119A      1.157943   120A      1.187207   121A      1.195240  
     122A      1.206433   123A      1.212164   124A      1.227850  
     125A      1.239141   126A      1.256747   127A      1.259962  
     128A      1.267230   129A      1.269406   130A      1.274787  
     131A      1.296606   132A      1.302847   133A      1.317833  
     134A      1.335147   135A      1.350207   136A      1.373405  
     137A      1.388340   138A      1.417521   139A      1.417527  
     140A      1.427161   141A      1.453513   142A      1.458144  
     143A      1.475665   144A      1.484652   145A      1.488042  
     146A      1.531959   147A      1.549272   148A      1.551604  
     149A      1.564301   150A      1.576552   151A      1.589968  
     152A      1.590185   153A      1.614065   154A      1.628821  
     155A      1.629613   156A      1.668559   157A      1.693494  
     158A      1.723854   159A      1.737627   160A      1.764946  
     161A      1.799913   162A      1.834600   163A      1.859287  
     164A      1.863569   165A      1.914043   166A      1.937872  
     167A      1.942732   168A      2.012272   169A      2.027964  
     170A      2.063621   171A      2.093997   172A      2.159240  
     173A      2.205747   174A      2.213077   175A      2.254868  
     176A      2.273687   177A      2.295285   178A      2.344135  
     179A      2.355878   180A      2.414730   181A      2.426493  
     182A      2.438544   183A      2.453974   184A      2.489997  
     185A      2.516075   186A      2.533423   187A      2.626452  
     188A      2.643411   189A      2.678077   190A      2.709272  
     191A      2.760668   192A      2.777441   193A      2.782886  
     194A      2.829552   195A      2.844098   196A      2.901530  
     197A      2.921773   198A      2.953708   199A      2.959008  
     200A      2.995870   201A      3.037897   202A      3.095571  
     203A      3.112656   204A      3.156978   205A      3.192388  
     206A      3.196985   207A      3.255401   208A      3.277607  
     209A      3.283615   210A      3.341813   211A      3.360345  
     212A      3.418225   213A      3.425124   214A      3.434911  
     215A      3.454380   216A      3.500333   217A      3.523511  
     218A      3.524617   219A      3.544697   220A      3.559501  
     221A      3.573476   222A      3.608680   223A      3.609253  
     224A      3.624305   225A      3.635380   226A      3.649416  
     227A      3.688571   228A      3.698784   229A      3.752225  
     230A      3.756102   231A      3.767992   232A      3.776166  
     233A      3.796437   234A      3.811393   235A      3.822246  
     236A      3.823315   237A      3.839176   238A      3.856947  
     239A      3.887587   240A      3.913139   241A      3.926237  
     242A      3.984060   243A      3.998445   244A      4.019504  
     245A      4.048648   246A      4.069445   247A      4.134366  
     248A      4.149930   249A      4.162208   250A      4.182628  
     251A      4.193266   252A      4.200752   253A      4.261203  
     254A      4.285559   255A      4.303398   256A      4.308749  
     257A      4.311077   258A      4.329842   259A      4.339751  
     260A      4.380927   261A      4.392256   262A      4.401744  
     263A      4.426945   264A      4.453483   265A      4.498395  
     266A      4.505593   267A      4.514094   268A      4.533932  
     269A      4.556853   270A      4.559341   271A      4.591466  
     272A      4.605915   273A      4.639360   274A      4.653513  
     275A      4.689785   276A      4.717837   277A      4.730666  
     278A      4.734259   279A      4.739877   280A      4.746724  
     281A      4.768573   282A      4.778041   283A      4.779824  
     284A      4.802884   285A      4.806643   286A      4.822661  
     287A      4.845890   288A      4.872604   289A      4.895159  
     290A      4.907195   291A      4.910233   292A      4.952033  
     293A      5.003531   294A      5.034761   295A      5.055355  
     296A      5.091290   297A      5.105965   298A      5.148509  
     299A      5.167009   300A      5.229401   301A      5.276124  
     302A      5.305091   303A      5.367161   304A      5.427965  
     305A      5.437843   306A      5.507630   307A      5.562186  
     308A      5.567308   309A      5.617958   310A      5.637684  
     311A      5.647028   312A      5.651423   313A      5.678831  
     314A      5.679070   315A      5.733233   316A      5.757907  
     317A      5.828131   318A      5.876031   319A      5.886434  
     320A      5.906774   321A      6.029807   322A      6.049816  
     323A      6.101237   324A      6.103757   325A      6.117741  
     326A      6.176018   327A      6.260230   328A      6.261436  
     329A      6.282372   330A      6.331955   331A      6.412101  
     332A      6.434305   333A      6.439490   334A      6.502238  
     335A      6.538695   336A      6.619377   337A      6.689297  
     338A      6.739886   339A      6.756047   340A      6.790170  
     341A      6.925297   342A      6.942802   343A      6.954599  
     344A      6.998839   345A      7.082731   346A      7.164783  
     347A      7.252318   348A      7.280645   349A      7.319862  
     350A      7.367783   351A      7.370526   352A      7.400664  
     353A      7.444432   354A      7.492369   355A      7.525803  
     356A      7.603674   357A      7.661125   358A      7.751935  
     359A      7.774780   360A      7.844205   361A      7.853618  
     362A      7.862455   363A      7.963802   364A      8.105591  
     365A      8.232935   366A      8.315498   367A      8.486623  
     368A      9.344219   369A      9.394109   370A      9.756089  
     371A      9.845994   372A      9.862113   373A      9.913689  
     374A     10.222661   375A     10.952721   376A     11.533980  
     377A     11.884928   378A     12.103939   379A     13.646079  
     380A     13.831943   381A     14.337608   382A     14.698774  
     383A     43.405060   384A     45.739616   385A     60.446016  

    Final Occupation by Irrep:
              A 
    DOCC [    16 ]

  @DF-RHF Final Energy:  -227.90312554306243

   => Energetics <=

    Nuclear Repulsion Energy =            121.1355045933858747
    One-Electron Energy =                -551.7041590618725877
    Two-Electron Energy =                 202.6655289254242973
    Total Energy =                       -227.9031255430624299

Computation Completed


Properties will be evaluated at   0.000000,   0.000000,   0.000000 [a0]

Properties computed using the SCF density matrix

  Nuclear Dipole Moment: [e a0]
     X:  -108.9518      Y:    -4.8113      Z:    -0.0016

  Electronic Dipole Moment: [e a0]
     X:   108.4978      Y:     5.5187      Z:     0.0017

  Dipole Moment: [e a0]
     X:    -0.4540      Y:     0.7074      Z:     0.0002     Total:     0.8405

  Dipole Moment: [D]
     X:    -1.1539      Y:     1.7980      Z:     0.0004     Total:     2.1364


*** tstop() called on r282 at Fri Sep 10 13:01:19 2021
Module time:
	user time   =      13.77 seconds =       0.23 minutes
	system time =       0.32 seconds =       0.01 minutes
	total time  =         14 seconds =       0.23 minutes
Total time:
	user time   =      39.92 seconds =       0.67 minutes
	system time =       1.02 seconds =       0.02 minutes
	total time  =         41 seconds =       0.68 minutes

  //>>>>>>>>>>>>>>>>>>>>>>>>>>>>>>>>>>>//
  //            Monomer B HF           //
  //<<<<<<<<<<<<<<<<<<<<<<<<<<<<<<<<<<<//


*** tstart() called on r282
*** at Fri Sep 10 13:01:19 2021

   => Loading Basis Set <=

    Name: JUN-CC-PVTZ
    Role: ORBITAL
    Keyword: BASIS
    atoms 1, 5, 10-11   entry C          line   217 file /home/r08543048/miniconda3/share/psi4/basis/jun-cc-pvtz.gbs 
    atoms 2-3, 12       entry O          line   305 file /home/r08543048/miniconda3/share/psi4/basis/jun-cc-pvtz.gbs 
    atoms 4, 6-9, 13-15 entry H          line    36 file /home/r08543048/miniconda3/share/psi4/basis/jun-cc-pvtz.gbs 


         ---------------------------------------------------------
                                   SCF
               by Justin Turney, Rob Parrish, Andy Simmonett
                          and Daniel G. A. Smith
                              RHF Reference
                        1 Threads,  20980 MiB Core
         ---------------------------------------------------------

  ==> Geometry <==

    Molecular point group: c1
    Full point group: C1

    Geometry (in Angstrom), charge = 0, multiplicity = 1:

       Center              X                  Y                   Z               Mass       
    ------------   -----------------  -----------------  -----------------  -----------------
      Gh(C)          -1.688347685459    -0.176888053404    -0.000029247897    12.000000000000
      Gh(O)          -0.984667685459    -1.171179053404    -0.000275247897    15.994914619570
      Gh(O)          -1.205057685459     1.071433946596     0.000189752103    15.994914619570
      Gh(H)          -0.217509685459     1.018956946596     0.000148752103     1.007825032230
      Gh(C)          -3.188574685459    -0.193012053404    -0.000014247897    12.000000000000
      Gh(H)          -3.544347685459    -1.216929053404    -0.000192247897     1.007825032230
      Gh(H)          -3.556796685459     0.334492946596     0.877792752103     1.007825032230
      Gh(H)          -3.556818685459     0.334802946596    -0.877627247897     1.007825032230
         H            1.376085314541    -1.045854053404     0.000077752103     1.007825032230
         C            3.511660314541    -0.418331053404    -0.000016247897    12.000000000000
         C            2.040765314541    -0.170573053404     0.000078752103    12.000000000000
         O            1.550048314541     0.950644946596     0.000065752103    15.994914619570
         H            4.064671314541     0.516053946596    -0.000055247897     1.007825032230
         H            3.771928314541    -1.014797053404     0.875698752103     1.007825032230
         H            3.771825314541    -1.014807053404    -0.875756247897     1.007825032230

  Running in c1 symmetry.

  Rotational constants: A =      0.25057  B =      0.03242  C =      0.02901 [cm^-1]
  Rotational constants: A =   7511.80050  B =    972.00197  C =    869.81794 [MHz]
  Nuclear repulsion =   69.678765970093167

  Charge       = 0
  Multiplicity = 1
  Electrons    = 24
  Nalpha       = 12
  Nbeta        = 12

  ==> Algorithm <==

  SCF Algorithm Type is DF.
  DIIS enabled.
  MOM disabled.
  Fractional occupation disabled.
  Guess Type is SAD.
  Energy threshold   = 1.00e-08
  Density threshold  = 1.00e-08
  Integral threshold = 0.00e+00

  ==> Primary Basis <==

  Basis Set: JUN-CC-PVTZ
    Blend: JUN-CC-PVTZ
    Number of shells: 139
    Number of basis function: 385
    Number of Cartesian functions: 435
    Spherical Harmonics?: true
    Max angular momentum: 3

   => Loading Basis Set <=

    Name: (JUN-CC-PVTZ AUX)
    Role: JKFIT
    Keyword: DF_BASIS_SCF
    atoms 1, 5, 10-11   entry C          line   152 file /home/r08543048/miniconda3/share/psi4/basis/jun-cc-pvtz-jkfit.gbs 
    atoms 2-3, 12       entry O          line   272 file /home/r08543048/miniconda3/share/psi4/basis/jun-cc-pvtz-jkfit.gbs 
    atoms 4, 6-9, 13-15 entry H          line    70 file /home/r08543048/miniconda3/share/psi4/basis/jun-cc-pvtz-jkfit.gbs 

  ==> Pre-Iterations <==

   -------------------------------------------------------
    Irrep   Nso     Nmo     Nalpha   Nbeta   Ndocc  Nsocc
   -------------------------------------------------------
     A        385     385       0       0       0       0
   -------------------------------------------------------
    Total     385     385      12      12      12       0
   -------------------------------------------------------

  ==> Integral Setup <==

  ==> DiskDFJK: Density-Fitted J/K Matrices <==

    J tasked:                  Yes
    K tasked:                  Yes
    wK tasked:                  No
    OpenMP threads:              1
    Integrals threads:           1
    Memory [MiB]:            15735
    Algorithm:                Core
    Integral Cache:           LOAD
    Schwarz Cutoff:          1E-12
    Fitting Condition:       1E-10

   => Auxiliary Basis Set <=

  Basis Set: (JUN-CC-PVTZ AUX)
    Blend: JUN-CC-PVTZ-JKFIT
    Number of shells: 283
    Number of basis function: 905
    Number of Cartesian functions: 1092
    Spherical Harmonics?: true
    Max angular momentum: 4

  Minimum eigenvalue in the overlap matrix is 5.2147874336E-05.
  Using Symmetric Orthogonalization.

  SCF Guess: Superposition of Atomic Densities via on-the-fly atomic UHF.

  ==> Iterations <==

                           Total Energy        Delta E     RMS |[F,P]|

   @DF-RHF iter SAD:  -152.11506859560939   -1.52115e+02   0.00000e+00 
   @DF-RHF iter   1:  -152.85356483844456   -7.38496e-01   1.27577e-03 DIIS
   @DF-RHF iter   2:  -152.93382984621459   -8.02650e-02   8.81574e-04 DIIS
   @DF-RHF iter   3:  -152.97230931646033   -3.84795e-02   1.47245e-04 DIIS
   @DF-RHF iter   4:  -152.97446013777511   -2.15082e-03   5.68716e-05 DIIS
   @DF-RHF iter   5:  -152.97486198511857   -4.01847e-04   1.13652e-05 DIIS
   @DF-RHF iter   6:  -152.97489183446166   -2.98493e-05   4.59731e-06 DIIS
   @DF-RHF iter   7:  -152.97489598214170   -4.14768e-06   1.78743e-06 DIIS
   @DF-RHF iter   8:  -152.97489665241110   -6.70269e-07   3.99825e-07 DIIS
   @DF-RHF iter   9:  -152.97489668780491   -3.53938e-08   1.10172e-07 DIIS
   @DF-RHF iter  10:  -152.97489669000964   -2.20473e-09   2.31472e-08 DIIS
   @DF-RHF iter  11:  -152.97489669009997   -9.03242e-11   4.24678e-09 DIIS
  Energy and wave function converged.


  ==> Post-Iterations <==

    Orbital Energies [Eh]
    ---------------------

    Doubly Occupied:                                                      

       1A    -20.558958     2A    -11.337347     3A    -11.242685  
       4A     -1.384518     5A     -1.026105     6A     -0.805796  
       7A     -0.674578     8A     -0.622055     9A     -0.606518  
      10A     -0.563555    11A     -0.498729    12A     -0.429611  

    Virtual:                                                              

      13A      0.038107    14A      0.042714    15A      0.057533  
      16A      0.066997    17A      0.072486    18A      0.078756  
      19A      0.079538    20A      0.095850    21A      0.100871  
      22A      0.104730    23A      0.127833    24A      0.136882  
      25A      0.142792    26A      0.153382    27A      0.160353  
      28A      0.162652    29A      0.176773    30A      0.178357  
      31A      0.190995    32A      0.197428    33A      0.202481  
      34A      0.213490    35A      0.217934    36A      0.218477  
      37A      0.234756    38A      0.244812    39A      0.255556  
      40A      0.265292    41A      0.276393    42A      0.284341  
      43A      0.288035    44A      0.293386    45A      0.308923  
      46A      0.325850    47A      0.327719    48A      0.342795  
      49A      0.356770    50A      0.359525    51A      0.368948  
      52A      0.380771    53A      0.381294    54A      0.387570  
      55A      0.396330    56A      0.405397    57A      0.427374  
      58A      0.427614    59A      0.438133    60A      0.451839  
      61A      0.466424    62A      0.467184    63A      0.473097  
      64A      0.483876    65A      0.495717    66A      0.507371  
      67A      0.512554    68A      0.523691    69A      0.525452  
      70A      0.554259    71A      0.570598    72A      0.586365  
      73A      0.596984    74A      0.618942    75A      0.639777  
      76A      0.641099    77A      0.672148    78A      0.678106  
      79A      0.683783    80A      0.699580    81A      0.712956  
      82A      0.727306    83A      0.735080    84A      0.752292  
      85A      0.774779    86A      0.778842    87A      0.782757  
      88A      0.798029    89A      0.816669    90A      0.819902  
      91A      0.830437    92A      0.851259    93A      0.864383  
      94A      0.878617    95A      0.881072    96A      0.886467  
      97A      0.912860    98A      0.931183    99A      0.941160  
     100A      0.952399   101A      0.971287   102A      0.977522  
     103A      0.990063   104A      1.009278   105A      1.015694  
     106A      1.040161   107A      1.040965   108A      1.045464  
     109A      1.053432   110A      1.057350   111A      1.060545  
     112A      1.085175   113A      1.103676   114A      1.105393  
     115A      1.132525   116A      1.134156   117A      1.150252  
     118A      1.170166   119A      1.211446   120A      1.224686  
     121A      1.240471   122A      1.254621   123A      1.257414  
     124A      1.265352   125A      1.270978   126A      1.302643  
     127A      1.303965   128A      1.322184   129A      1.339097  
     130A      1.340210   131A      1.347191   132A      1.367617  
     133A      1.406015   134A      1.412455   135A      1.434109  
     136A      1.442158   137A      1.454118   138A      1.463621  
     139A      1.484640   140A      1.519735   141A      1.550497  
     142A      1.551792   143A      1.553860   144A      1.563085  
     145A      1.582836   146A      1.591348   147A      1.603416  
     148A      1.621492   149A      1.635849   150A      1.667822  
     151A      1.695890   152A      1.700771   153A      1.760482  
     154A      1.766463   155A      1.800763   156A      1.820412  
     157A      1.832311   158A      1.865248   159A      1.887997  
     160A      1.921315   161A      1.923113   162A      1.924687  
     163A      1.955397   164A      1.974367   165A      2.033909  
     166A      2.097655   167A      2.117888   168A      2.152078  
     169A      2.172610   170A      2.267117   171A      2.306148  
     172A      2.342969   173A      2.372301   174A      2.409659  
     175A      2.417083   176A      2.501144   177A      2.523038  
     178A      2.575370   179A      2.596398   180A      2.598286  
     181A      2.615899   182A      2.670089   183A      2.717803  
     184A      2.730527   185A      2.745330   186A      2.766881  
     187A      2.789555   188A      2.790817   189A      2.847196  
     190A      2.872604   191A      2.923931   192A      2.932953  
     193A      2.962161   194A      2.969959   195A      2.986529  
     196A      3.032141   197A      3.042738   198A      3.056090  
     199A      3.073114   200A      3.088636   201A      3.091394  
     202A      3.153450   203A      3.158538   204A      3.189877  
     205A      3.227124   206A      3.273611   207A      3.335146  
     208A      3.340606   209A      3.378094   210A      3.385654  
     211A      3.421351   212A      3.433005   213A      3.443413  
     214A      3.485293   215A      3.497816   216A      3.539988  
     217A      3.557734   218A      3.591918   219A      3.596294  
     220A      3.605127   221A      3.621228   222A      3.622400  
     223A      3.636085   224A      3.650166   225A      3.665564  
     226A      3.694814   227A      3.749879   228A      3.761856  
     229A      3.766364   230A      3.792225   231A      3.794321  
     232A      3.823479   233A      3.859520   234A      3.874048  
     235A      3.875887   236A      3.935565   237A      3.955165  
     238A      3.970354   239A      3.990516   240A      4.004830  
     241A      4.008751   242A      4.013205   243A      4.105114  
     244A      4.113399   245A      4.153326   246A      4.172342  
     247A      4.198645   248A      4.237785   249A      4.253737  
     250A      4.272363   251A      4.288172   252A      4.293562  
     253A      4.322915   254A      4.334794   255A      4.363927  
     256A      4.370066   257A      4.373883   258A      4.388900  
     259A      4.417332   260A      4.453030   261A      4.485022  
     262A      4.487387   263A      4.511970   264A      4.522611  
     265A      4.553912   266A      4.586452   267A      4.609210  
     268A      4.661136   269A      4.666012   270A      4.705698  
     271A      4.708445   272A      4.743856   273A      4.750491  
     274A      4.761520   275A      4.771655   276A      4.780984  
     277A      4.794347   278A      4.812298   279A      4.825598  
     280A      4.856888   281A      4.872354   282A      4.890235  
     283A      4.926248   284A      4.951470   285A      4.962482  
     286A      4.987189   287A      4.997959   288A      5.014214  
     289A      5.069072   290A      5.078529   291A      5.092666  
     292A      5.119514   293A      5.135518   294A      5.149915  
     295A      5.183293   296A      5.227675   297A      5.259316  
     298A      5.332042   299A      5.360054   300A      5.381022  
     301A      5.460421   302A      5.465550   303A      5.503229  
     304A      5.540978   305A      5.586971   306A      5.604426  
     307A      5.666563   308A      5.673811   309A      5.701078  
     310A      5.711241   311A      5.723354   312A      5.739159  
     313A      5.826150   314A      5.870436   315A      5.987208  
     316A      6.048558   317A      6.072891   318A      6.097482  
     319A      6.107549   320A      6.147523   321A      6.166214  
     322A      6.269722   323A      6.280238   324A      6.336151  
     325A      6.410340   326A      6.417423   327A      6.447538  
     328A      6.496320   329A      6.518282   330A      6.549352  
     331A      6.653434   332A      6.741089   333A      6.759370  
     334A      6.818507   335A      6.936302   336A      7.042650  
     337A      7.148024   338A      7.192278   339A      7.197493  
     340A      7.233869   341A      7.276371   342A      7.369489  
     343A      7.410963   344A      7.522845   345A      7.525322  
     346A      7.548712   347A      7.698753   348A      7.725283  
     349A      7.776163   350A      7.813017   351A      7.848976  
     352A      7.851469   353A      7.946398   354A      8.043352  
     355A      8.141320   356A      8.328905   357A      8.654306  
     358A      8.862908   359A      9.131400   360A      9.420271  
     361A      9.696695   362A      9.776368   363A      9.857294  
     364A      9.903253   365A      9.905612   366A      9.927186  
     367A      9.951987   368A     10.086547   369A     10.384805  
     370A     10.493977   371A     11.049482   372A     11.361897  
     373A     11.542903   374A     11.616371   375A     11.961559  
     376A     12.412892   377A     13.120195   378A     13.769790  
     379A     13.976617   380A     14.137792   381A     14.538898  
     382A     42.724540   383A     46.014213   384A     60.923978  
     385A     61.648162  

    Final Occupation by Irrep:
              A 
    DOCC [    12 ]

  @DF-RHF Final Energy:  -152.97489669009997

   => Energetics <=

    Nuclear Repulsion Energy =             69.6787659700931670
    One-Electron Energy =                -345.8064162458291548
    Two-Electron Energy =                 123.1527535856359776
    Total Energy =                       -152.9748966900999676

Computation Completed


Properties will be evaluated at   0.000000,   0.000000,   0.000000 [a0]

Properties computed using the SCF density matrix

  Nuclear Dipole Moment: [e a0]
     X:   110.9259      Y:     2.8579      Z:     0.0016

  Electronic Dipole Moment: [e a0]
     X:  -110.2318      Y:    -3.9790      Z:    -0.0017

  Dipole Moment: [e a0]
     X:     0.6941      Y:    -1.1211      Z:    -0.0000     Total:     1.3186

  Dipole Moment: [D]
     X:     1.7643      Y:    -2.8496      Z:    -0.0000     Total:     3.3516


*** tstop() called on r282 at Fri Sep 10 13:01:31 2021
Module time:
	user time   =      12.52 seconds =       0.21 minutes
	system time =       0.25 seconds =       0.00 minutes
	total time  =         12 seconds =       0.20 minutes
Total time:
	user time   =      52.44 seconds =       0.87 minutes
	system time =       1.27 seconds =       0.02 minutes
	total time  =         53 seconds =       0.88 minutes
  Constructing Basis Sets for SAPT...

   => Loading Basis Set <=

    Name: (JUN-CC-PVTZ AUX)
    Role: RIFIT
    Keyword: DF_BASIS_SAPT
    atoms 1, 5, 10-11   entry C          line   132 file /home/r08543048/miniconda3/share/psi4/basis/jun-cc-pvtz-ri.gbs 
    atoms 2-3, 12       entry O          line   244 file /home/r08543048/miniconda3/share/psi4/basis/jun-cc-pvtz-ri.gbs 
    atoms 4, 6-9, 13-15 entry H          line    30 file /home/r08543048/miniconda3/share/psi4/basis/jun-cc-pvtz-ri.gbs 


  //>>>>>>>>>>>>>>>>>>>>>>>>>>>>>>>>>>>//
  //               SAPT0               //
  //<<<<<<<<<<<<<<<<<<<<<<<<<<<<<<<<<<<//


*** tstart() called on r282
*** at Fri Sep 10 13:01:32 2021

        SAPT0  
    Ed Hohenstein
     6 June 2009

      Orbital Information
  --------------------------
    NSO        =       385
    NMO        =       385
    NRI        =       919
    NOCC A     =        16
    NOCC B     =        12
    FOCC A     =         0
    FOCC B     =         0
    NVIR A     =       369
    NVIR B     =       373

    Elst10,r            =    -0.027365961619 [Eh]
    Exch10              =     0.024896350160 [Eh]
    Exch10 (S^2)        =     0.024664226728 [Eh]

    Iter     Energy [mEh]          dE [mEh]         Residual      Time [s]
       1      -3.84583148       3.845831481      10.115976471             0
       2      -4.45182325       0.605991770       5.100527765             1
       3      -4.60746266       0.155639410       1.425894730             1
       4      -4.58101603      -0.026446632       0.587055148             2
       5      -4.57472076      -0.006295264       0.180065614             2
       6      -4.57742847       0.002707702       0.080765617             3
       7      -4.57825542       0.000826949       0.021694528             3
       8      -4.57800748      -0.000247931       0.006805153             4
       9      -4.57792596      -0.000081523       0.001637535             4
      10      -4.57794879       0.000022832       0.000406596             4
      11      -4.57794885       0.000000061       0.000076324             5
      12      -4.57794792      -0.000000939       0.000015174             5
      13      -4.57794805       0.000000133       0.000004344             6
      14      -4.57794807       0.000000023       0.000001150             6
      15      -4.57794806      -0.000000010       0.000000262             7

    CHF Iterations converged


    Iter     Energy [mEh]          dE [mEh]         Residual      Time [s]
       1      -7.05534177       7.055341769      21.312369557             0
       2      -8.22029246       1.164950690      11.876416494             0
       3      -9.17862282       0.958330362       2.740653992             1
       4      -9.10959757      -0.069025249       1.118594551             1
       5      -9.09582268      -0.013774889       0.349940184             2
       6      -9.10444954       0.008626858       0.117295209             2
       7      -9.10495646       0.000506921       0.023583016             2
       8      -9.10446905      -0.000487409       0.004557600             3
       9      -9.10451684       0.000047785       0.000913388             3
      10      -9.10452582       0.000008986       0.000169691             4
      11      -9.10452294      -0.000002882       0.000033495             4
      12      -9.10452306       0.000000119       0.000009505             4
      13      -9.10452316       0.000000097       0.000002411             5
      14      -9.10452314      -0.000000012       0.000000710             5

    CHF Iterations converged

    Ind20,r (A<-B)      =    -0.004577948061 [Eh]
    Ind20,r (B<-A)      =    -0.009104523145 [Eh]
    Ind20,r             =    -0.013682471205 [Eh]
    Exch-Ind20,r (A<-B) =     0.003279172161 [Eh]
    Exch-Ind20,r (B<-A) =     0.003921033718 [Eh]
    Exch-Ind20,r        =     0.007200205879 [Eh]
    Disp20              =    -0.009748556138 [Eh]
    Disp20 (SS)         =    -0.004874278069 [Eh]
    Disp20 (OS)         =    -0.004874278069 [Eh]
    Exch-Disp20         =     0.001725698377 [Eh]
    Exch-Disp20 (SS)    =     0.001077508762 [Eh]
    Exch-Disp20 (OS)    =     0.000648189615 [Eh]

    SAPT Results 
  --------------------------------------------------------------------------------------------------------
    Electrostatics                -27.36596162 [mEh]     -17.17240018 [kcal/mol]     -71.84932233 [kJ/mol]
      Elst10,r                    -27.36596162 [mEh]     -17.17240018 [kcal/mol]     -71.84932233 [kJ/mol]

    Exchange                       24.89635016 [mEh]      15.62269559 [kcal/mol]      65.36535834 [kJ/mol]
      Exch10                       24.89635016 [mEh]      15.62269559 [kcal/mol]      65.36535834 [kJ/mol]
      Exch10(S^2)                  24.66422673 [mEh]      15.47703594 [kcal/mol]      64.75591835 [kJ/mol]

    Induction                     -10.94125257 [mEh]      -6.86573964 [kcal/mol]     -28.72625466 [kJ/mol]
      Ind20,r                     -13.68247121 [mEh]      -8.58588031 [kcal/mol]     -35.92332320 [kJ/mol]
      Exch-Ind20,r                  7.20020588 [mEh]       4.51819740 [kcal/mol]      18.90413793 [kJ/mol]
      delta HF,r (2)               -4.45898724 [mEh]      -2.79805674 [kcal/mol]     -11.70706939 [kJ/mol]

    Dispersion                     -8.02285776 [mEh]      -5.03441925 [kcal/mol]     -21.06401015 [kJ/mol]
      Disp20                       -9.74855614 [mEh]      -6.11731133 [kcal/mol]     -25.59483061 [kJ/mol]
      Exch-Disp20                   1.72569838 [mEh]       1.08289208 [kcal/mol]       4.53082046 [kJ/mol]
      Disp20 (SS)                  -4.87427807 [mEh]      -3.05865567 [kcal/mol]     -12.79741531 [kJ/mol]
      Disp20 (OS)                  -4.87427807 [mEh]      -3.05865567 [kcal/mol]     -12.79741531 [kJ/mol]
      Exch-Disp20 (SS)              1.07750876 [mEh]       0.67614696 [kcal/mol]       2.82899886 [kJ/mol]
      Exch-Disp20 (OS)              0.64818961 [mEh]       0.40674512 [kcal/mol]       1.70182160 [kJ/mol]

  Total HF                        -13.41086403 [mEh]      -8.41544423 [kcal/mol]     -35.21021865 [kJ/mol]
  Total SAPT0                     -21.43372179 [mEh]     -13.44986348 [kcal/mol]     -56.27422880 [kJ/mol]

  Special recipe for scaled SAPT0 (see Manual):
    Electrostatics sSAPT0         -27.36596162 [mEh]     -17.17240018 [kcal/mol]     -71.84932233 [kJ/mol]
    Exchange sSAPT0                24.89635016 [mEh]      15.62269559 [kcal/mol]      65.36535834 [kJ/mol]
    Induction sSAPT0              -10.73604256 [mEh]      -6.73696842 [kcal/mol]     -28.18747587 [kJ/mol]
    Dispersion sSAPT0              -7.97367437 [mEh]      -5.00355621 [kcal/mol]     -20.93487916 [kJ/mol]
  Total sSAPT0                    -21.17932839 [mEh]     -13.29022921 [kcal/mol]     -55.60631902 [kJ/mol]
  --------------------------------------------------------------------------------------------------------

*** tstop() called on r282 at Fri Sep 10 13:02:20 2021
Module time:
	user time   =      40.45 seconds =       0.67 minutes
	system time =       8.10 seconds =       0.13 minutes
	total time  =         48 seconds =       0.80 minutes
Total time:
	user time   =      92.99 seconds =       1.55 minutes
	system time =       9.37 seconds =       0.16 minutes
	total time  =        102 seconds =       1.70 minutes

    Psi4 stopped on: Friday, 10 September 2021 01:02PM
    Psi4 wall time for execution: 0:01:42.52

*** Psi4 exiting successfully. Buy a developer a beer!
