
    -----------------------------------------------------------------------
          Psi4: An Open-Source Ab Initio Electronic Structure Package
                               Psi4 1.3.2 release

                         Git: Rev {HEAD} ecbda83 


    R. M. Parrish, L. A. Burns, D. G. A. Smith, A. C. Simmonett,
    A. E. DePrince III, E. G. Hohenstein, U. Bozkaya, A. Yu. Sokolov,
    R. Di Remigio, R. M. Richard, J. F. Gonthier, A. M. James,
    H. R. McAlexander, A. Kumar, M. Saitow, X. Wang, B. P. Pritchard,
    P. Verma, H. F. Schaefer III, K. Patkowski, R. A. King, E. F. Valeev,
    F. A. Evangelista, J. M. Turney, T. D. Crawford, and C. D. Sherrill,
    J. Chem. Theory Comput. 13(7) pp 3185--3197 (2017).
    (doi: 10.1021/acs.jctc.7b00174)


                         Additional Contributions by
    P. Kraus, H. Kruse, M. H. Lechner, M. C. Schieber, R. A. Shaw,
    A. Alenaizan, R. Galvelis, Z. L. Glick, S. Lehtola, and J. P. Misiewicz

    -----------------------------------------------------------------------


    Psi4 started on: Friday, 10 September 2021 01:42PM

    Process ID: 56698
    Host:       r282
    PSIDATADIR: /home/r08543048/miniconda3/share/psi4
    Memory:     500.0 MiB
    Threads:    1
    
  ==> Input File <==

--------------------------------------------------------------------------
# Any line starting with the # character is a comment line
#! Sample  computation

memory 22 gb

molecule Dimer {
0 1
 C  -4.628820   -0.893534    0.000112
 C  -3.856978    0.413700    0.000079
 C  -2.365240    0.209616   -0.000052
 O  -1.815559   -0.877619   -0.000123
 O  -1.704317    1.373703    0.000013
 H  -4.382574   -1.487528    0.877739
 H  -5.700506   -0.702034    0.000185
 H  -4.382688   -1.487501   -0.877566
 H  -4.099750    1.025495    0.870517
 H  -4.099883    1.025522   -0.870304
 H  -0.734666    1.177936   -0.000046

    
 --
0 1
 H 0.549342   -1.094747   -0.000077
 C 2.753741   -0.775808   -0.000032
 C 1.329930   -0.319992   -0.000167
 O 1.002144    0.859758   -0.000090
 H 2.876563   -1.433174   -0.868635
 C 3.780777    0.342367    0.000019
 H 3.617700    0.976837   -0.872006
 H 3.617561    0.976886    0.871984
 H 2.876443   -1.433135    0.868621
 C 5.203158   -0.202509    0.000148
 H 5.385023   -0.819205    0.881061
 H 5.385165   -0.819254   -0.880702
 H 5.934713    0.604134    0.000184


 
 







units angstrom

no_reorient
symmetry c1
}

set globals{
  basis jun-cc-pvtz
}

energy('sapt0')


--------------------------------------------------------------------------

  Memory set to  20.489 GiB by Python driver.

  //>>>>>>>>>>>>>>>>>>>>>>>>>>>>>>>>>>>//
  //              Dimer HF             //
  //<<<<<<<<<<<<<<<<<<<<<<<<<<<<<<<<<<<//


*** tstart() called on r282
*** at Fri Sep 10 13:42:08 2021

   => Loading Basis Set <=

    Name: JUN-CC-PVTZ
    Role: ORBITAL
    Keyword: BASIS
    atoms 1-3, 13-14, 17, 21     entry C          line   217 file /home/r08543048/miniconda3/share/psi4/basis/jun-cc-pvtz.gbs 
    atoms 4-5, 15                entry O          line   305 file /home/r08543048/miniconda3/share/psi4/basis/jun-cc-pvtz.gbs 
    atoms 6-12, 16, 18-20, 22-24 entry H          line    36 file /home/r08543048/miniconda3/share/psi4/basis/jun-cc-pvtz.gbs 


         ---------------------------------------------------------
                                   SCF
               by Justin Turney, Rob Parrish, Andy Simmonett
                          and Daniel G. A. Smith
                              RHF Reference
                        1 Threads,  20980 MiB Core
         ---------------------------------------------------------

  ==> Geometry <==

    Molecular point group: c1
    Full point group: C1

    Geometry (in Angstrom), charge = 0, multiplicity = 1:

       Center              X                  Y                   Z               Mass       
    ------------   -----------------  -----------------  -----------------  -----------------
         C           -4.582438263670    -0.917187089923     0.000118519830    12.000000000000
         C           -3.810596263670     0.390046910077     0.000085519830    12.000000000000
         C           -2.318858263670     0.185962910077    -0.000045480170    12.000000000000
         O           -1.769177263670    -0.901272089923    -0.000116480170    15.994914619570
         O           -1.657935263670     1.350049910077     0.000019519830    15.994914619570
         H           -4.336192263670    -1.511181089923     0.877745519830     1.007825032230
         H           -5.654124263670    -0.725687089923     0.000191519830     1.007825032230
         H           -4.336306263670    -1.511154089923    -0.877559480170     1.007825032230
         H           -4.053368263670     1.001841910077     0.870523519830     1.007825032230
         H           -4.053501263670     1.001868910077    -0.870297480170     1.007825032230
         H           -0.688284263670     1.154282910077    -0.000039480170     1.007825032230
         H            0.595723736330    -1.118400089923    -0.000070480170     1.007825032230
         C            2.800122736330    -0.799461089923    -0.000025480170    12.000000000000
         C            1.376311736330    -0.343645089923    -0.000160480170    12.000000000000
         O            1.048525736330     0.836104910077    -0.000083480170    15.994914619570
         H            2.922944736330    -1.456827089923    -0.868628480170     1.007825032230
         C            3.827158736330     0.318713910077     0.000025519830    12.000000000000
         H            3.664081736330     0.953183910077    -0.871999480170     1.007825032230
         H            3.663942736330     0.953232910077     0.871990519830     1.007825032230
         H            2.922824736330    -1.456788089923     0.868627519830     1.007825032230
         C            5.249539736330    -0.226162089923     0.000154519830    12.000000000000
         H            5.431404736330    -0.842858089923     0.881067519830     1.007825032230
         H            5.431546736330    -0.842907089923    -0.880695480170     1.007825032230
         H            5.981094736330     0.580480910077     0.000190519830     1.007825032230

  Running in c1 symmetry.

  Rotational constants: A =      0.16540  B =      0.01141  C =      0.01078 [cm^-1]
  Rotational constants: A =   4958.58514  B =    342.11567  C =    323.18561 [MHz]
  Nuclear repulsion =  512.927949432060245

  Charge       = 0
  Multiplicity = 1
  Electrons    = 80
  Nalpha       = 40
  Nbeta        = 40

  ==> Algorithm <==

  SCF Algorithm Type is DF.
  DIIS enabled.
  MOM disabled.
  Fractional occupation disabled.
  Guess Type is SAD.
  Energy threshold   = 1.00e-08
  Density threshold  = 1.00e-08
  Integral threshold = 0.00e+00

  ==> Primary Basis <==

  Basis Set: JUN-CC-PVTZ
    Blend: JUN-CC-PVTZ
    Number of shells: 214
    Number of basis function: 586
    Number of Cartesian functions: 660
    Spherical Harmonics?: true
    Max angular momentum: 3

   => Loading Basis Set <=

    Name: (JUN-CC-PVTZ AUX)
    Role: JKFIT
    Keyword: DF_BASIS_SCF
    atoms 1-3, 13-14, 17, 21     entry C          line   152 file /home/r08543048/miniconda3/share/psi4/basis/jun-cc-pvtz-jkfit.gbs 
    atoms 4-5, 15                entry O          line   272 file /home/r08543048/miniconda3/share/psi4/basis/jun-cc-pvtz-jkfit.gbs 
    atoms 6-12, 16, 18-20, 22-24 entry H          line    70 file /home/r08543048/miniconda3/share/psi4/basis/jun-cc-pvtz-jkfit.gbs 

  ==> Pre-Iterations <==

   -------------------------------------------------------
    Irrep   Nso     Nmo     Nalpha   Nbeta   Ndocc  Nsocc
   -------------------------------------------------------
     A        586     586       0       0       0       0
   -------------------------------------------------------
    Total     586     586      40      40      40       0
   -------------------------------------------------------

  ==> Integral Setup <==

  ==> DiskDFJK: Density-Fitted J/K Matrices <==

    J tasked:                  Yes
    K tasked:                  Yes
    wK tasked:                  No
    OpenMP threads:              1
    Integrals threads:           1
    Memory [MiB]:            15735
    Algorithm:                Core
    Integral Cache:           SAVE
    Schwarz Cutoff:          1E-12
    Fitting Condition:       1E-10

   => Auxiliary Basis Set <=

  Basis Set: (JUN-CC-PVTZ AUX)
    Blend: JUN-CC-PVTZ-JKFIT
    Number of shells: 430
    Number of basis function: 1370
    Number of Cartesian functions: 1650
    Spherical Harmonics?: true
    Max angular momentum: 4

  Minimum eigenvalue in the overlap matrix is 2.3373789710E-05.
  Using Symmetric Orthogonalization.

  SCF Guess: Superposition of Atomic Densities via on-the-fly atomic UHF.

  ==> Iterations <==

                           Total Energy        Delta E     RMS |[F,P]|

   @DF-RHF iter SAD:  -496.46561523457939   -4.96466e+02   0.00000e+00 
   @DF-RHF iter   1:  -497.64927854089228   -1.18366e+00   1.48305e-03 DIIS
   @DF-RHF iter   2:  -497.94158754890799   -2.92309e-01   8.32770e-04 DIIS
   @DF-RHF iter   3:  -498.02884662577981   -8.72591e-02   1.59046e-04 DIIS
   @DF-RHF iter   4:  -498.03444844460751   -5.60182e-03   7.33987e-05 DIIS
   @DF-RHF iter   5:  -498.03552183449119   -1.07339e-03   1.39129e-05 DIIS
   @DF-RHF iter   6:  -498.03559566742877   -7.38329e-05   6.47969e-06 DIIS
   @DF-RHF iter   7:  -498.03560843231639   -1.27649e-05   2.44565e-06 DIIS
   @DF-RHF iter   8:  -498.03561121100506   -2.77869e-06   1.00720e-06 DIIS
   @DF-RHF iter   9:  -498.03561171088120   -4.99876e-07   2.90538e-07 DIIS
   @DF-RHF iter  10:  -498.03561175206136   -4.11802e-08   7.15794e-08 DIIS
   @DF-RHF iter  11:  -498.03561175428621   -2.22485e-09   1.82530e-08 DIIS
   @DF-RHF iter  12:  -498.03561175440149   -1.15278e-10   5.35258e-09 DIIS
  Energy and wave function converged.


  ==> Post-Iterations <==

    Orbital Energies [Eh]
    ---------------------

    Doubly Occupied:                                                      

       1A    -20.581276     2A    -20.572117     3A    -20.533312  
       4A    -11.370690     5A    -11.342317     6A    -11.247177  
       7A    -11.235495     8A    -11.230155     9A    -11.221409  
      10A    -11.213521    11A     -1.441353    12A     -1.402806  
      13A     -1.338670    14A     -1.089480    15A     -1.055628  
      16A     -0.984286    17A     -0.902814    18A     -0.855118  
      19A     -0.785623    20A     -0.776249    21A     -0.698709  
      22A     -0.685097    23A     -0.667900    24A     -0.656068  
      25A     -0.646396    26A     -0.644893    27A     -0.577974  
      28A     -0.577698    29A     -0.573935    30A     -0.571909  
      31A     -0.525791    32A     -0.516982    33A     -0.516002  
      34A     -0.513918    35A     -0.496428    36A     -0.494317  
      37A     -0.485669    38A     -0.463639    39A     -0.440858  
      40A     -0.433447  

    Virtual:                                                              

      41A      0.044829    42A      0.053164    43A      0.055822  
      44A      0.065077    45A      0.065683    46A      0.066846  
      47A      0.077351    48A      0.084128    49A      0.093489  
      50A      0.093520    51A      0.100784    52A      0.102266  
      53A      0.109402    54A      0.112488    55A      0.115049  
      56A      0.118605    57A      0.119393    58A      0.127558  
      59A      0.139755    60A      0.159524    61A      0.169226  
      62A      0.175225    63A      0.179379    64A      0.187731  
      65A      0.193770    66A      0.195607    67A      0.201775  
      68A      0.207723    69A      0.210957    70A      0.224996  
      71A      0.231855    72A      0.234562    73A      0.243681  
      74A      0.245650    75A      0.254404    76A      0.257641  
      77A      0.262773    78A      0.268034    79A      0.275198  
      80A      0.280490    81A      0.285388    82A      0.289444  
      83A      0.296168    84A      0.299951    85A      0.302839  
      86A      0.308611    87A      0.311066    88A      0.319424  
      89A      0.320383    90A      0.321279    91A      0.332445  
      92A      0.335536    93A      0.342444    94A      0.345004  
      95A      0.355591    96A      0.356359    97A      0.358231  
      98A      0.362612    99A      0.371646   100A      0.389807  
     101A      0.395575   102A      0.396326   103A      0.401832  
     104A      0.403396   105A      0.410173   106A      0.415631  
     107A      0.419193   108A      0.425774   109A      0.441685  
     110A      0.441746   111A      0.447292   112A      0.451233  
     113A      0.469511   114A      0.478775   115A      0.486834  
     116A      0.494094   117A      0.510525   118A      0.512077  
     119A      0.516152   120A      0.522728   121A      0.522906  
     122A      0.528076   123A      0.530458   124A      0.541845  
     125A      0.547905   126A      0.550977   127A      0.553182  
     128A      0.555684   129A      0.564966   130A      0.570742  
     131A      0.574367   132A      0.581228   133A      0.598282  
     134A      0.617342   135A      0.634291   136A      0.641003  
     137A      0.647696   138A      0.652773   139A      0.672676  
     140A      0.680277   141A      0.686632   142A      0.699670  
     143A      0.702884   144A      0.709416   145A      0.719337  
     146A      0.720230   147A      0.732244   148A      0.740394  
     149A      0.743336   150A      0.749105   151A      0.766181  
     152A      0.768725   153A      0.770363   154A      0.791179  
     155A      0.796996   156A      0.799959   157A      0.803695  
     158A      0.813166   159A      0.815371   160A      0.821542  
     161A      0.830889   162A      0.835796   163A      0.838984  
     164A      0.842983   165A      0.844607   166A      0.855361  
     167A      0.861003   168A      0.861888   169A      0.874608  
     170A      0.880907   171A      0.887717   172A      0.899433  
     173A      0.908983   174A      0.913493   175A      0.926845  
     176A      0.928109   177A      0.943606   178A      0.952320  
     179A      0.953105   180A      0.981449   181A      0.984904  
     182A      0.988390   183A      0.989069   184A      0.990582  
     185A      1.007377   186A      1.010071   187A      1.028356  
     188A      1.032197   189A      1.047611   190A      1.051793  
     191A      1.063852   192A      1.079652   193A      1.105529  
     194A      1.112631   195A      1.130528   196A      1.138150  
     197A      1.142904   198A      1.145263   199A      1.147190  
     200A      1.173200   201A      1.177331   202A      1.202704  
     203A      1.206953   204A      1.219470   205A      1.230746  
     206A      1.248801   207A      1.265504   208A      1.269513  
     209A      1.283904   210A      1.285157   211A      1.294787  
     212A      1.308723   213A      1.309959   214A      1.332487  
     215A      1.339487   216A      1.343214   217A      1.350003  
     218A      1.355599   219A      1.374149   220A      1.379536  
     221A      1.394443   222A      1.404465   223A      1.408802  
     224A      1.422746   225A      1.425374   226A      1.431604  
     227A      1.433895   228A      1.439966   229A      1.457959  
     230A      1.462928   231A      1.463799   232A      1.469047  
     233A      1.473255   234A      1.495204   235A      1.496744  
     236A      1.518138   237A      1.519237   238A      1.535903  
     239A      1.541824   240A      1.545037   241A      1.555651  
     242A      1.574505   243A      1.583647   244A      1.593761  
     245A      1.598465   246A      1.612787   247A      1.617004  
     248A      1.623487   249A      1.633982   250A      1.637102  
     251A      1.648738   252A      1.676872   253A      1.685105  
     254A      1.688511   255A      1.691541   256A      1.697847  
     257A      1.712538   258A      1.737800   259A      1.754016  
     260A      1.767736   261A      1.780519   262A      1.795100  
     263A      1.804064   264A      1.824814   265A      1.830071  
     266A      1.845247   267A      1.857634   268A      1.864659  
     269A      1.875100   270A      1.900393   271A      1.914453  
     272A      1.917878   273A      1.922352   274A      1.933102  
     275A      1.967235   276A      1.984849   277A      1.992557  
     278A      2.004482   279A      2.033011   280A      2.103544  
     281A      2.154522   282A      2.202065   283A      2.229369  
     284A      2.267344   285A      2.305571   286A      2.307871  
     287A      2.342066   288A      2.393504   289A      2.405640  
     290A      2.435917   291A      2.451585   292A      2.472593  
     293A      2.545752   294A      2.573325   295A      2.627785  
     296A      2.651477   297A      2.655763   298A      2.704469  
     299A      2.716623   300A      2.734628   301A      2.755016  
     302A      2.774219   303A      2.781702   304A      2.803510  
     305A      2.811233   306A      2.841779   307A      2.856325  
     308A      2.870522   309A      2.891462   310A      2.899936  
     311A      2.907514   312A      2.922611   313A      2.946570  
     314A      2.950038   315A      2.961755   316A      2.978814  
     317A      2.999573   318A      3.009181   319A      3.029397  
     320A      3.036324   321A      3.046555   322A      3.067227  
     323A      3.081088   324A      3.104547   325A      3.104942  
     326A      3.120035   327A      3.122760   328A      3.124206  
     329A      3.136413   330A      3.136683   331A      3.144874  
     332A      3.164255   333A      3.174217   334A      3.196702  
     335A      3.216103   336A      3.238098   337A      3.248773  
     338A      3.257177   339A      3.266193   340A      3.290088  
     341A      3.297569   342A      3.310650   343A      3.329649  
     344A      3.331812   345A      3.334117   346A      3.352628  
     347A      3.358761   348A      3.377649   349A      3.381305  
     350A      3.388377   351A      3.402942   352A      3.421543  
     353A      3.432581   354A      3.439765   355A      3.440125  
     356A      3.465660   357A      3.470687   358A      3.480105  
     359A      3.480384   360A      3.490906   361A      3.494259  
     362A      3.496224   363A      3.500036   364A      3.511199  
     365A      3.511867   366A      3.527619   367A      3.530139  
     368A      3.552289   369A      3.556288   370A      3.560660  
     371A      3.564772   372A      3.573990   373A      3.579540  
     374A      3.588988   375A      3.600249   376A      3.620579  
     377A      3.625283   378A      3.634994   379A      3.661202  
     380A      3.676921   381A      3.685674   382A      3.692922  
     383A      3.713433   384A      3.737823   385A      3.738476  
     386A      3.747816   387A      3.761760   388A      3.774969  
     389A      3.787275   390A      3.797311   391A      3.799988  
     392A      3.804386   393A      3.818632   394A      3.819567  
     395A      3.852323   396A      3.871309   397A      3.889053  
     398A      3.890711   399A      3.903672   400A      3.915519  
     401A      3.920947   402A      3.925514   403A      3.935343  
     404A      3.944964   405A      3.978294   406A      3.981141  
     407A      3.997155   408A      4.007508   409A      4.032864  
     410A      4.060750   411A      4.067799   412A      4.096627  
     413A      4.099640   414A      4.118199   415A      4.141770  
     416A      4.179911   417A      4.186862   418A      4.207946  
     419A      4.222795   420A      4.226174   421A      4.229237  
     422A      4.238171   423A      4.250393   424A      4.258804  
     425A      4.262501   426A      4.286807   427A      4.308236  
     428A      4.311247   429A      4.321072   430A      4.324141  
     431A      4.324876   432A      4.337796   433A      4.342615  
     434A      4.356293   435A      4.364987   436A      4.374963  
     437A      4.411600   438A      4.412675   439A      4.417385  
     440A      4.420430   441A      4.438669   442A      4.447205  
     443A      4.471458   444A      4.480403   445A      4.487068  
     446A      4.489777   447A      4.502168   448A      4.504275  
     449A      4.542117   450A      4.543210   451A      4.560991  
     452A      4.578138   453A      4.597811   454A      4.607011  
     455A      4.623223   456A      4.638097   457A      4.644282  
     458A      4.668708   459A      4.669424   460A      4.682170  
     461A      4.687084   462A      4.690697   463A      4.710918  
     464A      4.723971   465A      4.727965   466A      4.729414  
     467A      4.764354   468A      4.800822   469A      4.818265  
     470A      4.820097   471A      4.833298   472A      4.834488  
     473A      4.855925   474A      4.883061   475A      4.913661  
     476A      4.939049   477A      4.960258   478A      4.987554  
     479A      4.992578   480A      5.001938   481A      5.061687  
     482A      5.071183   483A      5.084924   484A      5.123156  
     485A      5.132431   486A      5.133727   487A      5.142290  
     488A      5.156165   489A      5.237174   490A      5.262630  
     491A      5.270430   492A      5.272452   493A      5.279559  
     494A      5.285320   495A      5.292564   496A      5.323125  
     497A      5.323914   498A      5.333386   499A      5.353944  
     500A      5.357588   501A      5.376859   502A      5.396747  
     503A      5.430062   504A      5.456425   505A      5.465229  
     506A      5.501235   507A      5.554739   508A      5.556044  
     509A      5.577798   510A      5.591409   511A      5.624937  
     512A      5.634087   513A      5.655884   514A      5.660829  
     515A      5.668026   516A      5.703663   517A      5.703767  
     518A      5.745334   519A      5.745974   520A      5.752878  
     521A      5.752984   522A      5.788838   523A      5.820222  
     524A      5.828905   525A      5.834782   526A      5.864247  
     527A      5.890862   528A      5.892190   529A      5.905313  
     530A      5.911894   531A      5.916116   532A      5.931900  
     533A      5.932726   534A      5.976768   535A      6.002038  
     536A      6.041852   537A      6.073683   538A      6.095366  
     539A      6.116502   540A      6.158730   541A      6.263566  
     542A      6.315160   543A      6.377674   544A      6.485139  
     545A      6.493323   546A      6.504238   547A      6.508123  
     548A      6.518440   549A      6.533791   550A      6.567715  
     551A      6.573633   552A      6.754301   553A      6.776223  
     554A      6.776258   555A      6.961565   556A      6.978330  
     557A      6.980246   558A      7.119672   559A      7.170331  
     560A      7.256121   561A      7.259019   562A      7.298511  
     563A      7.333097   564A      7.372079   565A      7.387744  
     566A      7.436141   567A      7.444423   568A      7.449806  
     569A      7.478047   570A      7.697921   571A      7.718235  
     572A      7.755877   573A      7.789254   574A      7.912417  
     575A      8.038058   576A      8.302401   577A     12.214514  
     578A     12.555163   579A     13.882935   580A     13.915258  
     581A     14.134501   582A     14.409399   583A     14.479546  
     584A     14.504595   585A     14.550020   586A     14.753521  

    Final Occupation by Irrep:
              A 
    DOCC [    40 ]

  @DF-RHF Final Energy:  -498.03561175440149

   => Energetics <=

    Nuclear Repulsion Energy =            512.9279494320602453
    One-Electron Energy =               -1697.1928703429530287
    Two-Electron Energy =                 686.2293091564911265
    Total Energy =                       -498.0356117544015433

Computation Completed


Properties will be evaluated at   0.000000,   0.000000,   0.000000 [a0]

Properties computed using the SCF density matrix

  Nuclear Dipole Moment: [e a0]
     X:     7.0119      Y:    -3.5758      Z:     0.0010

  Electronic Dipole Moment: [e a0]
     X:    -6.4290      Y:     3.0720      Z:    -0.0009

  Dipole Moment: [e a0]
     X:     0.5829      Y:    -0.5038      Z:     0.0000     Total:     0.7704

  Dipole Moment: [D]
     X:     1.4815      Y:    -1.2805      Z:     0.0001     Total:     1.9582


*** tstop() called on r282 at Fri Sep 10 13:44:03 2021
Module time:
	user time   =     112.23 seconds =       1.87 minutes
	system time =       2.12 seconds =       0.04 minutes
	total time  =        115 seconds =       1.92 minutes
Total time:
	user time   =     112.23 seconds =       1.87 minutes
	system time =       2.12 seconds =       0.04 minutes
	total time  =        115 seconds =       1.92 minutes

  //>>>>>>>>>>>>>>>>>>>>>>>>>>>>>>>>>>>//
  //            Monomer A HF           //
  //<<<<<<<<<<<<<<<<<<<<<<<<<<<<<<<<<<<//


*** tstart() called on r282
*** at Fri Sep 10 13:44:03 2021

   => Loading Basis Set <=

    Name: JUN-CC-PVTZ
    Role: ORBITAL
    Keyword: BASIS
    atoms 1-3, 13-14, 17, 21     entry C          line   217 file /home/r08543048/miniconda3/share/psi4/basis/jun-cc-pvtz.gbs 
    atoms 4-5, 15                entry O          line   305 file /home/r08543048/miniconda3/share/psi4/basis/jun-cc-pvtz.gbs 
    atoms 6-12, 16, 18-20, 22-24 entry H          line    36 file /home/r08543048/miniconda3/share/psi4/basis/jun-cc-pvtz.gbs 


         ---------------------------------------------------------
                                   SCF
               by Justin Turney, Rob Parrish, Andy Simmonett
                          and Daniel G. A. Smith
                              RHF Reference
                        1 Threads,  20980 MiB Core
         ---------------------------------------------------------

  ==> Geometry <==

    Molecular point group: c1
    Full point group: C1

    Geometry (in Angstrom), charge = 0, multiplicity = 1:

       Center              X                  Y                   Z               Mass       
    ------------   -----------------  -----------------  -----------------  -----------------
         C           -4.582438263670    -0.917187089923     0.000118519830    12.000000000000
         C           -3.810596263670     0.390046910077     0.000085519830    12.000000000000
         C           -2.318858263670     0.185962910077    -0.000045480170    12.000000000000
         O           -1.769177263670    -0.901272089923    -0.000116480170    15.994914619570
         O           -1.657935263670     1.350049910077     0.000019519830    15.994914619570
         H           -4.336192263670    -1.511181089923     0.877745519830     1.007825032230
         H           -5.654124263670    -0.725687089923     0.000191519830     1.007825032230
         H           -4.336306263670    -1.511154089923    -0.877559480170     1.007825032230
         H           -4.053368263670     1.001841910077     0.870523519830     1.007825032230
         H           -4.053501263670     1.001868910077    -0.870297480170     1.007825032230
         H           -0.688284263670     1.154282910077    -0.000039480170     1.007825032230
      Gh(H)           0.595723736330    -1.118400089923    -0.000070480170     1.007825032230
      Gh(C)           2.800122736330    -0.799461089923    -0.000025480170    12.000000000000
      Gh(C)           1.376311736330    -0.343645089923    -0.000160480170    12.000000000000
      Gh(O)           1.048525736330     0.836104910077    -0.000083480170    15.994914619570
      Gh(H)           2.922944736330    -1.456827089923    -0.868628480170     1.007825032230
      Gh(C)           3.827158736330     0.318713910077     0.000025519830    12.000000000000
      Gh(H)           3.664081736330     0.953183910077    -0.871999480170     1.007825032230
      Gh(H)           3.663942736330     0.953232910077     0.871990519830     1.007825032230
      Gh(H)           2.922824736330    -1.456788089923     0.868627519830     1.007825032230
      Gh(C)           5.249539736330    -0.226162089923     0.000154519830    12.000000000000
      Gh(H)           5.431404736330    -0.842858089923     0.881067519830     1.007825032230
      Gh(H)           5.431546736330    -0.842907089923    -0.880695480170     1.007825032230
      Gh(H)           5.981094736330     0.580480910077     0.000190519830     1.007825032230

  Running in c1 symmetry.

  Rotational constants: A =      0.16540  B =      0.01141  C =      0.01078 [cm^-1]
  Rotational constants: A =   4958.58514  B =    342.11567  C =    323.18561 [MHz]
  Nuclear repulsion =  178.643661901735555

  Charge       = 0
  Multiplicity = 1
  Electrons    = 40
  Nalpha       = 20
  Nbeta        = 20

  ==> Algorithm <==

  SCF Algorithm Type is DF.
  DIIS enabled.
  MOM disabled.
  Fractional occupation disabled.
  Guess Type is SAD.
  Energy threshold   = 1.00e-08
  Density threshold  = 1.00e-08
  Integral threshold = 0.00e+00

  ==> Primary Basis <==

  Basis Set: JUN-CC-PVTZ
    Blend: JUN-CC-PVTZ
    Number of shells: 214
    Number of basis function: 586
    Number of Cartesian functions: 660
    Spherical Harmonics?: true
    Max angular momentum: 3

   => Loading Basis Set <=

    Name: (JUN-CC-PVTZ AUX)
    Role: JKFIT
    Keyword: DF_BASIS_SCF
    atoms 1-3, 13-14, 17, 21     entry C          line   152 file /home/r08543048/miniconda3/share/psi4/basis/jun-cc-pvtz-jkfit.gbs 
    atoms 4-5, 15                entry O          line   272 file /home/r08543048/miniconda3/share/psi4/basis/jun-cc-pvtz-jkfit.gbs 
    atoms 6-12, 16, 18-20, 22-24 entry H          line    70 file /home/r08543048/miniconda3/share/psi4/basis/jun-cc-pvtz-jkfit.gbs 

  ==> Pre-Iterations <==

   -------------------------------------------------------
    Irrep   Nso     Nmo     Nalpha   Nbeta   Ndocc  Nsocc
   -------------------------------------------------------
     A        586     586       0       0       0       0
   -------------------------------------------------------
    Total     586     586      20      20      20       0
   -------------------------------------------------------

  ==> Integral Setup <==

  ==> DiskDFJK: Density-Fitted J/K Matrices <==

    J tasked:                  Yes
    K tasked:                  Yes
    wK tasked:                  No
    OpenMP threads:              1
    Integrals threads:           1
    Memory [MiB]:            15735
    Algorithm:                Core
    Integral Cache:           LOAD
    Schwarz Cutoff:          1E-12
    Fitting Condition:       1E-10

   => Auxiliary Basis Set <=

  Basis Set: (JUN-CC-PVTZ AUX)
    Blend: JUN-CC-PVTZ-JKFIT
    Number of shells: 430
    Number of basis function: 1370
    Number of Cartesian functions: 1650
    Spherical Harmonics?: true
    Max angular momentum: 4

  Minimum eigenvalue in the overlap matrix is 2.3373789710E-05.
  Using Symmetric Orthogonalization.

  SCF Guess: Superposition of Atomic Densities via on-the-fly atomic UHF.

  ==> Iterations <==

                           Total Energy        Delta E     RMS |[F,P]|

   @DF-RHF iter SAD:  -266.06010838574946   -2.66060e+02   0.00000e+00 
   @DF-RHF iter   1:  -266.75003946770136   -6.89931e-01   1.10963e-03 DIIS
   @DF-RHF iter   2:  -266.89778372363219   -1.47744e-01   6.55401e-04 DIIS
   @DF-RHF iter   3:  -266.94790782822759   -5.01241e-02   1.16571e-04 DIIS
   @DF-RHF iter   4:  -266.95071575391694   -2.80793e-03   5.53248e-05 DIIS
   @DF-RHF iter   5:  -266.95133954523516   -6.23791e-04   1.09861e-05 DIIS
   @DF-RHF iter   6:  -266.95138417969997   -4.46345e-05   5.35120e-06 DIIS
   @DF-RHF iter   7:  -266.95139316741376   -8.98771e-06   1.94003e-06 DIIS
   @DF-RHF iter   8:  -266.95139505152281   -1.88411e-06   6.92696e-07 DIIS
   @DF-RHF iter   9:  -266.95139531194496   -2.60422e-07   1.61995e-07 DIIS
   @DF-RHF iter  10:  -266.95139532492084   -1.29759e-08   4.92663e-08 DIIS
   @DF-RHF iter  11:  -266.95139532570204   -7.81199e-10   1.24741e-08 DIIS
   @DF-RHF iter  12:  -266.95139532576201   -5.99698e-11   2.86668e-09 DIIS
  Energy and wave function converged.


  ==> Post-Iterations <==

    Orbital Energies [Eh]
    ---------------------

    Doubly Occupied:                                                      

       1A    -20.619396     2A    -20.547290     3A    -11.386003  
       4A    -11.247701     5A    -11.221198     6A     -1.465444  
       7A     -1.356920     8A     -1.066859     9A     -0.915972  
      10A     -0.798587    11A     -0.703683    12A     -0.689637  
      13A     -0.662537    14A     -0.594968    15A     -0.594081  
      16A     -0.534483    17A     -0.525155    18A     -0.504862  
      19A     -0.480552    20A     -0.451523  

    Virtual:                                                              

      21A      0.030098    22A      0.044715    23A      0.049646  
      24A      0.056118    25A      0.061056    26A      0.061944  
      27A      0.073540    28A      0.079359    29A      0.090167  
      30A      0.092309    31A      0.100447    32A      0.101904  
      33A      0.108477    34A      0.108875    35A      0.109601  
      36A      0.114057    37A      0.123659    38A      0.134444  
      39A      0.139523    40A      0.143929    41A      0.154431  
      42A      0.155682    43A      0.161121    44A      0.177315  
      45A      0.184768    46A      0.184812    47A      0.187606  
      48A      0.190717    49A      0.197398    50A      0.212327  
      51A      0.216712    52A      0.221803    53A      0.232974  
      54A      0.237229    55A      0.246420    56A      0.253670  
      57A      0.257575    58A      0.260433    59A      0.272013  
      60A      0.281746    61A      0.290124    62A      0.290124  
      63A      0.291288    64A      0.293468    65A      0.295109  
      66A      0.303696    67A      0.306580    68A      0.314928  
      69A      0.318817    70A      0.327401    71A      0.336259  
      72A      0.347704    73A      0.350632    74A      0.354496  
      75A      0.354692    76A      0.364088    77A      0.369860  
      78A      0.377813    79A      0.382082    80A      0.384782  
      81A      0.385307    82A      0.402234    83A      0.411379  
      84A      0.413443    85A      0.416105    86A      0.421546  
      87A      0.428595    88A      0.439609    89A      0.442730  
      90A      0.446580    91A      0.452190    92A      0.459417  
      93A      0.463682    94A      0.469774    95A      0.486294  
      96A      0.493238    97A      0.499689    98A      0.503046  
      99A      0.514510   100A      0.518467   101A      0.524642  
     102A      0.533704   103A      0.537386   104A      0.544203  
     105A      0.548892   106A      0.558986   107A      0.560655  
     108A      0.565950   109A      0.574097   110A      0.577818  
     111A      0.594179   112A      0.595325   113A      0.605233  
     114A      0.613717   115A      0.630030   116A      0.634012  
     117A      0.634831   118A      0.645852   119A      0.652075  
     120A      0.659937   121A      0.668527   122A      0.682525  
     123A      0.690856   124A      0.703055   125A      0.707344  
     126A      0.710539   127A      0.719527   128A      0.725271  
     129A      0.732270   130A      0.740138   131A      0.758447  
     132A      0.761505   133A      0.767444   134A      0.768809  
     135A      0.786412   136A      0.790224   137A      0.809835  
     138A      0.815040   139A      0.819568   140A      0.820756  
     141A      0.824604   142A      0.850341   143A      0.859835  
     144A      0.878929   145A      0.886885   146A      0.888833  
     147A      0.894549   148A      0.907889   149A      0.913090  
     150A      0.922552   151A      0.948879   152A      0.960905  
     153A      0.979260   154A      0.985005   155A      0.994772  
     156A      0.996255   157A      1.015295   158A      1.025837  
     159A      1.036869   160A      1.051798   161A      1.056849  
     162A      1.064255   163A      1.074704   164A      1.077575  
     165A      1.081917   166A      1.093942   167A      1.109587  
     168A      1.109954   169A      1.125003   170A      1.130692  
     171A      1.137784   172A      1.173276   173A      1.177997  
     174A      1.185265   175A      1.187786   176A      1.195164  
     177A      1.201477   178A      1.212793   179A      1.227257  
     180A      1.228929   181A      1.237851   182A      1.260121  
     183A      1.265494   184A      1.269955   185A      1.275443  
     186A      1.282429   187A      1.289090   188A      1.302257  
     189A      1.307049   190A      1.313249   191A      1.332337  
     192A      1.338297   193A      1.340585   194A      1.349068  
     195A      1.358894   196A      1.368019   197A      1.368606  
     198A      1.387540   199A      1.399838   200A      1.405237  
     201A      1.407837   202A      1.411377   203A      1.426643  
     204A      1.432974   205A      1.439705   206A      1.449636  
     207A      1.457427   208A      1.469219   209A      1.473629  
     210A      1.484645   211A      1.485932   212A      1.493004  
     213A      1.505296   214A      1.526726   215A      1.531904  
     216A      1.541292   217A      1.554156   218A      1.562967  
     219A      1.571251   220A      1.572643   221A      1.583213  
     222A      1.585291   223A      1.594582   224A      1.610605  
     225A      1.621289   226A      1.625056   227A      1.633018  
     228A      1.636034   229A      1.654880   230A      1.674401  
     231A      1.679968   232A      1.691866   233A      1.710358  
     234A      1.720530   235A      1.721159   236A      1.744887  
     237A      1.765335   238A      1.783277   239A      1.789563  
     240A      1.818924   241A      1.825241   242A      1.829505  
     243A      1.855745   244A      1.860493   245A      1.898987  
     246A      1.902086   247A      1.903691   248A      1.919806  
     249A      1.929174   250A      1.936347   251A      1.959676  
     252A      1.986001   253A      2.010518   254A      2.016017  
     255A      2.054720   256A      2.093911   257A      2.116703  
     258A      2.149716   259A      2.154099   260A      2.187753  
     261A      2.207938   262A      2.213504   263A      2.218883  
     264A      2.264876   265A      2.280099   266A      2.303947  
     267A      2.315526   268A      2.317992   269A      2.385265  
     270A      2.398036   271A      2.401542   272A      2.408858  
     273A      2.431192   274A      2.442770   275A      2.448068  
     276A      2.488521   277A      2.501774   278A      2.537538  
     279A      2.548650   280A      2.582285   281A      2.633981  
     282A      2.639444   283A      2.651660   284A      2.682413  
     285A      2.721153   286A      2.742905   287A      2.771518  
     288A      2.793131   289A      2.821873   290A      2.841298  
     291A      2.857985   292A      2.886662   293A      2.889824  
     294A      2.929846   295A      2.943134   296A      2.974569  
     297A      2.974660   298A      2.978336   299A      3.024639  
     300A      3.038753   301A      3.068044   302A      3.093086  
     303A      3.113972   304A      3.125130   305A      3.129546  
     306A      3.183052   307A      3.224817   308A      3.240025  
     309A      3.250445   310A      3.300970   311A      3.307211  
     312A      3.334122   313A      3.339590   314A      3.367030  
     315A      3.380608   316A      3.413416   317A      3.454365  
     318A      3.473101   319A      3.480281   320A      3.488952  
     321A      3.492571   322A      3.506023   323A      3.513610  
     324A      3.518195   325A      3.536637   326A      3.545011  
     327A      3.549873   328A      3.561449   329A      3.570333  
     330A      3.596991   331A      3.598769   332A      3.602835  
     333A      3.611162   334A      3.612386   335A      3.646534  
     336A      3.651516   337A      3.660696   338A      3.670077  
     339A      3.676461   340A      3.719683   341A      3.720227  
     342A      3.774580   343A      3.776340   344A      3.781581  
     345A      3.783981   346A      3.787299   347A      3.810391  
     348A      3.812382   349A      3.827189   350A      3.831957  
     351A      3.842086   352A      3.863160   353A      3.875575  
     354A      3.877377   355A      3.877574   356A      3.882346  
     357A      3.888729   358A      3.902265   359A      3.902922  
     360A      3.911102   361A      3.944424   362A      3.967651  
     363A      3.975271   364A      3.983837   365A      3.998408  
     366A      4.029001   367A      4.029972   368A      4.046068  
     369A      4.064693   370A      4.065443   371A      4.077068  
     372A      4.117941   373A      4.140462   374A      4.145164  
     375A      4.176764   376A      4.181272   377A      4.211547  
     378A      4.212206   379A      4.215184   380A      4.236815  
     381A      4.249770   382A      4.276031   383A      4.293061  
     384A      4.308852   385A      4.322952   386A      4.333160  
     387A      4.340152   388A      4.353006   389A      4.359325  
     390A      4.378702   391A      4.405309   392A      4.411798  
     393A      4.416537   394A      4.428468   395A      4.441347  
     396A      4.458350   397A      4.462841   398A      4.476871  
     399A      4.489736   400A      4.501236   401A      4.502542  
     402A      4.522794   403A      4.536199   404A      4.544599  
     405A      4.557398   406A      4.563167   407A      4.563899  
     408A      4.572106   409A      4.579313   410A      4.602607  
     411A      4.616678   412A      4.634122   413A      4.635308  
     414A      4.665943   415A      4.667513   416A      4.677942  
     417A      4.695970   418A      4.696687   419A      4.706641  
     420A      4.709913   421A      4.712044   422A      4.718116  
     423A      4.722906   424A      4.741125   425A      4.753403  
     426A      4.755530   427A      4.773766   428A      4.784964  
     429A      4.797479   430A      4.804330   431A      4.805145  
     432A      4.829835   433A      4.839577   434A      4.864372  
     435A      4.865882   436A      4.875995   437A      4.877272  
     438A      4.902966   439A      4.911878   440A      4.914610  
     441A      4.928892   442A      4.936344   443A      4.952911  
     444A      4.957705   445A      4.965105   446A      4.992428  
     447A      5.000777   448A      5.011930   449A      5.021829  
     450A      5.032318   451A      5.043279   452A      5.076553  
     453A      5.091659   454A      5.112500   455A      5.113872  
     456A      5.132197   457A      5.132830   458A      5.178043  
     459A      5.191292   460A      5.213738   461A      5.229166  
     462A      5.256433   463A      5.271866   464A      5.280734  
     465A      5.306119   466A      5.313341   467A      5.342709  
     468A      5.343649   469A      5.369211   470A      5.384940  
     471A      5.439022   472A      5.454889   473A      5.460007  
     474A      5.489739   475A      5.516261   476A      5.579545  
     477A      5.608786   478A      5.615269   479A      5.616979  
     480A      5.643350   481A      5.647876   482A      5.649719  
     483A      5.666503   484A      5.697031   485A      5.718731  
     486A      5.737373   487A      5.738123   488A      5.802957  
     489A      5.805137   490A      5.811069   491A      5.824804  
     492A      5.875589   493A      5.885473   494A      5.888620  
     495A      5.890552   496A      5.904046   497A      5.976347  
     498A      6.021851   499A      6.029045   500A      6.032679  
     501A      6.052068   502A      6.065581   503A      6.129016  
     504A      6.142793   505A      6.175747   506A      6.188641  
     507A      6.238225   508A      6.284579   509A      6.304265  
     510A      6.347173   511A      6.391650   512A      6.434351  
     513A      6.443331   514A      6.469951   515A      6.474875  
     516A      6.487500   517A      6.500768   518A      6.502515  
     519A      6.555944   520A      6.593480   521A      6.596581  
     522A      6.649897   523A      6.723325   524A      6.758528  
     525A      6.765155   526A      6.789353   527A      6.940992  
     528A      6.951723   529A      6.973791   530A      6.989722  
     531A      7.006134   532A      7.010892   533A      7.100852  
     534A      7.181281   535A      7.270501   536A      7.310047  
     537A      7.312593   538A      7.379544   539A      7.387135  
     540A      7.404833   541A      7.434821   542A      7.447812  
     543A      7.548963   544A      7.549605   545A      7.658334  
     546A      7.680350   547A      7.684208   548A      7.686781  
     549A      7.697702   550A      7.772000   551A      7.779979  
     552A      7.820082   553A      7.873899   554A      7.877512  
     555A      7.886402   556A      7.994498   557A      8.086021  
     558A      8.135699   559A      8.288070   560A      8.313472  
     561A      8.398735   562A      8.518319   563A      8.679550  
     564A      9.411958   565A      9.485357   566A      9.669851  
     567A      9.750201   568A      9.794265   569A      9.872643  
     570A      9.874141   571A      9.975775   572A     10.259940  
     573A     10.989631   574A     11.562964   575A     11.984333  
     576A     12.210796   577A     13.679829   578A     13.924959  
     579A     14.125317   580A     14.496887   581A     14.737924  
     582A     44.006671   583A     44.428503   584A     45.566161  
     585A     45.841705   586A     60.762053  

    Final Occupation by Irrep:
              A 
    DOCC [    20 ]

  @DF-RHF Final Energy:  -266.95139532576201

   => Energetics <=

    Nuclear Repulsion Energy =            178.6436619017355554
    One-Electron Energy =                -718.4564191290481858
    Two-Electron Energy =                 272.8613619015506515
    Total Energy =                       -266.9513953257620074

Computation Completed


Properties will be evaluated at   0.000000,   0.000000,   0.000000 [a0]

Properties computed using the SCF density matrix

  Nuclear Dipole Moment: [e a0]
     X:  -216.9595      Y:     1.8012      Z:     0.0014

  Electronic Dipole Moment: [e a0]
     X:   216.6105      Y:    -1.1109      Z:    -0.0013

  Dipole Moment: [e a0]
     X:    -0.3491      Y:     0.6902      Z:     0.0001     Total:     0.7735

  Dipole Moment: [D]
     X:    -0.8872      Y:     1.7543      Z:     0.0001     Total:     1.9659


*** tstop() called on r282 at Fri Sep 10 13:45:13 2021
Module time:
	user time   =      69.22 seconds =       1.15 minutes
	system time =       1.00 seconds =       0.02 minutes
	total time  =         70 seconds =       1.17 minutes
Total time:
	user time   =     181.45 seconds =       3.02 minutes
	system time =       3.12 seconds =       0.05 minutes
	total time  =        185 seconds =       3.08 minutes

  //>>>>>>>>>>>>>>>>>>>>>>>>>>>>>>>>>>>//
  //            Monomer B HF           //
  //<<<<<<<<<<<<<<<<<<<<<<<<<<<<<<<<<<<//


*** tstart() called on r282
*** at Fri Sep 10 13:45:13 2021

   => Loading Basis Set <=

    Name: JUN-CC-PVTZ
    Role: ORBITAL
    Keyword: BASIS
    atoms 1-3, 13-14, 17, 21     entry C          line   217 file /home/r08543048/miniconda3/share/psi4/basis/jun-cc-pvtz.gbs 
    atoms 4-5, 15                entry O          line   305 file /home/r08543048/miniconda3/share/psi4/basis/jun-cc-pvtz.gbs 
    atoms 6-12, 16, 18-20, 22-24 entry H          line    36 file /home/r08543048/miniconda3/share/psi4/basis/jun-cc-pvtz.gbs 


         ---------------------------------------------------------
                                   SCF
               by Justin Turney, Rob Parrish, Andy Simmonett
                          and Daniel G. A. Smith
                              RHF Reference
                        1 Threads,  20980 MiB Core
         ---------------------------------------------------------

  ==> Geometry <==

    Molecular point group: c1
    Full point group: C1

    Geometry (in Angstrom), charge = 0, multiplicity = 1:

       Center              X                  Y                   Z               Mass       
    ------------   -----------------  -----------------  -----------------  -----------------
      Gh(C)          -4.582438263670    -0.917187089923     0.000118519830    12.000000000000
      Gh(C)          -3.810596263670     0.390046910077     0.000085519830    12.000000000000
      Gh(C)          -2.318858263670     0.185962910077    -0.000045480170    12.000000000000
      Gh(O)          -1.769177263670    -0.901272089923    -0.000116480170    15.994914619570
      Gh(O)          -1.657935263670     1.350049910077     0.000019519830    15.994914619570
      Gh(H)          -4.336192263670    -1.511181089923     0.877745519830     1.007825032230
      Gh(H)          -5.654124263670    -0.725687089923     0.000191519830     1.007825032230
      Gh(H)          -4.336306263670    -1.511154089923    -0.877559480170     1.007825032230
      Gh(H)          -4.053368263670     1.001841910077     0.870523519830     1.007825032230
      Gh(H)          -4.053501263670     1.001868910077    -0.870297480170     1.007825032230
      Gh(H)          -0.688284263670     1.154282910077    -0.000039480170     1.007825032230
         H            0.595723736330    -1.118400089923    -0.000070480170     1.007825032230
         C            2.800122736330    -0.799461089923    -0.000025480170    12.000000000000
         C            1.376311736330    -0.343645089923    -0.000160480170    12.000000000000
         O            1.048525736330     0.836104910077    -0.000083480170    15.994914619570
         H            2.922944736330    -1.456827089923    -0.868628480170     1.007825032230
         C            3.827158736330     0.318713910077     0.000025519830    12.000000000000
         H            3.664081736330     0.953183910077    -0.871999480170     1.007825032230
         H            3.663942736330     0.953232910077     0.871990519830     1.007825032230
         H            2.922824736330    -1.456788089923     0.868627519830     1.007825032230
         C            5.249539736330    -0.226162089923     0.000154519830    12.000000000000
         H            5.431404736330    -0.842858089923     0.881067519830     1.007825032230
         H            5.431546736330    -0.842907089923    -0.880695480170     1.007825032230
         H            5.981094736330     0.580480910077     0.000190519830     1.007825032230

  Running in c1 symmetry.

  Rotational constants: A =      0.16540  B =      0.01141  C =      0.01078 [cm^-1]
  Rotational constants: A =   4958.58514  B =    342.11567  C =    323.18561 [MHz]
  Nuclear repulsion =  172.504439013183003

  Charge       = 0
  Multiplicity = 1
  Electrons    = 40
  Nalpha       = 20
  Nbeta        = 20

  ==> Algorithm <==

  SCF Algorithm Type is DF.
  DIIS enabled.
  MOM disabled.
  Fractional occupation disabled.
  Guess Type is SAD.
  Energy threshold   = 1.00e-08
  Density threshold  = 1.00e-08
  Integral threshold = 0.00e+00

  ==> Primary Basis <==

  Basis Set: JUN-CC-PVTZ
    Blend: JUN-CC-PVTZ
    Number of shells: 214
    Number of basis function: 586
    Number of Cartesian functions: 660
    Spherical Harmonics?: true
    Max angular momentum: 3

   => Loading Basis Set <=

    Name: (JUN-CC-PVTZ AUX)
    Role: JKFIT
    Keyword: DF_BASIS_SCF
    atoms 1-3, 13-14, 17, 21     entry C          line   152 file /home/r08543048/miniconda3/share/psi4/basis/jun-cc-pvtz-jkfit.gbs 
    atoms 4-5, 15                entry O          line   272 file /home/r08543048/miniconda3/share/psi4/basis/jun-cc-pvtz-jkfit.gbs 
    atoms 6-12, 16, 18-20, 22-24 entry H          line    70 file /home/r08543048/miniconda3/share/psi4/basis/jun-cc-pvtz-jkfit.gbs 

  ==> Pre-Iterations <==

   -------------------------------------------------------
    Irrep   Nso     Nmo     Nalpha   Nbeta   Ndocc  Nsocc
   -------------------------------------------------------
     A        586     586       0       0       0       0
   -------------------------------------------------------
    Total     586     586      20      20      20       0
   -------------------------------------------------------

  ==> Integral Setup <==

  ==> DiskDFJK: Density-Fitted J/K Matrices <==

    J tasked:                  Yes
    K tasked:                  Yes
    wK tasked:                  No
    OpenMP threads:              1
    Integrals threads:           1
    Memory [MiB]:            15735
    Algorithm:                Core
    Integral Cache:           LOAD
    Schwarz Cutoff:          1E-12
    Fitting Condition:       1E-10

   => Auxiliary Basis Set <=

  Basis Set: (JUN-CC-PVTZ AUX)
    Blend: JUN-CC-PVTZ-JKFIT
    Number of shells: 430
    Number of basis function: 1370
    Number of Cartesian functions: 1650
    Spherical Harmonics?: true
    Max angular momentum: 4

  Minimum eigenvalue in the overlap matrix is 2.3373789710E-05.
  Using Symmetric Orthogonalization.

  SCF Guess: Superposition of Atomic Densities via on-the-fly atomic UHF.

  ==> Iterations <==

                           Total Energy        Delta E     RMS |[F,P]|

   @DF-RHF iter SAD:  -230.23942304095672   -2.30239e+02   0.00000e+00 
   @DF-RHF iter   1:  -230.85951860385305   -6.20096e-01   1.05434e-03 DIIS
   @DF-RHF iter   2:  -231.01131251320854   -1.51794e-01   6.52934e-04 DIIS
   @DF-RHF iter   3:  -231.06677669521048   -5.54642e-02   1.28702e-04 DIIS
   @DF-RHF iter   4:  -231.07027580956350   -3.49911e-03   5.49442e-05 DIIS
   @DF-RHF iter   5:  -231.07094797099222   -6.72161e-04   9.61345e-06 DIIS
   @DF-RHF iter   6:  -231.07098890483681   -4.09338e-05   4.00592e-06 DIIS
   @DF-RHF iter   7:  -231.07099544452089   -6.53968e-06   1.77771e-06 DIIS
   @DF-RHF iter   8:  -231.07099685036729   -1.40585e-06   5.86221e-07 DIIS
   @DF-RHF iter   9:  -231.07099704317721   -1.92810e-07   1.08159e-07 DIIS
   @DF-RHF iter  10:  -231.07099704937733   -6.20011e-09   2.83525e-08 DIIS
   @DF-RHF iter  11:  -231.07099704964841   -2.71086e-10   8.04783e-09 DIIS
  Energy and wave function converged.


  ==> Post-Iterations <==

    Orbital Energies [Eh]
    ---------------------

    Doubly Occupied:                                                      

       1A    -20.555720     2A    -11.332290     3A    -11.242322  
       4A    -11.225912     5A    -11.218425     6A     -1.382090  
       7A     -1.083959     8A     -0.978871     9A     -0.849907  
      10A     -0.771990    11A     -0.674191    12A     -0.651010  
      13A     -0.630854    14A     -0.569353    15A     -0.568348  
      16A     -0.512326    17A     -0.499011    18A     -0.492135  
      19A     -0.479859    20A     -0.422655  

    Virtual:                                                              

      21A      0.034023    22A      0.044324    23A      0.051792  
      24A      0.058149    25A      0.062413    26A      0.063864  
      27A      0.072751    28A      0.075504    29A      0.090494  
      30A      0.092304    31A      0.100666    32A      0.101411  
      33A      0.104545    34A      0.108851    35A      0.109535  
      36A      0.114802    37A      0.122161    38A      0.130725  
      39A      0.135112    40A      0.147325    41A      0.155679  
      42A      0.164604    43A      0.171679    44A      0.175734  
      45A      0.181059    46A      0.181374    47A      0.189144  
      48A      0.197507    49A      0.206590    50A      0.214058  
      51A      0.214665    52A      0.224923    53A      0.233277  
      54A      0.237479    55A      0.244878    56A      0.248401  
      57A      0.257674    58A      0.258019    59A      0.262271  
      60A      0.269877    61A      0.279593    62A      0.282509  
      63A      0.290147    64A      0.296169    65A      0.299710  
      66A      0.309075    67A      0.314151    68A      0.315639  
      69A      0.322612    70A      0.329889    71A      0.335962  
      72A      0.345407    73A      0.352062    74A      0.357188  
      75A      0.361937    76A      0.363629    77A      0.368964  
      78A      0.379183    79A      0.380828    80A      0.385375  
      81A      0.390264    82A      0.399812    83A      0.399844  
      84A      0.414435    85A      0.418536    86A      0.419911  
      87A      0.434259    88A      0.436030    89A      0.436810  
      90A      0.445505    91A      0.453836    92A      0.465644  
      93A      0.466162    94A      0.480460    95A      0.488744  
      96A      0.489881    97A      0.503343    98A      0.510847  
      99A      0.511252   100A      0.521067   101A      0.524211  
     102A      0.526099   103A      0.531357   104A      0.540868  
     105A      0.542994   106A      0.546292   107A      0.550120  
     108A      0.558590   109A      0.561788   110A      0.566628  
     111A      0.572884   112A      0.580704   113A      0.595211  
     114A      0.620210   115A      0.621116   116A      0.628831  
     117A      0.644206   118A      0.657977   119A      0.659837  
     120A      0.671326   121A      0.678509   122A      0.691339  
     123A      0.692645   124A      0.697303   125A      0.712527  
     126A      0.730642   127A      0.739223   128A      0.748525  
     129A      0.759024   130A      0.770082   131A      0.781795  
     132A      0.787845   133A      0.792570   134A      0.798669  
     135A      0.800430   136A      0.807256   137A      0.815441  
     138A      0.829855   139A      0.833410   140A      0.846782  
     141A      0.850872   142A      0.851985   143A      0.860448  
     144A      0.881192   145A      0.881707   146A      0.894395  
     147A      0.904487   148A      0.905637   149A      0.914969  
     150A      0.929208   151A      0.931572   152A      0.948903  
     153A      0.951597   154A      0.961147   155A      0.974328  
     156A      0.987673   157A      0.994124   158A      1.001679  
     159A      1.010269   160A      1.023802   161A      1.026827  
     162A      1.045639   163A      1.046638   164A      1.068792  
     165A      1.072797   166A      1.074881   167A      1.081085  
     168A      1.083850   169A      1.092683   170A      1.101444  
     171A      1.110323   172A      1.121472   173A      1.157570  
     174A      1.164288   175A      1.168465   176A      1.173717  
     177A      1.179373   178A      1.182805   179A      1.205650  
     180A      1.216737   181A      1.221221   182A      1.227340  
     183A      1.242739   184A      1.253331   185A      1.254130  
     186A      1.267254   187A      1.267548   188A      1.271159  
     189A      1.273466   190A      1.292362   191A      1.302675  
     192A      1.321712   193A      1.324986   194A      1.329804  
     195A      1.340815   196A      1.345883   197A      1.347734  
     198A      1.363995   199A      1.368352   200A      1.389851  
     201A      1.400327   202A      1.411547   203A      1.416397  
     204A      1.420167   205A      1.445659   206A      1.445947  
     207A      1.468106   208A      1.468993   209A      1.477900  
     210A      1.483373   211A      1.496246   212A      1.505595  
     213A      1.518921   214A      1.527847   215A      1.530738  
     216A      1.553185   217A      1.573630   218A      1.587251  
     219A      1.588494   220A      1.588573   221A      1.604791  
     222A      1.606911   223A      1.611698   224A      1.619390  
     225A      1.624950   226A      1.643291   227A      1.654839  
     228A      1.673874   229A      1.689093   230A      1.695989  
     231A      1.706997   232A      1.709722   233A      1.715937  
     234A      1.742934   235A      1.762159   236A      1.765670  
     237A      1.781534   238A      1.793860   239A      1.800683  
     240A      1.811371   241A      1.824609   242A      1.852049  
     243A      1.866050   244A      1.882138   245A      1.907249  
     246A      1.911507   247A      1.924624   248A      1.938651  
     249A      1.940345   250A      1.957786   251A      1.966034  
     252A      1.971850   253A      1.996694   254A      1.999561  
     255A      2.012647   256A      2.044850   257A      2.071760  
     258A      2.089306   259A      2.142127   260A      2.162354  
     261A      2.169756   262A      2.176938   263A      2.220629  
     264A      2.260330   265A      2.326022   266A      2.351563  
     267A      2.364762   268A      2.371946   269A      2.406013  
     270A      2.413878   271A      2.457342   272A      2.540736  
     273A      2.541022   274A      2.570962   275A      2.594283  
     276A      2.632435   277A      2.642427   278A      2.648269  
     279A      2.672361   280A      2.732262   281A      2.735853  
     282A      2.767370   283A      2.787247   284A      2.791173  
     285A      2.802571   286A      2.804447   287A      2.845319  
     288A      2.856142   289A      2.894709   290A      2.904402  
     291A      2.906645   292A      2.909970   293A      2.931270  
     294A      2.950709   295A      2.999091   296A      3.000963  
     297A      3.009582   298A      3.025944   299A      3.054878  
     300A      3.063300   301A      3.070827   302A      3.096076  
     303A      3.097357   304A      3.109583   305A      3.128407  
     306A      3.128750   307A      3.142740   308A      3.148484  
     309A      3.149883   310A      3.186106   311A      3.216137  
     312A      3.247425   313A      3.271451   314A      3.287260  
     315A      3.302345   316A      3.327184   317A      3.337392  
     318A      3.366914   319A      3.373413   320A      3.386130  
     321A      3.433499   322A      3.437256   323A      3.439503  
     324A      3.445814   325A      3.465248   326A      3.477511  
     327A      3.479281   328A      3.495948   329A      3.502225  
     330A      3.519232   331A      3.534810   332A      3.545111  
     333A      3.554990   334A      3.557614   335A      3.566986  
     336A      3.574792   337A      3.593941   338A      3.596594  
     339A      3.603274   340A      3.609514   341A      3.616536  
     342A      3.621795   343A      3.635688   344A      3.649087  
     345A      3.698335   346A      3.701062   347A      3.716509  
     348A      3.731390   349A      3.733073   350A      3.741872  
     351A      3.764975   352A      3.778871   353A      3.782906  
     354A      3.802033   355A      3.804807   356A      3.823247  
     357A      3.833084   358A      3.847900   359A      3.856747  
     360A      3.862082   361A      3.878423   362A      3.887971  
     363A      3.909279   364A      3.914718   365A      3.920330  
     366A      3.927425   367A      3.940115   368A      3.955708  
     369A      3.988858   370A      3.994614   371A      4.003505  
     372A      4.015239   373A      4.033130   374A      4.054261  
     375A      4.061761   376A      4.099487   377A      4.116123  
     378A      4.121570   379A      4.146333   380A      4.167590  
     381A      4.186438   382A      4.186887   383A      4.188921  
     384A      4.216790   385A      4.234124   386A      4.243615  
     387A      4.262993   388A      4.281143   389A      4.287236  
     390A      4.303088   391A      4.307158   392A      4.326833  
     393A      4.327830   394A      4.335914   395A      4.341609  
     396A      4.346231   397A      4.362207   398A      4.396179  
     399A      4.408710   400A      4.418041   401A      4.420949  
     402A      4.425328   403A      4.466176   404A      4.473726  
     405A      4.483135   406A      4.490109   407A      4.491834  
     408A      4.506441   409A      4.510300   410A      4.533949  
     411A      4.542854   412A      4.556851   413A      4.592252  
     414A      4.606695   415A      4.609840   416A      4.626688  
     417A      4.644892   418A      4.658326   419A      4.667291  
     420A      4.672692   421A      4.689794   422A      4.690280  
     423A      4.696484   424A      4.696649   425A      4.741051  
     426A      4.743979   427A      4.747853   428A      4.770922  
     429A      4.777447   430A      4.804670   431A      4.814675  
     432A      4.819870   433A      4.821129   434A      4.822918  
     435A      4.836625   436A      4.839697   437A      4.861668  
     438A      4.867304   439A      4.872282   440A      4.906626  
     441A      4.915251   442A      4.924374   443A      4.941382  
     444A      4.957845   445A      4.966001   446A      4.983084  
     447A      4.985020   448A      4.992908   449A      4.996585  
     450A      5.019058   451A      5.027727   452A      5.052020  
     453A      5.060364   454A      5.062001   455A      5.078319  
     456A      5.091080   457A      5.113658   458A      5.120729  
     459A      5.141690   460A      5.144169   461A      5.156615  
     462A      5.170862   463A      5.189684   464A      5.273181  
     465A      5.275881   466A      5.276610   467A      5.285321  
     468A      5.295742   469A      5.312101   470A      5.323955  
     471A      5.362158   472A      5.362420   473A      5.403335  
     474A      5.412351   475A      5.438553   476A      5.453807  
     477A      5.497626   478A      5.543225   479A      5.556237  
     480A      5.563504   481A      5.575634   482A      5.581996  
     483A      5.614789   484A      5.634742   485A      5.671809  
     486A      5.696535   487A      5.735082   488A      5.745200  
     489A      5.755501   490A      5.756155   491A      5.759192  
     492A      5.775783   493A      5.805331   494A      5.829994  
     495A      5.861728   496A      5.882486   497A      5.897009  
     498A      5.923306   499A      5.936251   500A      5.946405  
     501A      5.979815   502A      6.006207   503A      6.093454  
     504A      6.114433   505A      6.119010   506A      6.173183  
     507A      6.201262   508A      6.201695   509A      6.261783  
     510A      6.309968   511A      6.368580   512A      6.404242  
     513A      6.440500   514A      6.445661   515A      6.464130  
     516A      6.496763   517A      6.519887   518A      6.527031  
     519A      6.538905   520A      6.563846   521A      6.575688  
     522A      6.591349   523A      6.653177   524A      6.770434  
     525A      6.828065   526A      6.830303   527A      6.901958  
     528A      6.989322   529A      7.044991   530A      7.157738  
     531A      7.205790   532A      7.239409   533A      7.265464  
     534A      7.286577   535A      7.418628   536A      7.428153  
     537A      7.477196   538A      7.528958   539A      7.545212  
     540A      7.608622   541A      7.695670   542A      7.696193  
     543A      7.763888   544A      7.803317   545A      7.807503  
     546A      7.859353   547A      7.870680   548A      7.957416  
     549A      7.991062   550A      8.063204   551A      8.189709  
     552A      8.259328   553A      8.533974   554A      8.677078  
     555A      8.894178   556A      9.172002   557A      9.449685  
     558A      9.686664   559A      9.746735   560A      9.793493  
     561A      9.872389   562A      9.910372   563A      9.925693  
     564A      9.967141   565A      9.993536   566A     10.138429  
     567A     10.405178   568A     10.515917   569A     11.084266  
     570A     11.418092   571A     11.582569   572A     11.636839  
     573A     12.036218   574A     12.573827   575A     13.154787  
     576A     13.791502   577A     13.906297   578A     14.029045  
     579A     14.415398   580A     14.465499   581A     14.538890  
     582A     43.045816   583A     45.078737   584A     45.819519  
     585A     61.165042   586A     62.031508  

    Final Occupation by Irrep:
              A 
    DOCC [    20 ]

  @DF-RHF Final Energy:  -231.07099704964841

   => Energetics <=

    Nuclear Repulsion Energy =            172.5044390131830028
    One-Electron Energy =                -654.8684027967965449
    Two-Electron Energy =                 251.2929667339651303
    Total Energy =                       -231.0709970496484118

Computation Completed


Properties will be evaluated at   0.000000,   0.000000,   0.000000 [a0]

Properties computed using the SCF density matrix

  Nuclear Dipole Moment: [e a0]
     X:   223.9714      Y:    -5.3770      Z:    -0.0004

  Electronic Dipole Moment: [e a0]
     X:  -223.3979      Y:     4.2872      Z:     0.0004

  Dipole Moment: [e a0]
     X:     0.5735      Y:    -1.0898      Z:    -0.0000     Total:     1.2315

  Dipole Moment: [D]
     X:     1.4578      Y:    -2.7700      Z:    -0.0000     Total:     3.1302


*** tstop() called on r282 at Fri Sep 10 13:46:18 2021
Module time:
	user time   =      63.90 seconds =       1.07 minutes
	system time =       0.96 seconds =       0.02 minutes
	total time  =         65 seconds =       1.08 minutes
Total time:
	user time   =     245.35 seconds =       4.09 minutes
	system time =       4.08 seconds =       0.07 minutes
	total time  =        250 seconds =       4.17 minutes
  Constructing Basis Sets for SAPT...

   => Loading Basis Set <=

    Name: (JUN-CC-PVTZ AUX)
    Role: RIFIT
    Keyword: DF_BASIS_SAPT
    atoms 1-3, 13-14, 17, 21     entry C          line   132 file /home/r08543048/miniconda3/share/psi4/basis/jun-cc-pvtz-ri.gbs 
    atoms 4-5, 15                entry O          line   244 file /home/r08543048/miniconda3/share/psi4/basis/jun-cc-pvtz-ri.gbs 
    atoms 6-12, 16, 18-20, 22-24 entry H          line    30 file /home/r08543048/miniconda3/share/psi4/basis/jun-cc-pvtz-ri.gbs 


  //>>>>>>>>>>>>>>>>>>>>>>>>>>>>>>>>>>>//
  //               SAPT0               //
  //<<<<<<<<<<<<<<<<<<<<<<<<<<<<<<<<<<<//


*** tstart() called on r282
*** at Fri Sep 10 13:46:18 2021

        SAPT0  
    Ed Hohenstein
     6 June 2009

      Orbital Information
  --------------------------
    NSO        =       586
    NMO        =       586
    NRI        =      1390
    NOCC A     =        20
    NOCC B     =        20
    FOCC A     =         0
    FOCC B     =         0
    NVIR A     =       566
    NVIR B     =       566

    Elst10,r            =    -0.027274628445 [Eh]
    Exch10              =     0.025053795187 [Eh]
    Exch10 (S^2)        =     0.024816098290 [Eh]

    Iter     Energy [mEh]          dE [mEh]         Residual      Time [s]
       1      -3.89167728       3.891677278      10.035125244             2
       2      -4.50370593       0.612028651       4.975523887             3
       3      -4.65101918       0.147313253       1.405044706             5
       4      -4.62587095      -0.025148233       0.575294453             6
       5      -4.61915239      -0.006718560       0.175718126             8
       6      -4.62171396       0.002561571       0.080083760            10
       7      -4.62264868       0.000934724       0.021403357            11
       8      -4.62238552      -0.000263167       0.007210358            13
       9      -4.62229940      -0.000086117       0.001721807            15
      10      -4.62232441       0.000025009       0.000430270            16
      11      -4.62232397      -0.000000442       0.000093543            18
      12      -4.62232316      -0.000000804       0.000028253            20
      13      -4.62232311      -0.000000057       0.000006921            21
      14      -4.62232318       0.000000070       0.000001420            23
      15      -4.62232317      -0.000000007       0.000000350            25

    CHF Iterations converged


    Iter     Energy [mEh]          dE [mEh]         Residual      Time [s]
       1      -7.08705372       7.087053715      21.220434002             1
       2      -8.26864384       1.181590124      11.885982847             3
       3      -9.22110111       0.952457268       2.738020261             5
       4      -9.15180076      -0.069300345       1.107598618             6
       5      -9.13846366      -0.013337098       0.349706315             8
       6      -9.14674095       0.008277282       0.120065653             9
       7      -9.14748042       0.000739472       0.024681666            11
       8      -9.14703212      -0.000448299       0.007888549            13
       9      -9.14697310      -0.000059021       0.001835103            14
      10      -9.14700963       0.000036529       0.000370217            16
      11      -9.14700757      -0.000002054       0.000079111            18
      12      -9.14700680      -0.000000772       0.000018640            19
      13      -9.14700693       0.000000127       0.000005671            21
      14      -9.14700698       0.000000052       0.000001377            23
      15      -9.14700697      -0.000000010       0.000000281            24

    CHF Iterations converged

    Ind20,r (A<-B)      =    -0.004622323169 [Eh]
    Ind20,r (B<-A)      =    -0.009147006969 [Eh]
    Ind20,r             =    -0.013769330137 [Eh]
    Exch-Ind20,r (A<-B) =     0.003313935237 [Eh]
    Exch-Ind20,r (B<-A) =     0.003962405921 [Eh]
    Exch-Ind20,r        =     0.007276341158 [Eh]
    Disp20              =    -0.009973265643 [Eh]
    Disp20 (SS)         =    -0.004986632821 [Eh]
    Disp20 (OS)         =    -0.004986632821 [Eh]
    Exch-Disp20         =     0.001756699313 [Eh]
    Exch-Disp20 (SS)    =     0.001096870927 [Eh]
    Exch-Disp20 (OS)    =     0.000659828386 [Eh]

    SAPT Results 
  --------------------------------------------------------------------------------------------------------
    Electrostatics                -27.27462844 [mEh]     -17.11508774 [kcal/mol]     -71.60952712 [kJ/mol]
      Elst10,r                    -27.27462844 [mEh]     -17.11508774 [kcal/mol]     -71.60952712 [kJ/mol]

    Exchange                       25.05379519 [mEh]      15.72149383 [kcal/mol]      65.77873020 [kJ/mol]
      Exch10                       25.05379519 [mEh]      15.72149383 [kcal/mol]      65.77873020 [kJ/mol]
      Exch10(S^2)                  24.81609829 [mEh]      15.57233678 [kcal/mol]      65.15465708 [kJ/mol]

    Induction                     -10.99854573 [mEh]      -6.90169165 [kcal/mol]     -28.87667784 [kJ/mol]
      Ind20,r                     -13.76933014 [mEh]      -8.64038511 [kcal/mol]     -36.15137130 [kJ/mol]
      Exch-Ind20,r                  7.27634116 [mEh]       4.56597301 [kcal/mol]      19.10403108 [kJ/mol]
      delta HF,r (2)               -4.50555675 [mEh]      -2.82727955 [kcal/mol]     -11.82933763 [kJ/mol]

    Dispersion                     -8.21656633 [mEh]      -5.15597321 [kcal/mol]     -21.57259193 [kJ/mol]
      Disp20                       -9.97326564 [mEh]      -6.25831868 [kcal/mol]     -26.18480534 [kJ/mol]
      Exch-Disp20                   1.75669931 [mEh]       1.10234546 [kcal/mol]       4.61221341 [kJ/mol]
      Disp20 (SS)                  -4.98663282 [mEh]      -3.12915934 [kcal/mol]     -13.09240267 [kJ/mol]
      Disp20 (OS)                  -4.98663282 [mEh]      -3.12915934 [kcal/mol]     -13.09240267 [kJ/mol]
      Exch-Disp20 (SS)              1.09687093 [mEh]       0.68829690 [kcal/mol]       2.87983422 [kJ/mol]
      Exch-Disp20 (OS)              0.65982839 [mEh]       0.41404856 [kcal/mol]       1.73237919 [kJ/mol]

  Total HF                        -13.21937899 [mEh]      -8.29528555 [kcal/mol]     -34.70747476 [kJ/mol]
  Total SAPT0                     -21.43594532 [mEh]     -13.45125877 [kcal/mol]     -56.28006669 [kJ/mol]

  Special recipe for scaled SAPT0 (see Manual):
    Electrostatics sSAPT0         -27.27462844 [mEh]     -17.11508774 [kcal/mol]     -71.60952712 [kJ/mol]
    Exchange sSAPT0                25.05379519 [mEh]      15.72149383 [kcal/mol]      65.77873020 [kJ/mol]
    Induction sSAPT0              -10.78745095 [mEh]      -6.76922767 [kcal/mol]     -28.32244857 [kJ/mol]
    Dispersion sSAPT0              -8.16560252 [mEh]      -5.12399294 [kcal/mol]     -21.43878647 [kJ/mol]
  Total sSAPT0                    -21.17388673 [mEh]     -13.28681452 [kcal/mol]     -55.59203195 [kJ/mol]
  --------------------------------------------------------------------------------------------------------

*** tstop() called on r282 at Fri Sep 10 13:50:04 2021
Module time:
	user time   =     195.99 seconds =       3.27 minutes
	system time =      29.36 seconds =       0.49 minutes
	total time  =        226 seconds =       3.77 minutes
Total time:
	user time   =     441.50 seconds =       7.36 minutes
	system time =      33.44 seconds =       0.56 minutes
	total time  =        476 seconds =       7.93 minutes

    Psi4 stopped on: Friday, 10 September 2021 01:50PM
    Psi4 wall time for execution: 0:07:55.51

*** Psi4 exiting successfully. Buy a developer a beer!
