
    -----------------------------------------------------------------------
          Psi4: An Open-Source Ab Initio Electronic Structure Package
                               Psi4 1.3.2 release

                         Git: Rev {HEAD} ecbda83 


    R. M. Parrish, L. A. Burns, D. G. A. Smith, A. C. Simmonett,
    A. E. DePrince III, E. G. Hohenstein, U. Bozkaya, A. Yu. Sokolov,
    R. Di Remigio, R. M. Richard, J. F. Gonthier, A. M. James,
    H. R. McAlexander, A. Kumar, M. Saitow, X. Wang, B. P. Pritchard,
    P. Verma, H. F. Schaefer III, K. Patkowski, R. A. King, E. F. Valeev,
    F. A. Evangelista, J. M. Turney, T. D. Crawford, and C. D. Sherrill,
    J. Chem. Theory Comput. 13(7) pp 3185--3197 (2017).
    (doi: 10.1021/acs.jctc.7b00174)


                         Additional Contributions by
    P. Kraus, H. Kruse, M. H. Lechner, M. C. Schieber, R. A. Shaw,
    A. Alenaizan, R. Galvelis, Z. L. Glick, S. Lehtola, and J. P. Misiewicz

    -----------------------------------------------------------------------


    Psi4 started on: Friday, 10 September 2021 01:31PM

    Process ID: 56690
    Host:       r282
    PSIDATADIR: /home/r08543048/miniconda3/share/psi4
    Memory:     500.0 MiB
    Threads:    1
    
  ==> Input File <==

--------------------------------------------------------------------------
# Any line starting with the # character is a comment line
#! Sample  computation

memory 22 gb

molecule Dimer {
0 1
 C  -2.889737    0.112893   -0.000089
 O  -2.264568    1.158255   -0.000291
 O  -2.312261   -1.094757    0.000108
 H  -1.331169   -0.966834    0.000115
 C  -4.386921    0.013869   -0.000037
 H  -4.820172    1.007501   -0.000780
 H  -4.713678   -0.541146   -0.877301
 H  -4.713631   -0.539739    0.878141
 
 
 

    
 --
0 1
 H 0.110619    1.209243   -0.000079
 C 2.286278    0.732410   -0.000027
 C 0.833385    0.380343   -0.000011
 O 0.421498   -0.772799    0.000124
 H 2.455903    1.379316    0.868553
 C 3.230194   -0.456764    0.000099
 H 3.021818   -1.077787    0.872171
 H 3.021837   -1.077956   -0.871858
 H 2.455916    1.379142   -0.868734
 C 4.688078   -0.015633    0.000072
 H 4.913928    0.586317   -0.880867
 H 4.913909    0.586486    0.880901
 H 5.359701   -0.872830    0.000161


 
 







units angstrom

no_reorient
symmetry c1
}

set globals{
  basis jun-cc-pvtz
}

energy('sapt0')


--------------------------------------------------------------------------

  Memory set to  20.489 GiB by Python driver.

  //>>>>>>>>>>>>>>>>>>>>>>>>>>>>>>>>>>>//
  //              Dimer HF             //
  //<<<<<<<<<<<<<<<<<<<<<<<<<<<<<<<<<<<//


*** tstart() called on r282
*** at Fri Sep 10 13:31:59 2021

   => Loading Basis Set <=

    Name: JUN-CC-PVTZ
    Role: ORBITAL
    Keyword: BASIS
    atoms 1, 5, 10-11, 14, 18      entry C          line   217 file /home/r08543048/miniconda3/share/psi4/basis/jun-cc-pvtz.gbs 
    atoms 2-3, 12                  entry O          line   305 file /home/r08543048/miniconda3/share/psi4/basis/jun-cc-pvtz.gbs 
    atoms 4, 6-9, 13, 15-17, 19-21 entry H          line    36 file /home/r08543048/miniconda3/share/psi4/basis/jun-cc-pvtz.gbs 


         ---------------------------------------------------------
                                   SCF
               by Justin Turney, Rob Parrish, Andy Simmonett
                          and Daniel G. A. Smith
                              RHF Reference
                        1 Threads,  20980 MiB Core
         ---------------------------------------------------------

  ==> Geometry <==

    Molecular point group: c1
    Full point group: C1

    Geometry (in Angstrom), charge = 0, multiplicity = 1:

       Center              X                  Y                   Z               Mass       
    ------------   -----------------  -----------------  -----------------  -----------------
         C           -2.809706442819     0.120916202781    -0.000085718698    12.000000000000
         O           -2.184537442819     1.166278202781    -0.000287718698    15.994914619570
         O           -2.232230442819    -1.086733797219     0.000111281302    15.994914619570
         H           -1.251138442819    -0.958810797219     0.000118281302     1.007825032230
         C           -4.306890442819     0.021892202781    -0.000033718698    12.000000000000
         H           -4.740141442819     1.015524202781    -0.000776718698     1.007825032230
         H           -4.633647442819    -0.533122797219    -0.877297718698     1.007825032230
         H           -4.633600442819    -0.531715797219     0.878144281302     1.007825032230
         H            0.190649557181     1.217266202781    -0.000075718698     1.007825032230
         C            2.366308557181     0.740433202781    -0.000023718698    12.000000000000
         C            0.913415557181     0.388366202781    -0.000007718698    12.000000000000
         O            0.501528557181    -0.764775797219     0.000127281302    15.994914619570
         H            2.535933557181     1.387339202781     0.868556281302     1.007825032230
         C            3.310224557181    -0.448740797219     0.000102281302    12.000000000000
         H            3.101848557181    -1.069763797219     0.872174281302     1.007825032230
         H            3.101867557181    -1.069932797219    -0.871854718698     1.007825032230
         H            2.535946557181     1.387165202781    -0.868730718698     1.007825032230
         C            4.768108557181    -0.007609797219     0.000075281302    12.000000000000
         H            4.993958557181     0.594340202781    -0.880863718698     1.007825032230
         H            4.993939557181     0.594509202781     0.880904281302     1.007825032230
         H            5.439731557181    -0.864806797219     0.000164281302     1.007825032230

  Running in c1 symmetry.

  Rotational constants: A =      0.21384  B =      0.01472  C =      0.01391 [cm^-1]
  Rotational constants: A =   6410.76632  B =    441.35709  C =    417.13467 [MHz]
  Nuclear repulsion =  432.718726963032907

  Charge       = 0
  Multiplicity = 1
  Electrons    = 72
  Nalpha       = 36
  Nbeta        = 36

  ==> Algorithm <==

  SCF Algorithm Type is DF.
  DIIS enabled.
  MOM disabled.
  Fractional occupation disabled.
  Guess Type is SAD.
  Energy threshold   = 1.00e-08
  Density threshold  = 1.00e-08
  Integral threshold = 0.00e+00

  ==> Primary Basis <==

  Basis Set: JUN-CC-PVTZ
    Blend: JUN-CC-PVTZ
    Number of shells: 189
    Number of basis function: 519
    Number of Cartesian functions: 585
    Spherical Harmonics?: true
    Max angular momentum: 3

   => Loading Basis Set <=

    Name: (JUN-CC-PVTZ AUX)
    Role: JKFIT
    Keyword: DF_BASIS_SCF
    atoms 1, 5, 10-11, 14, 18      entry C          line   152 file /home/r08543048/miniconda3/share/psi4/basis/jun-cc-pvtz-jkfit.gbs 
    atoms 2-3, 12                  entry O          line   272 file /home/r08543048/miniconda3/share/psi4/basis/jun-cc-pvtz-jkfit.gbs 
    atoms 4, 6-9, 13, 15-17, 19-21 entry H          line    70 file /home/r08543048/miniconda3/share/psi4/basis/jun-cc-pvtz-jkfit.gbs 

  ==> Pre-Iterations <==

   -------------------------------------------------------
    Irrep   Nso     Nmo     Nalpha   Nbeta   Ndocc  Nsocc
   -------------------------------------------------------
     A        519     519       0       0       0       0
   -------------------------------------------------------
    Total     519     519      36      36      36       0
   -------------------------------------------------------

  ==> Integral Setup <==

  ==> DiskDFJK: Density-Fitted J/K Matrices <==

    J tasked:                  Yes
    K tasked:                  Yes
    wK tasked:                  No
    OpenMP threads:              1
    Integrals threads:           1
    Memory [MiB]:            15735
    Algorithm:                Core
    Integral Cache:           SAVE
    Schwarz Cutoff:          1E-12
    Fitting Condition:       1E-10

   => Auxiliary Basis Set <=

  Basis Set: (JUN-CC-PVTZ AUX)
    Blend: JUN-CC-PVTZ-JKFIT
    Number of shells: 381
    Number of basis function: 1215
    Number of Cartesian functions: 1464
    Spherical Harmonics?: true
    Max angular momentum: 4

  Minimum eigenvalue in the overlap matrix is 2.4995502765E-05.
  Using Symmetric Orthogonalization.

  SCF Guess: Superposition of Atomic Densities via on-the-fly atomic UHF.

  ==> Iterations <==

                           Total Energy        Delta E     RMS |[F,P]|

   @DF-RHF iter SAD:  -457.40778949199688   -4.57408e+02   0.00000e+00 
   @DF-RHF iter   1:  -458.64253211840276   -1.23474e+00   1.60332e-03 DIIS
   @DF-RHF iter   2:  -458.90098186940605   -2.58450e-01   9.19621e-04 DIIS
   @DF-RHF iter   3:  -458.98140812895485   -8.04263e-02   1.70581e-04 DIIS
   @DF-RHF iter   4:  -458.98649954644497   -5.09142e-03   7.60601e-05 DIIS
   @DF-RHF iter   5:  -458.98745485055821   -9.55304e-04   1.59986e-05 DIIS
   @DF-RHF iter   6:  -458.98752490070115   -7.00501e-05   7.65635e-06 DIIS
   @DF-RHF iter   7:  -458.98753902210797   -1.41214e-05   2.71023e-06 DIIS
   @DF-RHF iter   8:  -458.98754179628776   -2.77418e-06   1.11131e-06 DIIS
   @DF-RHF iter   9:  -458.98754226431203   -4.68024e-07   3.22642e-07 DIIS
   @DF-RHF iter  10:  -458.98754230486134   -4.05493e-08   7.44182e-08 DIIS
   @DF-RHF iter  11:  -458.98754230685046   -1.98912e-09   1.91995e-08 DIIS
   @DF-RHF iter  12:  -458.98754230695079   -1.00329e-10   6.96697e-09 DIIS
  Energy and wave function converged.


  ==> Post-Iterations <==

    Orbital Energies [Eh]
    ---------------------

    Doubly Occupied:                                                      

       1A    -20.582877     2A    -20.572465     3A    -20.534314  
       4A    -11.374779     5A    -11.342643     6A    -11.247337  
       7A    -11.232259     8A    -11.230297     9A    -11.221502  
      10A     -1.442702    11A     -1.403162    12A     -1.339482  
      13A     -1.089640    14A     -1.014285    15A     -0.984411  
      16A     -0.855336    17A     -0.808143    18A     -0.780357  
      19A     -0.699084    20A     -0.684405    21A     -0.660067  
      22A     -0.656206    23A     -0.645405    24A     -0.633576  
      25A     -0.575319    26A     -0.575265    27A     -0.567016  
      28A     -0.554324    29A     -0.545222    30A     -0.517134  
      31A     -0.516029    32A     -0.496641    33A     -0.485813  
      34A     -0.464058    35A     -0.443458    36A     -0.434059  

    Virtual:                                                              

      37A      0.044888    38A      0.050920    39A      0.055878  
      40A      0.066160    41A      0.067109    42A      0.080644  
      43A      0.084309    44A      0.085657    45A      0.094294  
      46A      0.095241    47A      0.101872    48A      0.103063  
      49A      0.116502    50A      0.118349    51A      0.121538  
      52A      0.128782    53A      0.154054    54A      0.162875  
      55A      0.167846    56A      0.172618    57A      0.181866  
      58A      0.190225    59A      0.191098    60A      0.196996  
      61A      0.200129    62A      0.210269    63A      0.222709  
      64A      0.228535    65A      0.233570    66A      0.234634  
      67A      0.244734    68A      0.257534    69A      0.259748  
      70A      0.268064    71A      0.270229    72A      0.279850  
      73A      0.282874    74A      0.284312    75A      0.292176  
      76A      0.296485    77A      0.303808    78A      0.307880  
      79A      0.311129    80A      0.318312    81A      0.324992  
      82A      0.330877    83A      0.332949    84A      0.343416  
      85A      0.350846    86A      0.351258    87A      0.359836  
      88A      0.364094    89A      0.369109    90A      0.378652  
      91A      0.387587    92A      0.403058    93A      0.406282  
      94A      0.408642    95A      0.413674    96A      0.420224  
      97A      0.427574    98A      0.432145    99A      0.441982  
     100A      0.442388   101A      0.463506   102A      0.476716  
     103A      0.489306   104A      0.503002   105A      0.509957  
     106A      0.510552   107A      0.514893   108A      0.524484  
     109A      0.527629   110A      0.529923   111A      0.538339  
     112A      0.542336   113A      0.546461   114A      0.561035  
     115A      0.565090   116A      0.567488   117A      0.583770  
     118A      0.615310   119A      0.616759   120A      0.633068  
     121A      0.643001   122A      0.645651   123A      0.649362  
     124A      0.669445   125A      0.672451   126A      0.683070  
     127A      0.686451   128A      0.698788   129A      0.710361  
     130A      0.713591   131A      0.718651   132A      0.736662  
     133A      0.741256   134A      0.743170   135A      0.766320  
     136A      0.774428   137A      0.782455   138A      0.799769  
     139A      0.803771   140A      0.805185   141A      0.813599  
     142A      0.822961   143A      0.824904   144A      0.831488  
     145A      0.837297   146A      0.840890   147A      0.841214  
     148A      0.853337   149A      0.857695   150A      0.864118  
     151A      0.874053   152A      0.882012   153A      0.890522  
     154A      0.899910   155A      0.915998   156A      0.920869  
     157A      0.934570   158A      0.938386   159A      0.947276  
     160A      0.970348   161A      0.971604   162A      0.973011  
     163A      0.987889   164A      1.006310   165A      1.016499  
     166A      1.019168   167A      1.020120   168A      1.033958  
     169A      1.046048   170A      1.079510   171A      1.081388  
     172A      1.087187   173A      1.111006   174A      1.119818  
     175A      1.134284   176A      1.148700   177A      1.165894  
     178A      1.177159   179A      1.197063   180A      1.204405  
     181A      1.209727   182A      1.213175   183A      1.247280  
     184A      1.260092   185A      1.266997   186A      1.279760  
     187A      1.281129   188A      1.290738   189A      1.305489  
     190A      1.310316   191A      1.317257   192A      1.331227  
     193A      1.341007   194A      1.342525   195A      1.352733  
     196A      1.377651   197A      1.379869   198A      1.381110  
     199A      1.400750   200A      1.406926   201A      1.409404  
     202A      1.418463   203A      1.432390   204A      1.435199  
     205A      1.461300   206A      1.465605   207A      1.470750  
     208A      1.473149   209A      1.481134   210A      1.501156  
     211A      1.510668   212A      1.529257   213A      1.542199  
     214A      1.555447   215A      1.578670   216A      1.582201  
     217A      1.586006   218A      1.595448   219A      1.600294  
     220A      1.610739   221A      1.611325   222A      1.627706  
     223A      1.632788   224A      1.647815   225A      1.686672  
     226A      1.687735   227A      1.695141   228A      1.713780  
     229A      1.726647   230A      1.744608   231A      1.750415  
     232A      1.770178   233A      1.780344   234A      1.793954  
     235A      1.829759   236A      1.843168   237A      1.852738  
     238A      1.868956   239A      1.890623   240A      1.901081  
     241A      1.919090   242A      1.945290   243A      1.958731  
     244A      1.962584   245A      1.991177   246A      1.999736  
     247A      2.043136   248A      2.127974   249A      2.183890  
     250A      2.222366   251A      2.245082   252A      2.281842  
     253A      2.291513   254A      2.339376   255A      2.385794  
     256A      2.386613   257A      2.418352   258A      2.444399  
     259A      2.469952   260A      2.486542   261A      2.564355  
     262A      2.608028   263A      2.625412   264A      2.647610  
     265A      2.692022   266A      2.708560   267A      2.734427  
     268A      2.743185   269A      2.765047   270A      2.784254  
     271A      2.792040   272A      2.797291   273A      2.844668  
     274A      2.847325   275A      2.860997   276A      2.891343  
     277A      2.908637   278A      2.918546   279A      2.942661  
     280A      2.953359   281A      2.968693   282A      2.999200  
     283A      3.003618   284A      3.024572   285A      3.051758  
     286A      3.065875   287A      3.084796   288A      3.104711  
     289A      3.106412   290A      3.107859   291A      3.119742  
     292A      3.130171   293A      3.144071   294A      3.144395  
     295A      3.179039   296A      3.188048   297A      3.209719  
     298A      3.212582   299A      3.238347   300A      3.265819  
     301A      3.269150   302A      3.294107   303A      3.297306  
     304A      3.299930   305A      3.331378   306A      3.333159  
     307A      3.345967   308A      3.367466   309A      3.379246  
     310A      3.383712   311A      3.394461   312A      3.424381  
     313A      3.432241   314A      3.436217   315A      3.444152  
     316A      3.447938   317A      3.456019   318A      3.463234  
     319A      3.476831   320A      3.488106   321A      3.496042  
     322A      3.496941   323A      3.514952   324A      3.516503  
     325A      3.549936   326A      3.550049   327A      3.552111  
     328A      3.566700   329A      3.570362   330A      3.571017  
     331A      3.589670   332A      3.599444   333A      3.629553  
     334A      3.630768   335A      3.652212   336A      3.672086  
     337A      3.698529   338A      3.712475   339A      3.720773  
     340A      3.725137   341A      3.738111   342A      3.758615  
     343A      3.769548   344A      3.777750   345A      3.784449  
     346A      3.786208   347A      3.791962   348A      3.797711  
     349A      3.818263   350A      3.824463   351A      3.839758  
     352A      3.855789   353A      3.870484   354A      3.904554  
     355A      3.915268   356A      3.924676   357A      3.928015  
     358A      3.939578   359A      3.968645   360A      3.996776  
     361A      4.012989   362A      4.029950   363A      4.065479  
     364A      4.090303   365A      4.100432   366A      4.115719  
     367A      4.147561   368A      4.163860   369A      4.179594  
     370A      4.185684   371A      4.199426   372A      4.208531  
     373A      4.225450   374A      4.228500   375A      4.258229  
     376A      4.280155   377A      4.298994   378A      4.307812  
     379A      4.315411   380A      4.322417   381A      4.323479  
     382A      4.330052   383A      4.332597   384A      4.352766  
     385A      4.358261   386A      4.358319   387A      4.405372  
     388A      4.412993   389A      4.418498   390A      4.422676  
     391A      4.461288   392A      4.471510   393A      4.480379  
     394A      4.499494   395A      4.501570   396A      4.515152  
     397A      4.538228   398A      4.552688   399A      4.587509  
     400A      4.595883   401A      4.602815   402A      4.622717  
     403A      4.625452   404A      4.651631   405A      4.657762  
     406A      4.670091   407A      4.680453   408A      4.686725  
     409A      4.694545   410A      4.728378   411A      4.759240  
     412A      4.785955   413A      4.809398   414A      4.810547  
     415A      4.822110   416A      4.831212   417A      4.834050  
     418A      4.840387   419A      4.905754   420A      4.943435  
     421A      4.987124   422A      4.987154   423A      5.038298  
     424A      5.053114   425A      5.073372   426A      5.084663  
     427A      5.113981   428A      5.132517   429A      5.133637  
     430A      5.155369   431A      5.161173   432A      5.237559  
     433A      5.269812   434A      5.272343   435A      5.288919  
     436A      5.316579   437A      5.332633   438A      5.357418  
     439A      5.368894   440A      5.396569   441A      5.396996  
     442A      5.429462   443A      5.450362   444A      5.460651  
     445A      5.520648   446A      5.547914   447A      5.555600  
     448A      5.577744   449A      5.579396   450A      5.585353  
     451A      5.619149   452A      5.648502   453A      5.666172  
     454A      5.672810   455A      5.689598   456A      5.697040  
     457A      5.704086   458A      5.748779   459A      5.752432  
     460A      5.752677   461A      5.788374   462A      5.828327  
     463A      5.861181   464A      5.888698   465A      5.891974  
     466A      5.898463   467A      5.912199   468A      5.931355  
     469A      5.931500   470A      5.950694   471A      5.973627  
     472A      6.071901   473A      6.094663   474A      6.115314  
     475A      6.123769   476A      6.259575   477A      6.298342  
     478A      6.377290   479A      6.425455   480A      6.450634  
     481A      6.493455   482A      6.517543   483A      6.528405  
     484A      6.533392   485A      6.570604   486A      6.750873  
     487A      6.753222   488A      6.769092   489A      6.955614  
     490A      6.972491   491A      6.975918   492A      7.107404  
     493A      7.161944   494A      7.243645   495A      7.254035  
     496A      7.291988   497A      7.301980   498A      7.353143  
     499A      7.382135   500A      7.398198   501A      7.434934  
     502A      7.446087   503A      7.472106   504A      7.680485  
     505A      7.710107   506A      7.749037   507A      7.773379  
     508A      7.898103   509A      8.008894   510A      8.296186  
     511A     12.167792   512A     12.542361   513A     13.813180  
     514A     13.904854   515A     14.368855   516A     14.400479  
     517A     14.476351   518A     14.541318   519A     14.722125  

    Final Occupation by Irrep:
              A 
    DOCC [    36 ]

  @DF-RHF Final Energy:  -458.98754230695079

   => Energetics <=

    Nuclear Repulsion Energy =            432.7187269630329070
    One-Electron Energy =               -1484.9943934356738282
    Two-Electron Energy =                 593.2881241656901921
    Total Energy =                       -458.9875423069507860

Computation Completed


Properties will be evaluated at   0.000000,   0.000000,   0.000000 [a0]

Properties computed using the SCF density matrix

  Nuclear Dipole Moment: [e a0]
     X:    10.8890      Y:     1.0917      Z:     0.0004

  Electronic Dipole Moment: [e a0]
     X:   -10.2766      Y:    -0.6858      Z:    -0.0004

  Dipole Moment: [e a0]
     X:     0.6124      Y:     0.4058      Z:     0.0001     Total:     0.7346

  Dipole Moment: [D]
     X:     1.5565      Y:     1.0315      Z:     0.0002     Total:     1.8673


*** tstop() called on r282 at Fri Sep 10 13:33:15 2021
Module time:
	user time   =      74.34 seconds =       1.24 minutes
	system time =       1.52 seconds =       0.03 minutes
	total time  =         76 seconds =       1.27 minutes
Total time:
	user time   =      74.34 seconds =       1.24 minutes
	system time =       1.52 seconds =       0.03 minutes
	total time  =         76 seconds =       1.27 minutes

  //>>>>>>>>>>>>>>>>>>>>>>>>>>>>>>>>>>>//
  //            Monomer A HF           //
  //<<<<<<<<<<<<<<<<<<<<<<<<<<<<<<<<<<<//


*** tstart() called on r282
*** at Fri Sep 10 13:33:15 2021

   => Loading Basis Set <=

    Name: JUN-CC-PVTZ
    Role: ORBITAL
    Keyword: BASIS
    atoms 1, 5, 10-11, 14, 18      entry C          line   217 file /home/r08543048/miniconda3/share/psi4/basis/jun-cc-pvtz.gbs 
    atoms 2-3, 12                  entry O          line   305 file /home/r08543048/miniconda3/share/psi4/basis/jun-cc-pvtz.gbs 
    atoms 4, 6-9, 13, 15-17, 19-21 entry H          line    36 file /home/r08543048/miniconda3/share/psi4/basis/jun-cc-pvtz.gbs 


         ---------------------------------------------------------
                                   SCF
               by Justin Turney, Rob Parrish, Andy Simmonett
                          and Daniel G. A. Smith
                              RHF Reference
                        1 Threads,  20980 MiB Core
         ---------------------------------------------------------

  ==> Geometry <==

    Molecular point group: c1
    Full point group: C1

    Geometry (in Angstrom), charge = 0, multiplicity = 1:

       Center              X                  Y                   Z               Mass       
    ------------   -----------------  -----------------  -----------------  -----------------
         C           -2.809706442819     0.120916202781    -0.000085718698    12.000000000000
         O           -2.184537442819     1.166278202781    -0.000287718698    15.994914619570
         O           -2.232230442819    -1.086733797219     0.000111281302    15.994914619570
         H           -1.251138442819    -0.958810797219     0.000118281302     1.007825032230
         C           -4.306890442819     0.021892202781    -0.000033718698    12.000000000000
         H           -4.740141442819     1.015524202781    -0.000776718698     1.007825032230
         H           -4.633647442819    -0.533122797219    -0.877297718698     1.007825032230
         H           -4.633600442819    -0.531715797219     0.878144281302     1.007825032230
      Gh(H)           0.190649557181     1.217266202781    -0.000075718698     1.007825032230
      Gh(C)           2.366308557181     0.740433202781    -0.000023718698    12.000000000000
      Gh(C)           0.913415557181     0.388366202781    -0.000007718698    12.000000000000
      Gh(O)           0.501528557181    -0.764775797219     0.000127281302    15.994914619570
      Gh(H)           2.535933557181     1.387339202781     0.868556281302     1.007825032230
      Gh(C)           3.310224557181    -0.448740797219     0.000102281302    12.000000000000
      Gh(H)           3.101848557181    -1.069763797219     0.872174281302     1.007825032230
      Gh(H)           3.101867557181    -1.069932797219    -0.871854718698     1.007825032230
      Gh(H)           2.535946557181     1.387165202781    -0.868730718698     1.007825032230
      Gh(C)           4.768108557181    -0.007609797219     0.000075281302    12.000000000000
      Gh(H)           4.993958557181     0.594340202781    -0.880863718698     1.007825032230
      Gh(H)           4.993939557181     0.594509202781     0.880904281302     1.007825032230
      Gh(H)           5.439731557181    -0.864806797219     0.000164281302     1.007825032230

  Running in c1 symmetry.

  Rotational constants: A =      0.21384  B =      0.01472  C =      0.01391 [cm^-1]
  Rotational constants: A =   6410.76632  B =    441.35709  C =    417.13467 [MHz]
  Nuclear repulsion =  121.131190478730431

  Charge       = 0
  Multiplicity = 1
  Electrons    = 32
  Nalpha       = 16
  Nbeta        = 16

  ==> Algorithm <==

  SCF Algorithm Type is DF.
  DIIS enabled.
  MOM disabled.
  Fractional occupation disabled.
  Guess Type is SAD.
  Energy threshold   = 1.00e-08
  Density threshold  = 1.00e-08
  Integral threshold = 0.00e+00

  ==> Primary Basis <==

  Basis Set: JUN-CC-PVTZ
    Blend: JUN-CC-PVTZ
    Number of shells: 189
    Number of basis function: 519
    Number of Cartesian functions: 585
    Spherical Harmonics?: true
    Max angular momentum: 3

   => Loading Basis Set <=

    Name: (JUN-CC-PVTZ AUX)
    Role: JKFIT
    Keyword: DF_BASIS_SCF
    atoms 1, 5, 10-11, 14, 18      entry C          line   152 file /home/r08543048/miniconda3/share/psi4/basis/jun-cc-pvtz-jkfit.gbs 
    atoms 2-3, 12                  entry O          line   272 file /home/r08543048/miniconda3/share/psi4/basis/jun-cc-pvtz-jkfit.gbs 
    atoms 4, 6-9, 13, 15-17, 19-21 entry H          line    70 file /home/r08543048/miniconda3/share/psi4/basis/jun-cc-pvtz-jkfit.gbs 

  ==> Pre-Iterations <==

   -------------------------------------------------------
    Irrep   Nso     Nmo     Nalpha   Nbeta   Ndocc  Nsocc
   -------------------------------------------------------
     A        519     519       0       0       0       0
   -------------------------------------------------------
    Total     519     519      16      16      16       0
   -------------------------------------------------------

  ==> Integral Setup <==

  ==> DiskDFJK: Density-Fitted J/K Matrices <==

    J tasked:                  Yes
    K tasked:                  Yes
    wK tasked:                  No
    OpenMP threads:              1
    Integrals threads:           1
    Memory [MiB]:            15735
    Algorithm:                Core
    Integral Cache:           LOAD
    Schwarz Cutoff:          1E-12
    Fitting Condition:       1E-10

   => Auxiliary Basis Set <=

  Basis Set: (JUN-CC-PVTZ AUX)
    Blend: JUN-CC-PVTZ-JKFIT
    Number of shells: 381
    Number of basis function: 1215
    Number of Cartesian functions: 1464
    Spherical Harmonics?: true
    Max angular momentum: 4

  Minimum eigenvalue in the overlap matrix is 2.4995502765E-05.
  Using Symmetric Orthogonalization.

  SCF Guess: Superposition of Atomic Densities via on-the-fly atomic UHF.

  ==> Iterations <==

                           Total Energy        Delta E     RMS |[F,P]|

   @DF-RHF iter SAD:  -227.00186848835483   -2.27002e+02   0.00000e+00 
   @DF-RHF iter   1:  -227.74371041510545   -7.41842e-01   1.15433e-03 DIIS
   @DF-RHF iter   2:  -227.85744506355678   -1.13735e-01   7.11360e-04 DIIS
   @DF-RHF iter   3:  -227.90031587055816   -4.28708e-02   1.16689e-04 DIIS
   @DF-RHF iter   4:  -227.90255802035421   -2.24215e-03   5.30736e-05 DIIS
   @DF-RHF iter   5:  -227.90305117342228   -4.93153e-04   1.29354e-05 DIIS
   @DF-RHF iter   6:  -227.90309299106076   -4.18176e-05   6.16527e-06 DIIS
   @DF-RHF iter   7:  -227.90310347153471   -1.04805e-05   2.07010e-06 DIIS
   @DF-RHF iter   8:  -227.90310526575334   -1.79422e-06   5.60525e-07 DIIS
   @DF-RHF iter   9:  -227.90310541570440   -1.49951e-07   1.17584e-07 DIIS
   @DF-RHF iter  10:  -227.90310542121949   -5.51509e-09   2.96278e-08 DIIS
   @DF-RHF iter  11:  -227.90310542144400   -2.24503e-10   7.90508e-09 DIIS
  Energy and wave function converged.


  ==> Post-Iterations <==

    Orbital Energies [Eh]
    ---------------------

    Doubly Occupied:                                                      

       1A    -20.621533     2A    -20.548854     3A    -11.390693  
       4A    -11.245194     5A     -1.467429     6A     -1.358168  
       7A     -1.028680     8A     -0.828836     9A     -0.705449  
      10A     -0.681593    11A     -0.653825    12A     -0.582018  
      13A     -0.574045    14A     -0.563983    15A     -0.481298  
      16A     -0.454572  

    Virtual:                                                              

      17A      0.030260    18A      0.042104    19A      0.048597  
      20A      0.056389    21A      0.062301    22A      0.076130  
      23A      0.076192    24A      0.082209    25A      0.092574  
      26A      0.093513    27A      0.103218    28A      0.103922  
      29A      0.109133    30A      0.119418    31A      0.124445  
      32A      0.138393    33A      0.142255    34A      0.150497  
      35A      0.154017    36A      0.158706    37A      0.167346  
      38A      0.168817    39A      0.174573    40A      0.187395  
      41A      0.190189    42A      0.200292    43A      0.203497  
      44A      0.204388    45A      0.215120    46A      0.234730  
      47A      0.235416    48A      0.242101    49A      0.258674  
      50A      0.266438    51A      0.268229    52A      0.270910  
      53A      0.280422    54A      0.281521    55A      0.285420  
      56A      0.292358    57A      0.293602    58A      0.305833  
      59A      0.314721    60A      0.324658    61A      0.327350  
      62A      0.334043    63A      0.336665    64A      0.355379  
      65A      0.356561    66A      0.362701    67A      0.373776  
      68A      0.380036    69A      0.382205    70A      0.384941  
      71A      0.388516    72A      0.394543    73A      0.404573  
      74A      0.412375    75A      0.428153    76A      0.436859  
      77A      0.437610    78A      0.442160    79A      0.446442  
      80A      0.455507    81A      0.463277    82A      0.476661  
      83A      0.491269    84A      0.495316    85A      0.499270  
      86A      0.508672    87A      0.510706    88A      0.518478  
      89A      0.526127    90A      0.543350    91A      0.549562  
      92A      0.552897    93A      0.553747    94A      0.574516  
      95A      0.575867    96A      0.585604    97A      0.599136  
      98A      0.600789    99A      0.618394   100A      0.629995  
     101A      0.633080   102A      0.636975   103A      0.648444  
     104A      0.652303   105A      0.660980   106A      0.664169  
     107A      0.672019   108A      0.680698   109A      0.682060  
     110A      0.701260   111A      0.711470   112A      0.715036  
     113A      0.718979   114A      0.744759   115A      0.755779  
     116A      0.764100   117A      0.764624   118A      0.789992  
     119A      0.806325   120A      0.810954   121A      0.817090  
     122A      0.823134   123A      0.833964   124A      0.846141  
     125A      0.850904   126A      0.861559   127A      0.874035  
     128A      0.893823   129A      0.904802   130A      0.918826  
     131A      0.944599   132A      0.951191   133A      0.960553  
     134A      0.968851   135A      1.004239   136A      1.004722  
     137A      1.025663   138A      1.033195   139A      1.037718  
     140A      1.052969   141A      1.058871   142A      1.062594  
     143A      1.071934   144A      1.086284   145A      1.090380  
     146A      1.101188   147A      1.109186   148A      1.123355  
     149A      1.165974   150A      1.173758   151A      1.177956  
     152A      1.185887   153A      1.194420   154A      1.195010  
     155A      1.195829   156A      1.208309   157A      1.224652  
     158A      1.231009   159A      1.254643   160A      1.257212  
     161A      1.270200   162A      1.276510   163A      1.287998  
     164A      1.289800   165A      1.291410   166A      1.306811  
     167A      1.308704   168A      1.321170   169A      1.323430  
     170A      1.333583   171A      1.349195   172A      1.353785  
     173A      1.357581   174A      1.365754   175A      1.388167  
     176A      1.391736   177A      1.393692   178A      1.405991  
     179A      1.422664   180A      1.431847   181A      1.437734  
     182A      1.440374   183A      1.456684   184A      1.468081  
     185A      1.483659   186A      1.485438   187A      1.503139  
     188A      1.531258   189A      1.534455   190A      1.539819  
     191A      1.548238   192A      1.564174   193A      1.566585  
     194A      1.583521   195A      1.592053   196A      1.595079  
     197A      1.609791   198A      1.611499   199A      1.612590  
     200A      1.628477   201A      1.638268   202A      1.661092  
     203A      1.675951   204A      1.708328   205A      1.716435  
     206A      1.725012   207A      1.729036   208A      1.738172  
     209A      1.767495   210A      1.772290   211A      1.826419  
     212A      1.830707   213A      1.854061   214A      1.858820  
     215A      1.899642   216A      1.909956   217A      1.934905  
     218A      1.935357   219A      1.958983   220A      1.980500  
     221A      2.003381   222A      2.009532   223A      2.049604  
     224A      2.105742   225A      2.141028   226A      2.148950  
     227A      2.182400   228A      2.202676   229A      2.205432  
     230A      2.212459   231A      2.242882   232A      2.260726  
     233A      2.294947   234A      2.309342   235A      2.309481  
     236A      2.370834   237A      2.383882   238A      2.397132  
     239A      2.404657   240A      2.417640   241A      2.442207  
     242A      2.447724   243A      2.456594   244A      2.493039  
     245A      2.503132   246A      2.546824   247A      2.569686  
     248A      2.609260   249A      2.628534   250A      2.645073  
     251A      2.669927   252A      2.701732   253A      2.739524  
     254A      2.761697   255A      2.783117   256A      2.822268  
     257A      2.823675   258A      2.846944   259A      2.871645  
     260A      2.951138   261A      2.956372   262A      2.967512  
     263A      2.973559   264A      3.008829   265A      3.048036  
     266A      3.095761   267A      3.126893   268A      3.169073  
     269A      3.197560   270A      3.220001   271A      3.258530  
     272A      3.294478   273A      3.318640   274A      3.343326  
     275A      3.361334   276A      3.420503   277A      3.425937  
     278A      3.440420   279A      3.484584   280A      3.492332  
     281A      3.505670   282A      3.532090   283A      3.541419  
     284A      3.549147   285A      3.554470   286A      3.570141  
     287A      3.593794   288A      3.599871   289A      3.602812  
     290A      3.615857   291A      3.638222   292A      3.643522  
     293A      3.646322   294A      3.684931   295A      3.698485  
     296A      3.701033   297A      3.751722   298A      3.762205  
     299A      3.768326   300A      3.772687   301A      3.781861  
     302A      3.786336   303A      3.808824   304A      3.813000  
     305A      3.819361   306A      3.829461   307A      3.834436  
     308A      3.843099   309A      3.862608   310A      3.871634  
     311A      3.881871   312A      3.884201   313A      3.891034  
     314A      3.902813   315A      3.942425   316A      3.974890  
     317A      3.976782   318A      4.000259   319A      4.022382  
     320A      4.028779   321A      4.051396   322A      4.066752  
     323A      4.075033   324A      4.125190   325A      4.140534  
     326A      4.143109   327A      4.154530   328A      4.176134  
     329A      4.176895   330A      4.193456   331A      4.194470  
     332A      4.267072   333A      4.286436   334A      4.303176  
     335A      4.310466   336A      4.315957   337A      4.328414  
     338A      4.332858   339A      4.344299   340A      4.391588  
     341A      4.402051   342A      4.413950   343A      4.416024  
     344A      4.453094   345A      4.461454   346A      4.475552  
     347A      4.488290   348A      4.500802   349A      4.517999  
     350A      4.522317   351A      4.539307   352A      4.553142  
     353A      4.556853   354A      4.562962   355A      4.567097  
     356A      4.573727   357A      4.596468   358A      4.612416  
     359A      4.634200   360A      4.640201   361A      4.650551  
     362A      4.672881   363A      4.687844   364A      4.695881  
     365A      4.696039   366A      4.706536   367A      4.722181  
     368A      4.734489   369A      4.741920   370A      4.754736  
     371A      4.767656   372A      4.770624   373A      4.772237  
     374A      4.788170   375A      4.803559   376A      4.815919  
     377A      4.829526   378A      4.847170   379A      4.863783  
     380A      4.873038   381A      4.875717   382A      4.888921  
     383A      4.909461   384A      4.911617   385A      4.933879  
     386A      4.945253   387A      4.956423   388A      4.962291  
     389A      4.991932   390A      5.004021   391A      5.009281  
     392A      5.021427   393A      5.035541   394A      5.037345  
     395A      5.073334   396A      5.091378   397A      5.106650  
     398A      5.112326   399A      5.126111   400A      5.148650  
     401A      5.177301   402A      5.196540   403A      5.223381  
     404A      5.228197   405A      5.296311   406A      5.339014  
     407A      5.359451   408A      5.384682   409A      5.388278  
     410A      5.437931   411A      5.438226   412A      5.459626  
     413A      5.507498   414A      5.516078   415A      5.562374  
     416A      5.572548   417A      5.604746   418A      5.616834  
     419A      5.637812   420A      5.644709   421A      5.654110  
     422A      5.667219   423A      5.679185   424A      5.684878  
     425A      5.718482   426A      5.736584   427A      5.804270  
     428A      5.804997   429A      5.876224   430A      5.876362  
     431A      5.886765   432A      5.893485   433A      5.914729  
     434A      6.021795   435A      6.032560   436A      6.049205  
     437A      6.049619   438A      6.110664   439A      6.128603  
     440A      6.174354   441A      6.188045   442A      6.237508  
     443A      6.272649   444A      6.297756   445A      6.347019  
     446A      6.391369   447A      6.412490   448A      6.434183  
     449A      6.436171   450A      6.442744   451A      6.471407  
     452A      6.500208   453A      6.505172   454A      6.592273  
     455A      6.594897   456A      6.648357   457A      6.721092  
     458A      6.735036   459A      6.757250   460A      6.788629  
     461A      6.933707   462A      6.947544   463A      6.972285  
     464A      6.984191   465A      7.004649   466A      7.009323  
     467A      7.088958   468A      7.168663   469A      7.254132  
     470A      7.282685   471A      7.308216   472A      7.352195  
     473A      7.373005   474A      7.388108   475A      7.408723  
     476A      7.445245   477A      7.547034   478A      7.549409  
     479A      7.657676   480A      7.665959   481A      7.680010  
     482A      7.686514   483A      7.695476   484A      7.763894  
     485A      7.771547   486A      7.819775   487A      7.853901  
     488A      7.877165   489A      7.882551   490A      7.969281  
     491A      8.085792   492A      8.126173   493A      8.284224  
     494A      8.310162   495A      8.394256   496A      8.516357  
     497A      8.676356   498A      9.404109   499A      9.478593  
     500A      9.667802   501A      9.748439   502A      9.792702  
     503A      9.871453   504A      9.873133   505A      9.972008  
     506A     10.260009   507A     10.986260   508A     11.561186  
     509A     11.979374   510A     12.162907   511A     13.669173  
     512A     13.856406   513A     14.366006   514A     14.706725  
     515A     43.973844   516A     44.407439   517A     45.563202  
     518A     45.835974   519A     60.734601  

    Final Occupation by Irrep:
              A 
    DOCC [    16 ]

  @DF-RHF Final Energy:  -227.90310542144400

   => Energetics <=

    Nuclear Repulsion Energy =            121.1311904787304314
    One-Electron Energy =                -551.6962456640511618
    Two-Electron Energy =                 202.6619497638767200
    Total Energy =                       -227.9031054214439962

Computation Completed


Properties will be evaluated at   0.000000,   0.000000,   0.000000 [a0]

Properties computed using the SCF density matrix

  Nuclear Dipole Moment: [e a0]
     X:  -176.2968      Y:     0.9167      Z:    -0.0037

  Electronic Dipole Moment: [e a0]
     X:   175.8992      Y:    -1.6569      Z:     0.0039

  Dipole Moment: [e a0]
     X:    -0.3976      Y:    -0.7402      Z:     0.0002     Total:     0.8403

  Dipole Moment: [D]
     X:    -1.0107      Y:    -1.8814      Z:     0.0005     Total:     2.1357


*** tstop() called on r282 at Fri Sep 10 13:33:56 2021
Module time:
	user time   =      40.24 seconds =       0.67 minutes
	system time =       0.61 seconds =       0.01 minutes
	total time  =         41 seconds =       0.68 minutes
Total time:
	user time   =     114.58 seconds =       1.91 minutes
	system time =       2.13 seconds =       0.04 minutes
	total time  =        117 seconds =       1.95 minutes

  //>>>>>>>>>>>>>>>>>>>>>>>>>>>>>>>>>>>//
  //            Monomer B HF           //
  //<<<<<<<<<<<<<<<<<<<<<<<<<<<<<<<<<<<//


*** tstart() called on r282
*** at Fri Sep 10 13:33:56 2021

   => Loading Basis Set <=

    Name: JUN-CC-PVTZ
    Role: ORBITAL
    Keyword: BASIS
    atoms 1, 5, 10-11, 14, 18      entry C          line   217 file /home/r08543048/miniconda3/share/psi4/basis/jun-cc-pvtz.gbs 
    atoms 2-3, 12                  entry O          line   305 file /home/r08543048/miniconda3/share/psi4/basis/jun-cc-pvtz.gbs 
    atoms 4, 6-9, 13, 15-17, 19-21 entry H          line    36 file /home/r08543048/miniconda3/share/psi4/basis/jun-cc-pvtz.gbs 


         ---------------------------------------------------------
                                   SCF
               by Justin Turney, Rob Parrish, Andy Simmonett
                          and Daniel G. A. Smith
                              RHF Reference
                        1 Threads,  20980 MiB Core
         ---------------------------------------------------------

  ==> Geometry <==

    Molecular point group: c1
    Full point group: C1

    Geometry (in Angstrom), charge = 0, multiplicity = 1:

       Center              X                  Y                   Z               Mass       
    ------------   -----------------  -----------------  -----------------  -----------------
      Gh(C)          -2.809706442819     0.120916202781    -0.000085718698    12.000000000000
      Gh(O)          -2.184537442819     1.166278202781    -0.000287718698    15.994914619570
      Gh(O)          -2.232230442819    -1.086733797219     0.000111281302    15.994914619570
      Gh(H)          -1.251138442819    -0.958810797219     0.000118281302     1.007825032230
      Gh(C)          -4.306890442819     0.021892202781    -0.000033718698    12.000000000000
      Gh(H)          -4.740141442819     1.015524202781    -0.000776718698     1.007825032230
      Gh(H)          -4.633647442819    -0.533122797219    -0.877297718698     1.007825032230
      Gh(H)          -4.633600442819    -0.531715797219     0.878144281302     1.007825032230
         H            0.190649557181     1.217266202781    -0.000075718698     1.007825032230
         C            2.366308557181     0.740433202781    -0.000023718698    12.000000000000
         C            0.913415557181     0.388366202781    -0.000007718698    12.000000000000
         O            0.501528557181    -0.764775797219     0.000127281302    15.994914619570
         H            2.535933557181     1.387339202781     0.868556281302     1.007825032230
         C            3.310224557181    -0.448740797219     0.000102281302    12.000000000000
         H            3.101848557181    -1.069763797219     0.872174281302     1.007825032230
         H            3.101867557181    -1.069932797219    -0.871854718698     1.007825032230
         H            2.535946557181     1.387165202781    -0.868730718698     1.007825032230
         C            4.768108557181    -0.007609797219     0.000075281302    12.000000000000
         H            4.993958557181     0.594340202781    -0.880863718698     1.007825032230
         H            4.993939557181     0.594509202781     0.880904281302     1.007825032230
         H            5.439731557181    -0.864806797219     0.000164281302     1.007825032230

  Running in c1 symmetry.

  Rotational constants: A =      0.21384  B =      0.01472  C =      0.01391 [cm^-1]
  Rotational constants: A =   6410.76632  B =    441.35709  C =    417.13467 [MHz]
  Nuclear repulsion =  172.504263872660431

  Charge       = 0
  Multiplicity = 1
  Electrons    = 40
  Nalpha       = 20
  Nbeta        = 20

  ==> Algorithm <==

  SCF Algorithm Type is DF.
  DIIS enabled.
  MOM disabled.
  Fractional occupation disabled.
  Guess Type is SAD.
  Energy threshold   = 1.00e-08
  Density threshold  = 1.00e-08
  Integral threshold = 0.00e+00

  ==> Primary Basis <==

  Basis Set: JUN-CC-PVTZ
    Blend: JUN-CC-PVTZ
    Number of shells: 189
    Number of basis function: 519
    Number of Cartesian functions: 585
    Spherical Harmonics?: true
    Max angular momentum: 3

   => Loading Basis Set <=

    Name: (JUN-CC-PVTZ AUX)
    Role: JKFIT
    Keyword: DF_BASIS_SCF
    atoms 1, 5, 10-11, 14, 18      entry C          line   152 file /home/r08543048/miniconda3/share/psi4/basis/jun-cc-pvtz-jkfit.gbs 
    atoms 2-3, 12                  entry O          line   272 file /home/r08543048/miniconda3/share/psi4/basis/jun-cc-pvtz-jkfit.gbs 
    atoms 4, 6-9, 13, 15-17, 19-21 entry H          line    70 file /home/r08543048/miniconda3/share/psi4/basis/jun-cc-pvtz-jkfit.gbs 

  ==> Pre-Iterations <==

   -------------------------------------------------------
    Irrep   Nso     Nmo     Nalpha   Nbeta   Ndocc  Nsocc
   -------------------------------------------------------
     A        519     519       0       0       0       0
   -------------------------------------------------------
    Total     519     519      20      20      20       0
   -------------------------------------------------------

  ==> Integral Setup <==

  ==> DiskDFJK: Density-Fitted J/K Matrices <==

    J tasked:                  Yes
    K tasked:                  Yes
    wK tasked:                  No
    OpenMP threads:              1
    Integrals threads:           1
    Memory [MiB]:            15735
    Algorithm:                Core
    Integral Cache:           LOAD
    Schwarz Cutoff:          1E-12
    Fitting Condition:       1E-10

   => Auxiliary Basis Set <=

  Basis Set: (JUN-CC-PVTZ AUX)
    Blend: JUN-CC-PVTZ-JKFIT
    Number of shells: 381
    Number of basis function: 1215
    Number of Cartesian functions: 1464
    Spherical Harmonics?: true
    Max angular momentum: 4

  Minimum eigenvalue in the overlap matrix is 2.4995502765E-05.
  Using Symmetric Orthogonalization.

  SCF Guess: Superposition of Atomic Densities via on-the-fly atomic UHF.

  ==> Iterations <==

                           Total Energy        Delta E     RMS |[F,P]|

   @DF-RHF iter SAD:  -230.23940234220314   -2.30239e+02   0.00000e+00 
   @DF-RHF iter   1:  -230.85950354835859   -6.20101e-01   1.19046e-03 DIIS
   @DF-RHF iter   2:  -231.01129521333883   -1.51792e-01   7.37270e-04 DIIS
   @DF-RHF iter   3:  -231.06676550686265   -5.54703e-02   1.45332e-04 DIIS
   @DF-RHF iter   4:  -231.07026510588031   -3.49960e-03   6.20403e-05 DIIS
   @DF-RHF iter   5:  -231.07093737146110   -6.72266e-04   1.08548e-05 DIIS
   @DF-RHF iter   6:  -231.07097830774734   -4.09363e-05   4.52326e-06 DIIS
   @DF-RHF iter   7:  -231.07098484829569   -6.54055e-06   2.00744e-06 DIIS
   @DF-RHF iter   8:  -231.07098625451471   -1.40622e-06   6.62035e-07 DIIS
   @DF-RHF iter   9:  -231.07098644741464   -1.92900e-07   1.22139e-07 DIIS
   @DF-RHF iter  10:  -231.07098645361648   -6.20184e-09   3.20173e-08 DIIS
   @DF-RHF iter  11:  -231.07098645388456   -2.68074e-10   9.08792e-09 DIIS
  Energy and wave function converged.


  ==> Post-Iterations <==

    Orbital Energies [Eh]
    ---------------------

    Doubly Occupied:                                                      

       1A    -20.555715     2A    -11.332289     3A    -11.242324  
       4A    -11.225920     5A    -11.218428     6A     -1.382051  
       7A     -1.083967     8A     -0.978888     9A     -0.849915  
      10A     -0.771989    11A     -0.674186    12A     -0.651016  
      13A     -0.630841    14A     -0.569349    15A     -0.568353  
      16A     -0.512328    17A     -0.498992    18A     -0.492136  
      19A     -0.479858    20A     -0.422663  

    Virtual:                                                              

      21A      0.037443    22A      0.044819    23A      0.052198  
      24A      0.064455    25A      0.064879    26A      0.070966  
      27A      0.075811    28A      0.079871    29A      0.093337  
      30A      0.093433    31A      0.103444    32A      0.104625  
      33A      0.112618    34A      0.116246    35A      0.122239  
      36A      0.130336    37A      0.148983    38A      0.149674  
      39A      0.158214    40A      0.163367    41A      0.176857  
      42A      0.181268    43A      0.184039    44A      0.184522  
      45A      0.197319    46A      0.209369    47A      0.217268  
      48A      0.217771    49A      0.224403    50A      0.228751  
      51A      0.237406    52A      0.239957    53A      0.245359  
      54A      0.263048    55A      0.264397    56A      0.274028  
      57A      0.278250    58A      0.279035    59A      0.288636  
      60A      0.293919    61A      0.304914    62A      0.306590  
      63A      0.318348    64A      0.324501    65A      0.336159  
      66A      0.339984    67A      0.348066    68A      0.351233  
      69A      0.360740    70A      0.363708    71A      0.365393  
      72A      0.376154    73A      0.380290    74A      0.382279  
      75A      0.385540    76A      0.393103    77A      0.401595  
      78A      0.418105    79A      0.419363    80A      0.428729  
      81A      0.440556    82A      0.441191    83A      0.445109  
      84A      0.453390    85A      0.468711    86A      0.474452  
      87A      0.480499    88A      0.489874    89A      0.499765  
      90A      0.509016    91A      0.509377    92A      0.511697  
      93A      0.519690    94A      0.524085    95A      0.533498  
      96A      0.543685    97A      0.545637    98A      0.545745  
      99A      0.555134   100A      0.576251   101A      0.584682  
     102A      0.590046   103A      0.592742   104A      0.621770  
     105A      0.622495   106A      0.634864   107A      0.654204  
     108A      0.668083   109A      0.682988   110A      0.683313  
     111A      0.700019   112A      0.707112   113A      0.734392  
     114A      0.734732   115A      0.755238   116A      0.764053  
     117A      0.771314   118A      0.772818   119A      0.785341  
     120A      0.789121   121A      0.791008   122A      0.800537  
     123A      0.809560   124A      0.825505   125A      0.836764  
     126A      0.845038   127A      0.849642   128A      0.850975  
     129A      0.863076   130A      0.870771   131A      0.873829  
     132A      0.888329   133A      0.892320   134A      0.902293  
     135A      0.917110   136A      0.933558   137A      0.934378  
     138A      0.944112   139A      0.951906   140A      0.957631  
     141A      0.980165   142A      0.984488   143A      0.995491  
     144A      1.004320   145A      1.010822   146A      1.011927  
     147A      1.023848   148A      1.040543   149A      1.051737  
     150A      1.059735   151A      1.062951   152A      1.066298  
     153A      1.084339   154A      1.088883   155A      1.101889  
     156A      1.113768   157A      1.119564   158A      1.145115  
     159A      1.157258   160A      1.162863   161A      1.172782  
     162A      1.181347   163A      1.185057   164A      1.211541  
     165A      1.221499   166A      1.226215   167A      1.251410  
     168A      1.259927   169A      1.265376   170A      1.267589  
     171A      1.282043   172A      1.294715   173A      1.294976  
     174A      1.313804   175A      1.336010   176A      1.342970  
     177A      1.351218   178A      1.354990   179A      1.357567  
     180A      1.389951   181A      1.390399   182A      1.412777  
     183A      1.423526   184A      1.435929   185A      1.444357  
     186A      1.445015   187A      1.466278   188A      1.472927  
     189A      1.477435   190A      1.479769   191A      1.495751  
     192A      1.514287   193A      1.520156   194A      1.556578  
     195A      1.557214   196A      1.578605   197A      1.587595  
     198A      1.592072   199A      1.600992   200A      1.613369  
     201A      1.616301   202A      1.632230   203A      1.634214  
     204A      1.646223   205A      1.652737   206A      1.688130  
     207A      1.700333   208A      1.701660   209A      1.718015  
     210A      1.737113   211A      1.748174   212A      1.777317  
     213A      1.789718   214A      1.798431   215A      1.830213  
     216A      1.838196   217A      1.859442   218A      1.863833  
     219A      1.897511   220A      1.906265   221A      1.919539  
     222A      1.923756   223A      1.924677   224A      1.944377  
     225A      1.945515   226A      1.963391   227A      1.998610  
     228A      2.003924   229A      2.033577   230A      2.035675  
     231A      2.109506   232A      2.127514   233A      2.134442  
     234A      2.186276   235A      2.219300   236A      2.338797  
     237A      2.339746   238A      2.352656   239A      2.402455  
     240A      2.419054   241A      2.440291   242A      2.504406  
     243A      2.558554   244A      2.595389   245A      2.610569  
     246A      2.640906   247A      2.647855   248A      2.707959  
     249A      2.730569   250A      2.735662   251A      2.777468  
     252A      2.783601   253A      2.791922   254A      2.797569  
     255A      2.824738   256A      2.850033   257A      2.885400  
     258A      2.887269   259A      2.897028   260A      2.900754  
     261A      2.923616   262A      2.946427   263A      2.969130  
     264A      2.987081   265A      3.006762   266A      3.007615  
     267A      3.033413   268A      3.039206   269A      3.060173  
     270A      3.067279   271A      3.093573   272A      3.109453  
     273A      3.119416   274A      3.128278   275A      3.138870  
     276A      3.143083   277A      3.148239   278A      3.158681  
     279A      3.207330   280A      3.247046   281A      3.271312  
     282A      3.277355   283A      3.302155   284A      3.315323  
     285A      3.337301   286A      3.358095   287A      3.366464  
     288A      3.384683   289A      3.415744   290A      3.431183  
     291A      3.437184   292A      3.445524   293A      3.455214  
     294A      3.471292   295A      3.479180   296A      3.494159  
     297A      3.502137   298A      3.508536   299A      3.533740  
     300A      3.545953   301A      3.557126   302A      3.566535  
     303A      3.569090   304A      3.589980   305A      3.593264  
     306A      3.597725   307A      3.597816   308A      3.606882  
     309A      3.622003   310A      3.627005   311A      3.636662  
     312A      3.694453   313A      3.695108   314A      3.716983  
     315A      3.741634   316A      3.762777   317A      3.779223  
     318A      3.780964   319A      3.802908   320A      3.812600  
     321A      3.823418   322A      3.835698   323A      3.862415  
     324A      3.877227   325A      3.877288   326A      3.919383  
     327A      3.926271   328A      3.935572   329A      3.941745  
     330A      3.952925   331A      3.972982   332A      3.973861  
     333A      4.000079   334A      4.002847   335A      4.013273  
     336A      4.049525   337A      4.061481   338A      4.112779  
     339A      4.120566   340A      4.127356   341A      4.156926  
     342A      4.186078   343A      4.188538   344A      4.214821  
     345A      4.235114   346A      4.243111   347A      4.261750  
     348A      4.274169   349A      4.289702   350A      4.306051  
     351A      4.311243   352A      4.327161   353A      4.329346  
     354A      4.333824   355A      4.344483   356A      4.353137  
     357A      4.361636   358A      4.375957   359A      4.411305  
     360A      4.417186   361A      4.426364   362A      4.449144  
     363A      4.477919   364A      4.482836   365A      4.503539  
     366A      4.511622   367A      4.514847   368A      4.531754  
     369A      4.545428   370A      4.554909   371A      4.586914  
     372A      4.603686   373A      4.607033   374A      4.626565  
     375A      4.648195   376A      4.670332   377A      4.672908  
     378A      4.674183   379A      4.690966   380A      4.691299  
     381A      4.722237   382A      4.741072   383A      4.752103  
     384A      4.772726   385A      4.786910   386A      4.815499  
     387A      4.821241   388A      4.830613   389A      4.834331  
     390A      4.838846   391A      4.857539   392A      4.864153  
     393A      4.874100   394A      4.905576   395A      4.911023  
     396A      4.945665   397A      4.968066   398A      4.972484  
     399A      4.988475   400A      4.993486   401A      5.004318  
     402A      5.051338   403A      5.060278   404A      5.086202  
     405A      5.093279   406A      5.113485   407A      5.118017  
     408A      5.133163   409A      5.142453   410A      5.152292  
     411A      5.172855   412A      5.240650   413A      5.273051  
     414A      5.275984   415A      5.294510   416A      5.307304  
     417A      5.343797   418A      5.357715   419A      5.362382  
     420A      5.383863   421A      5.403270   422A      5.432602  
     423A      5.456139   424A      5.478852   425A      5.552739  
     426A      5.565410   427A      5.582028   428A      5.608381  
     429A      5.630614   430A      5.669762   431A      5.685325  
     432A      5.701895   433A      5.735540   434A      5.754754  
     435A      5.758693   436A      5.768355   437A      5.806446  
     438A      5.860655   439A      5.887799   440A      5.896912  
     441A      5.936085   442A      5.938188   443A      5.975606  
     444A      5.988086   445A      6.051750   446A      6.073308  
     447A      6.114381   448A      6.118789   449A      6.151207  
     450A      6.167663   451A      6.249600   452A      6.270392  
     453A      6.289998   454A      6.337073   455A      6.448915  
     456A      6.496587   457A      6.499523   458A      6.519472  
     459A      6.519592   460A      6.538805   461A      6.574063  
     462A      6.575561   463A      6.657970   464A      6.746487  
     465A      6.769688   466A      6.819930   467A      6.984969  
     468A      7.043416   469A      7.150017   470A      7.195202  
     471A      7.238693   472A      7.243516   473A      7.285500  
     474A      7.417978   475A      7.430662   476A      7.526338  
     477A      7.526859   478A      7.550563   479A      7.708424  
     480A      7.728729   481A      7.796165   482A      7.814596  
     483A      7.852981   484A      7.859983   485A      7.952794  
     486A      8.044546   487A      8.148935   488A      8.350416  
     489A      8.663351   490A      8.872819   491A      9.142397  
     492A      9.428087   493A      9.700166   494A      9.779057  
     495A      9.860774   496A      9.905437   497A      9.909098  
     498A      9.930255   499A      9.955706   500A     10.100541  
     501A     10.393141   502A     10.501906   503A     11.054667  
     504A     11.370754   505A     11.544259   506A     11.618350  
     507A     11.964543   508A     12.557443   509A     13.128631  
     510A     13.779711   511A     13.901231   512A     13.992765  
     513A     14.401059   514A     14.455673   515A     14.537727  
     516A     42.820405   517A     46.030598   518A     60.955667  
     519A     61.735673  

    Final Occupation by Irrep:
              A 
    DOCC [    20 ]

  @DF-RHF Final Energy:  -231.07098645388456

   => Energetics <=

    Nuclear Repulsion Energy =            172.5042638726604309
    One-Electron Energy =                -654.8680757664114935
    Two-Electron Energy =                 251.2928254398665047
    Total Energy =                       -231.0709864538845579

Computation Completed


Properties will be evaluated at   0.000000,   0.000000,   0.000000 [a0]

Properties computed using the SCF density matrix

  Nuclear Dipole Moment: [e a0]
     X:   187.1858      Y:     0.1750      Z:     0.0041

  Electronic Dipole Moment: [e a0]
     X:  -186.5352      Y:     0.8709      Z:    -0.0042

  Dipole Moment: [e a0]
     X:     0.6506      Y:     1.0459      Z:    -0.0001     Total:     1.2317

  Dipole Moment: [D]
     X:     1.6536      Y:     2.6583      Z:    -0.0003     Total:     3.1307


*** tstop() called on r282 at Fri Sep 10 13:34:39 2021
Module time:
	user time   =      41.55 seconds =       0.69 minutes
	system time =       0.73 seconds =       0.01 minutes
	total time  =         43 seconds =       0.72 minutes
Total time:
	user time   =     156.14 seconds =       2.60 minutes
	system time =       2.86 seconds =       0.05 minutes
	total time  =        160 seconds =       2.67 minutes
  Constructing Basis Sets for SAPT...

   => Loading Basis Set <=

    Name: (JUN-CC-PVTZ AUX)
    Role: RIFIT
    Keyword: DF_BASIS_SAPT
    atoms 1, 5, 10-11, 14, 18      entry C          line   132 file /home/r08543048/miniconda3/share/psi4/basis/jun-cc-pvtz-ri.gbs 
    atoms 2-3, 12                  entry O          line   244 file /home/r08543048/miniconda3/share/psi4/basis/jun-cc-pvtz-ri.gbs 
    atoms 4, 6-9, 13, 15-17, 19-21 entry H          line    30 file /home/r08543048/miniconda3/share/psi4/basis/jun-cc-pvtz-ri.gbs 


  //>>>>>>>>>>>>>>>>>>>>>>>>>>>>>>>>>>>//
  //               SAPT0               //
  //<<<<<<<<<<<<<<<<<<<<<<<<<<<<<<<<<<<//


*** tstart() called on r282
*** at Fri Sep 10 13:34:39 2021

        SAPT0  
    Ed Hohenstein
     6 June 2009

      Orbital Information
  --------------------------
    NSO        =       519
    NMO        =       519
    NRI        =      1233
    NOCC A     =        16
    NOCC B     =        20
    FOCC A     =         0
    FOCC B     =         0
    NVIR A     =       503
    NVIR B     =       499

    Elst10,r            =    -0.027493872649 [Eh]
    Exch10              =     0.025143681281 [Eh]
    Exch10 (S^2)        =     0.024903639705 [Eh]

    Iter     Energy [mEh]          dE [mEh]         Residual      Time [s]
       1      -3.86829222       3.868292224      10.024769033             2
       2      -4.47581467       0.607522450       4.960500658             3
       3      -4.62186174       0.146047062       1.413156560             4
       4      -4.59678465      -0.025077087       0.584218936             5
       5      -4.59002989      -0.006754763       0.178567064             6
       6      -4.59266818       0.002638300       0.080439417             7
       7      -4.59353421       0.000866022       0.021866862             8
       8      -4.59329381      -0.000240394       0.006878126             9
       9      -4.59320722      -0.000086596       0.001630301            10
      10      -4.59323006       0.000022840       0.000404746            11
      11      -4.59323012       0.000000061       0.000075786            12
      12      -4.59322918      -0.000000936       0.000014732            14
      13      -4.59322932       0.000000142       0.000003977            15
      14      -4.59322934       0.000000016       0.000001117            16
      15      -4.59322933      -0.000000010       0.000000257            17

    CHF Iterations converged


    Iter     Energy [mEh]          dE [mEh]         Residual      Time [s]
       1      -7.18243360       7.182433596      21.433994291             1
       2      -8.37228281       1.189849211      11.981621881             2
       3      -9.34393951       0.971656703       2.761805534             3
       4      -9.27406563      -0.069873882       1.119107197             4
       5      -9.26040521      -0.013660417       0.352565715             6
       6      -9.26877479       0.008369575       0.121227042             7
       7      -9.26954924       0.000774458       0.024818784             8
       8      -9.26909355      -0.000455693       0.007935838             9
       9      -9.26903334      -0.000060209       0.001846972            10
      10      -9.26907035       0.000037010       0.000373320            11
      11      -9.26906829      -0.000002058       0.000079135            13
      12      -9.26906750      -0.000000794       0.000017950            14
      13      -9.26906765       0.000000148       0.000005249            15
      14      -9.26906769       0.000000041       0.000001358            16
      15      -9.26906768      -0.000000010       0.000000274            19

    CHF Iterations converged

    Ind20,r (A<-B)      =    -0.004593229328 [Eh]
    Ind20,r (B<-A)      =    -0.009269067679 [Eh]
    Ind20,r             =    -0.013862297007 [Eh]
    Exch-Ind20,r (A<-B) =     0.003287674011 [Eh]
    Exch-Ind20,r (B<-A) =     0.004005507530 [Eh]
    Exch-Ind20,r        =     0.007293181541 [Eh]
    Disp20              =    -0.009913016962 [Eh]
    Disp20 (SS)         =    -0.004956508481 [Eh]
    Disp20 (OS)         =    -0.004956508481 [Eh]
    Exch-Disp20         =     0.001750920749 [Eh]
    Exch-Disp20 (SS)    =     0.001093343957 [Eh]
    Exch-Disp20 (OS)    =     0.000657576792 [Eh]

    SAPT Results 
  --------------------------------------------------------------------------------------------------------
    Electrostatics                -27.49387265 [mEh]     -17.25266556 [kcal/mol]     -72.18515269 [kJ/mol]
      Elst10,r                    -27.49387265 [mEh]     -17.25266556 [kcal/mol]     -72.18515269 [kJ/mol]

    Exchange                       25.14368128 [mEh]      15.77789821 [kcal/mol]      66.01472611 [kJ/mol]
      Exch10                       25.14368128 [mEh]      15.77789821 [kcal/mol]      66.01472611 [kJ/mol]
      Exch10(S^2)                  24.90363971 [mEh]      15.62726985 [kcal/mol]      65.38449704 [kJ/mol]

    Induction                     -11.10024025 [mEh]      -6.96550592 [kcal/mol]     -29.14367677 [kJ/mol]
      Ind20,r                     -13.86229701 [mEh]      -8.69872270 [kcal/mol]     -36.39545578 [kJ/mol]
      Exch-Ind20,r                  7.29318154 [mEh]       4.57654051 [kcal/mol]      19.14824550 [kJ/mol]
      delta HF,r (2)               -4.53112479 [mEh]      -2.84332373 [kcal/mol]     -11.89646649 [kJ/mol]

    Dispersion                     -8.16209621 [mEh]      -5.12179270 [kcal/mol]     -21.42958065 [kJ/mol]
      Disp20                       -9.91301696 [mEh]      -6.22051206 [kcal/mol]     -26.02662245 [kJ/mol]
      Exch-Disp20                   1.75092075 [mEh]       1.09871936 [kcal/mol]       4.59704179 [kJ/mol]
      Disp20 (SS)                  -4.95650848 [mEh]      -3.11025603 [kcal/mol]     -13.01331122 [kJ/mol]
      Disp20 (OS)                  -4.95650848 [mEh]      -3.11025603 [kcal/mol]     -13.01331122 [kJ/mol]
      Exch-Disp20 (SS)              1.09334396 [mEh]       0.68608369 [kcal/mol]       2.87057416 [kJ/mol]
      Exch-Disp20 (OS)              0.65757679 [mEh]       0.41263567 [kcal/mol]       1.72646763 [kJ/mol]

  Total HF                        -13.45043162 [mEh]      -8.44027327 [kcal/mol]     -35.31410336 [kJ/mol]
  Total SAPT0                     -21.61252783 [mEh]     -13.56206597 [kcal/mol]     -56.74368401 [kJ/mol]

  Special recipe for scaled SAPT0 (see Manual):
    Electrostatics sSAPT0         -27.49387265 [mEh]     -17.25266556 [kcal/mol]     -72.18515269 [kJ/mol]
    Exchange sSAPT0                25.14368128 [mEh]      15.77789821 [kcal/mol]      66.01472611 [kJ/mol]
    Induction sSAPT0              -10.88730808 [mEh]      -6.83188897 [kcal/mol]     -28.58462343 [kJ/mol]
    Dispersion sSAPT0              -8.11097622 [mEh]      -5.08971442 [kcal/mol]     -21.29536514 [kJ/mol]
  Total sSAPT0                    -21.34847567 [mEh]     -13.39637074 [kcal/mol]     -56.05041516 [kJ/mol]
  --------------------------------------------------------------------------------------------------------

*** tstop() called on r282 at Fri Sep 10 13:37:08 2021
Module time:
	user time   =     123.95 seconds =       2.07 minutes
	system time =      20.77 seconds =       0.35 minutes
	total time  =        149 seconds =       2.48 minutes
Total time:
	user time   =     280.23 seconds =       4.67 minutes
	system time =      23.63 seconds =       0.39 minutes
	total time  =        309 seconds =       5.15 minutes

    Psi4 stopped on: Friday, 10 September 2021 01:37PM
    Psi4 wall time for execution: 0:05:08.83

*** Psi4 exiting successfully. Buy a developer a beer!
