
    -----------------------------------------------------------------------
          Psi4: An Open-Source Ab Initio Electronic Structure Package
                               Psi4 1.3.2 release

                         Git: Rev {HEAD} ecbda83 


    R. M. Parrish, L. A. Burns, D. G. A. Smith, A. C. Simmonett,
    A. E. DePrince III, E. G. Hohenstein, U. Bozkaya, A. Yu. Sokolov,
    R. Di Remigio, R. M. Richard, J. F. Gonthier, A. M. James,
    H. R. McAlexander, A. Kumar, M. Saitow, X. Wang, B. P. Pritchard,
    P. Verma, H. F. Schaefer III, K. Patkowski, R. A. King, E. F. Valeev,
    F. A. Evangelista, J. M. Turney, T. D. Crawford, and C. D. Sherrill,
    J. Chem. Theory Comput. 13(7) pp 3185--3197 (2017).
    (doi: 10.1021/acs.jctc.7b00174)


                         Additional Contributions by
    P. Kraus, H. Kruse, M. H. Lechner, M. C. Schieber, R. A. Shaw,
    A. Alenaizan, R. Galvelis, Z. L. Glick, S. Lehtola, and J. P. Misiewicz

    -----------------------------------------------------------------------


    Psi4 started on: Friday, 10 September 2021 01:02PM

    Process ID: 56660
    Host:       r282
    PSIDATADIR: /home/r08543048/miniconda3/share/psi4
    Memory:     500.0 MiB
    Threads:    1
    
  ==> Input File <==

--------------------------------------------------------------------------
# Any line starting with the # character is a comment line
#! Sample  computation

memory 22 gb

molecule Dimer {
0 1
 C  3.439209    0.101712   -0.000131
 O  2.867856   -1.097744    0.000011
 O  2.859074    1.167713   -0.000181
 H  4.528698    0.006128   -0.000206
 H  1.882821   -0.977133    0.000070
 
 
 
 
 
 

    
 --
0 1
 H  0.464104    1.208550   -0.000160
 C -1.710604    0.732632   -0.000029
 C -0.258780    0.379613   -0.000020
 O  0.152483   -0.774105    0.000123
 H -1.879182    1.379826   -0.868621
 C -2.655833   -0.455529    0.000114
 H -2.448416   -1.076890   -0.871934
 H -2.448376   -1.076714    0.872276
 H -1.879143    1.380001    0.868440
 C -4.113018   -0.012157    0.000102
 H -4.337980    0.590182    0.880967
 H -4.338017    0.590014   -0.880869
 H -4.785652   -0.868492    0.000198


 
 







units angstrom

no_reorient
symmetry c1
}

set globals{
  basis jun-cc-pvtz
}

energy('sapt0')


--------------------------------------------------------------------------

  Memory set to  20.489 GiB by Python driver.

  //>>>>>>>>>>>>>>>>>>>>>>>>>>>>>>>>>>>//
  //              Dimer HF             //
  //<<<<<<<<<<<<<<<<<<<<<<<<<<<<<<<<<<<//


*** tstart() called on r282
*** at Fri Sep 10 13:02:46 2021

   => Loading Basis Set <=

    Name: JUN-CC-PVTZ
    Role: ORBITAL
    Keyword: BASIS
    atoms 1, 7-8, 11, 15        entry C          line   217 file /home/r08543048/miniconda3/share/psi4/basis/jun-cc-pvtz.gbs 
    atoms 2-3, 9                entry O          line   305 file /home/r08543048/miniconda3/share/psi4/basis/jun-cc-pvtz.gbs 
    atoms 4-6, 10, 12-14, 16-18 entry H          line    36 file /home/r08543048/miniconda3/share/psi4/basis/jun-cc-pvtz.gbs 


         ---------------------------------------------------------
                                   SCF
               by Justin Turney, Rob Parrish, Andy Simmonett
                          and Daniel G. A. Smith
                              RHF Reference
                        1 Threads,  20980 MiB Core
         ---------------------------------------------------------

  ==> Geometry <==

    Molecular point group: c1
    Full point group: C1

    Geometry (in Angstrom), charge = 0, multiplicity = 1:

       Center              X                  Y                   Z               Mass       
    ------------   -----------------  -----------------  -----------------  -----------------
         C            3.311379008751     0.111391829000    -0.000129665957    12.000000000000
         O            2.740026008751    -1.088064171000     0.000012334043    15.994914619570
         O            2.731244008751     1.177392829000    -0.000179665957    15.994914619570
         H            4.400868008751     0.015807829000    -0.000204665957     1.007825032230
         H            1.754991008751    -0.967453171000     0.000071334043     1.007825032230
         H            0.336274008751     1.218229829000    -0.000158665957     1.007825032230
         C           -1.838433991249     0.742311829000    -0.000027665957    12.000000000000
         C           -0.386609991249     0.389292829000    -0.000018665957    12.000000000000
         O            0.024653008751    -0.764425171000     0.000124334043    15.994914619570
         H           -2.007011991249     1.389505829000    -0.868619665957     1.007825032230
         C           -2.783662991249    -0.445849171000     0.000115334043    12.000000000000
         H           -2.576245991249    -1.067210171000    -0.871932665957     1.007825032230
         H           -2.576205991249    -1.067034171000     0.872277334043     1.007825032230
         H           -2.006972991249     1.389680829000     0.868441334043     1.007825032230
         C           -4.240847991249    -0.002477171000     0.000103334043    12.000000000000
         H           -4.465809991249     0.599861829000     0.880968334043     1.007825032230
         H           -4.465846991249     0.599693829000    -0.880867665957     1.007825032230
         H           -4.913481991249    -0.858812171000     0.000199334043     1.007825032230

  Running in c1 symmetry.

  Rotational constants: A =      0.22144  B =      0.02018  C =      0.01868 [cm^-1]
  Rotational constants: A =   6638.62160  B =    604.85390  C =    560.01977 [MHz]
  Nuclear repulsion =  356.417570112298961

  Charge       = 0
  Multiplicity = 1
  Electrons    = 64
  Nalpha       = 32
  Nbeta        = 32

  ==> Algorithm <==

  SCF Algorithm Type is DF.
  DIIS enabled.
  MOM disabled.
  Fractional occupation disabled.
  Guess Type is SAD.
  Energy threshold   = 1.00e-08
  Density threshold  = 1.00e-08
  Integral threshold = 0.00e+00

  ==> Primary Basis <==

  Basis Set: JUN-CC-PVTZ
    Blend: JUN-CC-PVTZ
    Number of shells: 164
    Number of basis function: 452
    Number of Cartesian functions: 510
    Spherical Harmonics?: true
    Max angular momentum: 3

   => Loading Basis Set <=

    Name: (JUN-CC-PVTZ AUX)
    Role: JKFIT
    Keyword: DF_BASIS_SCF
    atoms 1, 7-8, 11, 15        entry C          line   152 file /home/r08543048/miniconda3/share/psi4/basis/jun-cc-pvtz-jkfit.gbs 
    atoms 2-3, 9                entry O          line   272 file /home/r08543048/miniconda3/share/psi4/basis/jun-cc-pvtz-jkfit.gbs 
    atoms 4-6, 10, 12-14, 16-18 entry H          line    70 file /home/r08543048/miniconda3/share/psi4/basis/jun-cc-pvtz-jkfit.gbs 

  ==> Pre-Iterations <==

   -------------------------------------------------------
    Irrep   Nso     Nmo     Nalpha   Nbeta   Ndocc  Nsocc
   -------------------------------------------------------
     A        452     452       0       0       0       0
   -------------------------------------------------------
    Total     452     452      32      32      32       0
   -------------------------------------------------------

  ==> Integral Setup <==

  ==> DiskDFJK: Density-Fitted J/K Matrices <==

    J tasked:                  Yes
    K tasked:                  Yes
    wK tasked:                  No
    OpenMP threads:              1
    Integrals threads:           1
    Memory [MiB]:            15735
    Algorithm:                Core
    Integral Cache:           SAVE
    Schwarz Cutoff:          1E-12
    Fitting Condition:       1E-10

   => Auxiliary Basis Set <=

  Basis Set: (JUN-CC-PVTZ AUX)
    Blend: JUN-CC-PVTZ-JKFIT
    Number of shells: 332
    Number of basis function: 1060
    Number of Cartesian functions: 1278
    Spherical Harmonics?: true
    Max angular momentum: 4

  Minimum eigenvalue in the overlap matrix is 2.6159803308E-05.
  Using Symmetric Orthogonalization.

  SCF Guess: Superposition of Atomic Densities via on-the-fly atomic UHF.

  ==> Iterations <==

                           Total Energy        Delta E     RMS |[F,P]|

   @DF-RHF iter SAD:  -418.41015409830527   -4.18410e+02   0.00000e+00 
   @DF-RHF iter   1:  -419.63426789144381   -1.22411e+00   1.72698e-03 DIIS
   @DF-RHF iter   2:  -419.84117368791601   -2.06906e-01   1.06019e-03 DIIS
   @DF-RHF iter   3:  -419.92191798716215   -8.07443e-02   1.76223e-04 DIIS
   @DF-RHF iter   4:  -419.92606050294228   -4.14252e-03   7.90115e-05 DIIS
   @DF-RHF iter   5:  -419.92681049559957   -7.49993e-04   1.77383e-05 DIIS
   @DF-RHF iter   6:  -419.92687858064619   -6.80850e-05   8.33428e-06 DIIS
   @DF-RHF iter   7:  -419.92689285949905   -1.42789e-05   3.02611e-06 DIIS
   @DF-RHF iter   8:  -419.92689562009275   -2.76059e-06   1.22592e-06 DIIS
   @DF-RHF iter   9:  -419.92689605821732   -4.38125e-07   3.64313e-07 DIIS
   @DF-RHF iter  10:  -419.92689609411178   -3.58945e-08   1.26595e-07 DIIS
   @DF-RHF iter  11:  -419.92689609669833   -2.58655e-09   5.28426e-08 DIIS
   @DF-RHF iter  12:  -419.92689609710754   -4.09216e-10   1.57284e-08 DIIS
   @DF-RHF iter  13:  -419.92689609715370   -4.61569e-11   3.16152e-09 DIIS
  Energy and wave function converged.


  ==> Post-Iterations <==

    Orbital Energies [Eh]
    ---------------------

    Doubly Occupied:                                                      

       1A    -20.594477     2A    -20.577632     3A    -20.547439  
       4A    -11.379361     5A    -11.347797     6A    -11.250594  
       7A    -11.232840     8A    -11.223442     9A     -1.451028  
      10A     -1.408437    11A     -1.351671    12A     -1.092703  
      13A     -0.987616    14A     -0.875175    15A     -0.858355  
      16A     -0.785561    17A     -0.707748    18A     -0.702756  
      19A     -0.685214    20A     -0.659111    21A     -0.649475  
      22A     -0.613554    23A     -0.579348    24A     -0.578261  
      25A     -0.571207    26A     -0.520562    27A     -0.520371  
      28A     -0.499348    29A     -0.488398    30A     -0.472632  
      31A     -0.456972    32A     -0.440987  

    Virtual:                                                              

      33A      0.044832    34A      0.054559    35A      0.064794  
      36A      0.065146    37A      0.067195    38A      0.081713  
      39A      0.085209    40A      0.092153    41A      0.097119  
      42A      0.099703    43A      0.101158    44A      0.104492  
      45A      0.115490    46A      0.132407    47A      0.139704  
      48A      0.148528    49A      0.170251    50A      0.180926  
      51A      0.186786    52A      0.189135    53A      0.194387  
      54A      0.199539    55A      0.204172    56A      0.224864  
      57A      0.228993    58A      0.238610    59A      0.243986  
      60A      0.252748    61A      0.261649    62A      0.262741  
      63A      0.263491    64A      0.275021    65A      0.277076  
      66A      0.281705    67A      0.282359    68A      0.291463  
      69A      0.298747    70A      0.301538    71A      0.312207  
      72A      0.323081    73A      0.330018    74A      0.344247  
      75A      0.345858    76A      0.352230    77A      0.356073  
      78A      0.357516    79A      0.373114    80A      0.388333  
      81A      0.392316    82A      0.398289    83A      0.404602  
      84A      0.406421    85A      0.418440    86A      0.431041  
      87A      0.444814    88A      0.468085    89A      0.475702  
      90A      0.477475    91A      0.480479    92A      0.491763  
      93A      0.503615    94A      0.507668    95A      0.521052  
      96A      0.525575    97A      0.525912    98A      0.536351  
      99A      0.541491   100A      0.545554   101A      0.559278  
     102A      0.579620   103A      0.593139   104A      0.609234  
     105A      0.613149   106A      0.617127   107A      0.622001  
     108A      0.644051   109A      0.648688   110A      0.657432  
     111A      0.683178   112A      0.689811   113A      0.703514  
     114A      0.709007   115A      0.725366   116A      0.738512  
     117A      0.746470   118A      0.761842   119A      0.762713  
     120A      0.771607   121A      0.776272   122A      0.780628  
     123A      0.797720   124A      0.811671   125A      0.819969  
     126A      0.820679   127A      0.830765   128A      0.839468  
     129A      0.845957   130A      0.861261   131A      0.866180  
     132A      0.872654   133A      0.872662   134A      0.892792  
     135A      0.917621   136A      0.921329   137A      0.923290  
     138A      0.936827   139A      0.941274   140A      0.955347  
     141A      0.959768   142A      0.979199   143A      0.991180  
     144A      0.999638   145A      1.010191   146A      1.019315  
     147A      1.043710   148A      1.069209   149A      1.071716  
     150A      1.094842   151A      1.104725   152A      1.106153  
     153A      1.121409   154A      1.133294   155A      1.140973  
     156A      1.172714   157A      1.182926   158A      1.195622  
     159A      1.201565   160A      1.228840   161A      1.230263  
     162A      1.243590   163A      1.253673   164A      1.262894  
     165A      1.278784   166A      1.298533   167A      1.318088  
     168A      1.328334   169A      1.333020   170A      1.339517  
     171A      1.341493   172A      1.341495   173A      1.378715  
     174A      1.388676   175A      1.401408   176A      1.413314  
     177A      1.415187   178A      1.419532   179A      1.446550  
     180A      1.451842   181A      1.458116   182A      1.468376  
     183A      1.470258   184A      1.474881   185A      1.499457  
     186A      1.503210   187A      1.529026   188A      1.541980  
     189A      1.579433   190A      1.581911   191A      1.601590  
     192A      1.606189   193A      1.613974   194A      1.631911  
     195A      1.634798   196A      1.660437   197A      1.682870  
     198A      1.699174   199A      1.725390   200A      1.734988  
     201A      1.748892   202A      1.762367   203A      1.791241  
     204A      1.804051   205A      1.843014   206A      1.850817  
     207A      1.865217   208A      1.884438   209A      1.897380  
     210A      1.913687   211A      1.945102   212A      1.987445  
     213A      1.988800   214A      2.027744   215A      2.074828  
     216A      2.168523   217A      2.192981   218A      2.201050  
     219A      2.256412   220A      2.271303   221A      2.324605  
     222A      2.333605   223A      2.348152   224A      2.390307  
     225A      2.391023   226A      2.431239   227A      2.439954  
     228A      2.543947   229A      2.566164   230A      2.577163  
     231A      2.620734   232A      2.625500   233A      2.698878  
     234A      2.725662   235A      2.727406   236A      2.747868  
     237A      2.779671   238A      2.783239   239A      2.811669  
     240A      2.832146   241A      2.856681   242A      2.887771  
     243A      2.899078   244A      2.927642   245A      2.937801  
     246A      2.977826   247A      2.994335   248A      3.001686  
     249A      3.054670   250A      3.088284   251A      3.101910  
     252A      3.112672   253A      3.115146   254A      3.120489  
     255A      3.125286   256A      3.134268   257A      3.140623  
     258A      3.183895   259A      3.208507   260A      3.233832  
     261A      3.262047   262A      3.281689   263A      3.288054  
     264A      3.294100   265A      3.324126   266A      3.325647  
     267A      3.332412   268A      3.352638   269A      3.357423  
     270A      3.386614   271A      3.398585   272A      3.428394  
     273A      3.429086   274A      3.435991   275A      3.460191  
     276A      3.469188   277A      3.478717   278A      3.485396  
     279A      3.493433   280A      3.503878   281A      3.513215  
     282A      3.523829   283A      3.524032   284A      3.548402  
     285A      3.548845   286A      3.562219   287A      3.570281  
     288A      3.583514   289A      3.584662   290A      3.595510  
     291A      3.626977   292A      3.641263   293A      3.659235  
     294A      3.697860   295A      3.709495   296A      3.727158  
     297A      3.740719   298A      3.753651   299A      3.770582  
     300A      3.775069   301A      3.797463   302A      3.815306  
     303A      3.816668   304A      3.852380   305A      3.863826  
     306A      3.894061   307A      3.911059   308A      3.915973  
     309A      3.917311   310A      3.936197   311A      3.938482  
     312A      3.969638   313A      3.979931   314A      3.994982  
     315A      4.020422   316A      4.046489   317A      4.066900  
     318A      4.097289   319A      4.111994   320A      4.173192  
     321A      4.179299   322A      4.204007   323A      4.215891  
     324A      4.223798   325A      4.248349   326A      4.260660  
     327A      4.276690   328A      4.300294   329A      4.305868  
     330A      4.319239   331A      4.321352   332A      4.326719  
     333A      4.333198   334A      4.349213   335A      4.351956  
     336A      4.389979   337A      4.410359   338A      4.429191  
     339A      4.474903   340A      4.477807   341A      4.495704  
     342A      4.497037   343A      4.534319   344A      4.542073  
     345A      4.586407   346A      4.596414   347A      4.619157  
     348A      4.623191   349A      4.631924   350A      4.651115  
     351A      4.666170   352A      4.678606   353A      4.683627  
     354A      4.690109   355A      4.722832   356A      4.743643  
     357A      4.755874   358A      4.814075   359A      4.827944  
     360A      4.830411   361A      4.842288   362A      4.905474  
     363A      4.937607   364A      4.983059   365A      4.983325  
     366A      4.998974   367A      5.048186   368A      5.060699  
     369A      5.080145   370A      5.098770   371A      5.131178  
     372A      5.152674   373A      5.166045   374A      5.213689  
     375A      5.242552   376A      5.266937   377A      5.270339  
     378A      5.286291   379A      5.329338   380A      5.354806  
     381A      5.362456   382A      5.375152   383A      5.393732  
     384A      5.424706   385A      5.455212   386A      5.548566  
     387A      5.551856   388A      5.576039   389A      5.604008  
     390A      5.636242   391A      5.650123   392A      5.663447  
     393A      5.694430   394A      5.697951   395A      5.749017  
     396A      5.750489   397A      5.786327   398A      5.825353  
     399A      5.845621   400A      5.859889   401A      5.879103  
     402A      5.889103   403A      5.909866   404A      5.921830  
     405A      5.928934   406A      5.930336   407A      5.968705  
     408A      6.062738   409A      6.089254   410A      6.110652  
     411A      6.215189   412A      6.241425   413A      6.270071  
     414A      6.383761   415A      6.491034   416A      6.514937  
     417A      6.528288   418A      6.535132   419A      6.566721  
     420A      6.732498   421A      6.749254   422A      6.862622  
     423A      6.944799   424A      6.947302   425A      6.963528  
     426A      7.140281   427A      7.147302   428A      7.216056  
     429A      7.245364   430A      7.259477   431A      7.269173  
     432A      7.340667   433A      7.366390   434A      7.389138  
     435A      7.405799   436A      7.453309   437A      7.518734  
     438A      7.624226   439A      7.696458   440A      7.718907  
     441A      7.737380   442A      7.871973   443A      8.023883  
     444A      8.275356   445A     12.514739   446A     12.621342  
     447A     13.731255   448A     13.895082   449A     14.365989  
     450A     14.445399   451A     14.531760   452A     14.676996  

    Final Occupation by Irrep:
              A 
    DOCC [    32 ]

  @DF-RHF Final Energy:  -419.92689609715370

   => Energetics <=

    Nuclear Repulsion Energy =            356.4175701122989608
    One-Electron Energy =               -1280.4687934727717220
    Two-Electron Energy =                 504.1243272633190031
    Total Energy =                       -419.9268960971537012

Computation Completed


Properties will be evaluated at   0.000000,   0.000000,   0.000000 [a0]

Properties computed using the SCF density matrix

  Nuclear Dipole Moment: [e a0]
     X:   -15.4601      Y:     1.1707      Z:     0.0002

  Electronic Dipole Moment: [e a0]
     X:    14.5223      Y:    -0.7649      Z:    -0.0002

  Dipole Moment: [e a0]
     X:    -0.9378      Y:     0.4059      Z:    -0.0001     Total:     1.0218

  Dipole Moment: [D]
     X:    -2.3836      Y:     1.0316      Z:    -0.0002     Total:     2.5972


*** tstop() called on r282 at Fri Sep 10 13:03:33 2021
Module time:
	user time   =      45.81 seconds =       0.76 minutes
	system time =       1.09 seconds =       0.02 minutes
	total time  =         47 seconds =       0.78 minutes
Total time:
	user time   =      45.81 seconds =       0.76 minutes
	system time =       1.09 seconds =       0.02 minutes
	total time  =         47 seconds =       0.78 minutes

  //>>>>>>>>>>>>>>>>>>>>>>>>>>>>>>>>>>>//
  //            Monomer A HF           //
  //<<<<<<<<<<<<<<<<<<<<<<<<<<<<<<<<<<<//


*** tstart() called on r282
*** at Fri Sep 10 13:03:33 2021

   => Loading Basis Set <=

    Name: JUN-CC-PVTZ
    Role: ORBITAL
    Keyword: BASIS
    atoms 1, 7-8, 11, 15        entry C          line   217 file /home/r08543048/miniconda3/share/psi4/basis/jun-cc-pvtz.gbs 
    atoms 2-3, 9                entry O          line   305 file /home/r08543048/miniconda3/share/psi4/basis/jun-cc-pvtz.gbs 
    atoms 4-6, 10, 12-14, 16-18 entry H          line    36 file /home/r08543048/miniconda3/share/psi4/basis/jun-cc-pvtz.gbs 


         ---------------------------------------------------------
                                   SCF
               by Justin Turney, Rob Parrish, Andy Simmonett
                          and Daniel G. A. Smith
                              RHF Reference
                        1 Threads,  20980 MiB Core
         ---------------------------------------------------------

  ==> Geometry <==

    Molecular point group: c1
    Full point group: C1

    Geometry (in Angstrom), charge = 0, multiplicity = 1:

       Center              X                  Y                   Z               Mass       
    ------------   -----------------  -----------------  -----------------  -----------------
         C            3.311379008751     0.111391829000    -0.000129665957    12.000000000000
         O            2.740026008751    -1.088064171000     0.000012334043    15.994914619570
         O            2.731244008751     1.177392829000    -0.000179665957    15.994914619570
         H            4.400868008751     0.015807829000    -0.000204665957     1.007825032230
         H            1.754991008751    -0.967453171000     0.000071334043     1.007825032230
      Gh(H)           0.336274008751     1.218229829000    -0.000158665957     1.007825032230
      Gh(C)          -1.838433991249     0.742311829000    -0.000027665957    12.000000000000
      Gh(C)          -0.386609991249     0.389292829000    -0.000018665957    12.000000000000
      Gh(O)           0.024653008751    -0.764425171000     0.000124334043    15.994914619570
      Gh(H)          -2.007011991249     1.389505829000    -0.868619665957     1.007825032230
      Gh(C)          -2.783662991249    -0.445849171000     0.000115334043    12.000000000000
      Gh(H)          -2.576245991249    -1.067210171000    -0.871932665957     1.007825032230
      Gh(H)          -2.576205991249    -1.067034171000     0.872277334043     1.007825032230
      Gh(H)          -2.006972991249     1.389680829000     0.868441334043     1.007825032230
      Gh(C)          -4.240847991249    -0.002477171000     0.000103334043    12.000000000000
      Gh(H)          -4.465809991249     0.599861829000     0.880968334043     1.007825032230
      Gh(H)          -4.465846991249     0.599693829000    -0.880867665957     1.007825032230
      Gh(H)          -4.913481991249    -0.858812171000     0.000199334043     1.007825032230

  Running in c1 symmetry.

  Rotational constants: A =      0.22144  B =      0.02018  C =      0.01868 [cm^-1]
  Rotational constants: A =   6638.62160  B =    604.85390  C =    560.01977 [MHz]
  Nuclear repulsion =   70.030775351666222

  Charge       = 0
  Multiplicity = 1
  Electrons    = 24
  Nalpha       = 12
  Nbeta        = 12

  ==> Algorithm <==

  SCF Algorithm Type is DF.
  DIIS enabled.
  MOM disabled.
  Fractional occupation disabled.
  Guess Type is SAD.
  Energy threshold   = 1.00e-08
  Density threshold  = 1.00e-08
  Integral threshold = 0.00e+00

  ==> Primary Basis <==

  Basis Set: JUN-CC-PVTZ
    Blend: JUN-CC-PVTZ
    Number of shells: 164
    Number of basis function: 452
    Number of Cartesian functions: 510
    Spherical Harmonics?: true
    Max angular momentum: 3

   => Loading Basis Set <=

    Name: (JUN-CC-PVTZ AUX)
    Role: JKFIT
    Keyword: DF_BASIS_SCF
    atoms 1, 7-8, 11, 15        entry C          line   152 file /home/r08543048/miniconda3/share/psi4/basis/jun-cc-pvtz-jkfit.gbs 
    atoms 2-3, 9                entry O          line   272 file /home/r08543048/miniconda3/share/psi4/basis/jun-cc-pvtz-jkfit.gbs 
    atoms 4-6, 10, 12-14, 16-18 entry H          line    70 file /home/r08543048/miniconda3/share/psi4/basis/jun-cc-pvtz-jkfit.gbs 

  ==> Pre-Iterations <==

   -------------------------------------------------------
    Irrep   Nso     Nmo     Nalpha   Nbeta   Ndocc  Nsocc
   -------------------------------------------------------
     A        452     452       0       0       0       0
   -------------------------------------------------------
    Total     452     452      12      12      12       0
   -------------------------------------------------------

  ==> Integral Setup <==

  ==> DiskDFJK: Density-Fitted J/K Matrices <==

    J tasked:                  Yes
    K tasked:                  Yes
    wK tasked:                  No
    OpenMP threads:              1
    Integrals threads:           1
    Memory [MiB]:            15735
    Algorithm:                Core
    Integral Cache:           LOAD
    Schwarz Cutoff:          1E-12
    Fitting Condition:       1E-10

   => Auxiliary Basis Set <=

  Basis Set: (JUN-CC-PVTZ AUX)
    Blend: JUN-CC-PVTZ-JKFIT
    Number of shells: 332
    Number of basis function: 1060
    Number of Cartesian functions: 1278
    Spherical Harmonics?: true
    Max angular momentum: 4

  Minimum eigenvalue in the overlap matrix is 2.6159803308E-05.
  Using Symmetric Orthogonalization.

  SCF Guess: Superposition of Atomic Densities via on-the-fly atomic UHF.

  ==> Iterations <==

                           Total Energy        Delta E     RMS |[F,P]|

   @DF-RHF iter SAD:  -187.99881869531720   -1.87999e+02   0.00000e+00 
   @DF-RHF iter   1:  -188.73397246753143   -7.35154e-01   1.16107e-03 DIIS
   @DF-RHF iter   2:  -188.79611567829664   -6.21432e-02   8.27148e-04 DIIS
   @DF-RHF iter   3:  -188.83999693291901   -4.38813e-02   9.61507e-05 DIIS
   @DF-RHF iter   4:  -188.84110169353013   -1.10476e-03   5.12274e-05 DIIS
   @DF-RHF iter   5:  -188.84137988130254   -2.78188e-04   1.24101e-05 DIIS
   @DF-RHF iter   6:  -188.84142197210531   -4.20908e-05   5.40460e-06 DIIS
   @DF-RHF iter   7:  -188.84143148503148   -9.51293e-06   1.91967e-06 DIIS
   @DF-RHF iter   8:  -188.84143253444790   -1.04942e-06   5.83492e-07 DIIS
   @DF-RHF iter   9:  -188.84143263192695   -9.74790e-08   1.68424e-07 DIIS
   @DF-RHF iter  10:  -188.84143263987295   -7.94600e-09   3.80791e-08 DIIS
   @DF-RHF iter  11:  -188.84143264022853   -3.55584e-10   6.63392e-09 DIIS
  Energy and wave function converged.


  ==> Post-Iterations <==

    Orbital Energies [Eh]
    ---------------------

    Doubly Occupied:                                                      

       1A    -20.635638     2A    -20.564762     3A    -11.397674  
       4A     -1.478358     5A     -1.372433     6A     -0.898856  
       7A     -0.728184     8A     -0.711968     9A     -0.641097  
      10A     -0.600185    11A     -0.493707    12A     -0.472770  

    Virtual:                                                              

      13A      0.028636    14A      0.043778    15A      0.054926  
      16A      0.058930    17A      0.060954    18A      0.076664  
      19A      0.076924    20A      0.087033    21A      0.097012  
      22A      0.098522    23A      0.102996    24A      0.104756  
      25A      0.120105    26A      0.135124    27A      0.136183  
      28A      0.142651    29A      0.152638    30A      0.160740  
      31A      0.170542    32A      0.173891    33A      0.176893  
      34A      0.177420    35A      0.193628    36A      0.210454  
      37A      0.210997    38A      0.217452    39A      0.236861  
      40A      0.241193    41A      0.243249    42A      0.251496  
      43A      0.253077    44A      0.269998    45A      0.275289  
      46A      0.280872    47A      0.284731    48A      0.294455  
      49A      0.301293    50A      0.301356    51A      0.311838  
      52A      0.333179    53A      0.342228    54A      0.344875  
      55A      0.360840    56A      0.366965    57A      0.368005  
      58A      0.378456    59A      0.379801    60A      0.389813  
      61A      0.403741    62A      0.410830    63A      0.416400  
      64A      0.430420    65A      0.435840    66A      0.437758  
      67A      0.448854    68A      0.462940    69A      0.470046  
      70A      0.478231    71A      0.482707    72A      0.494591  
      73A      0.497776    74A      0.507070    75A      0.518754  
      76A      0.530880    77A      0.542846    78A      0.551920  
      79A      0.553159    80A      0.572205    81A      0.576004  
      82A      0.580517    83A      0.585682    84A      0.588893  
      85A      0.607587    86A      0.610759    87A      0.622831  
      88A      0.628484    89A      0.637660    90A      0.649728  
      91A      0.660405    92A      0.673480    93A      0.690194  
      94A      0.691065    95A      0.705291    96A      0.725900  
      97A      0.732547    98A      0.737990    99A      0.747353  
     100A      0.754377   101A      0.781198   102A      0.790792  
     103A      0.801537   104A      0.804987   105A      0.824941  
     106A      0.839872   107A      0.868506   108A      0.888197  
     109A      0.895775   110A      0.911079   111A      0.917743  
     112A      0.962689   113A      0.979414   114A      0.991955  
     115A      1.009222   116A      1.014824   117A      1.037564  
     118A      1.038619   119A      1.043984   120A      1.058093  
     121A      1.063849   122A      1.071883   123A      1.073196  
     124A      1.093240   125A      1.097325   126A      1.115418  
     127A      1.148069   128A      1.158670   129A      1.176487  
     130A      1.179265   131A      1.183034   132A      1.188053  
     133A      1.191199   134A      1.216215   135A      1.228627  
     136A      1.231165   137A      1.236719   138A      1.245975  
     139A      1.260184   140A      1.268143   141A      1.281411  
     142A      1.292904   143A      1.308255   144A      1.318675  
     145A      1.326580   146A      1.327781   147A      1.334988  
     148A      1.338533   149A      1.358629   150A      1.365264  
     151A      1.374637   152A      1.381245   153A      1.390410  
     154A      1.412890   155A      1.415843   156A      1.416953  
     157A      1.428641   158A      1.454139   159A      1.455190  
     160A      1.480255   161A      1.485972   162A      1.523100  
     163A      1.530988   164A      1.540779   165A      1.544770  
     166A      1.565635   167A      1.573326   168A      1.585489  
     169A      1.596758   170A      1.611684   171A      1.612150  
     172A      1.645881   173A      1.652961   174A      1.687908  
     175A      1.703820   176A      1.710447   177A      1.711449  
     178A      1.742822   179A      1.758323   180A      1.802939  
     181A      1.847288   182A      1.848160   183A      1.862928  
     184A      1.893254   185A      1.914557   186A      1.931686  
     187A      1.963406   188A      1.983766   189A      2.007242  
     190A      2.033889   191A      2.065971   192A      2.121695  
     193A      2.146170   194A      2.168950   195A      2.172428  
     196A      2.184247   197A      2.204101   198A      2.214209  
     199A      2.237183   200A      2.279269   201A      2.287706  
     202A      2.297500   203A      2.321401   204A      2.346275  
     205A      2.377445   206A      2.388080   207A      2.391455  
     208A      2.395338   209A      2.419414   210A      2.445420  
     211A      2.462536   212A      2.498928   213A      2.518786  
     214A      2.529381   215A      2.566233   216A      2.589914  
     217A      2.622557   218A      2.661489   219A      2.676830  
     220A      2.722448   221A      2.737640   222A      2.772211  
     223A      2.827476   224A      2.829705   225A      2.869031  
     226A      2.940169   227A      2.965462   228A      2.989562  
     229A      3.105082   230A      3.140433   231A      3.214887  
     232A      3.275300   233A      3.302789   234A      3.305412  
     235A      3.358710   236A      3.448674   237A      3.465497  
     238A      3.488161   239A      3.505927   240A      3.509108  
     241A      3.539969   242A      3.541967   243A      3.567824  
     244A      3.584942   245A      3.595573   246A      3.601425  
     247A      3.603604   248A      3.623372   249A      3.624647  
     250A      3.645827   251A      3.682808   252A      3.694988  
     253A      3.744818   254A      3.770499   255A      3.779977  
     256A      3.806358   257A      3.815267   258A      3.828095  
     259A      3.829551   260A      3.835147   261A      3.857308  
     262A      3.867718   263A      3.872369   264A      3.879665  
     265A      3.884679   266A      3.899807   267A      3.910304  
     268A      3.933361   269A      3.953222   270A      3.974224  
     271A      3.981224   272A      3.998851   273A      4.026531  
     274A      4.029779   275A      4.049075   276A      4.072503  
     277A      4.134278   278A      4.139103   279A      4.168768  
     280A      4.172709   281A      4.185072   282A      4.221211  
     283A      4.255996   284A      4.286706   285A      4.306440  
     286A      4.317815   287A      4.329336   288A      4.339295  
     289A      4.380861   290A      4.412156   291A      4.422728  
     292A      4.458673   293A      4.480328   294A      4.488635  
     295A      4.494701   296A      4.517758   297A      4.528193  
     298A      4.552486   299A      4.555286   300A      4.556308  
     301A      4.561328   302A      4.574173   303A      4.606078  
     304A      4.612803   305A      4.622824   306A      4.657087  
     307A      4.660735   308A      4.670180   309A      4.688362  
     310A      4.701930   311A      4.703532   312A      4.717828  
     313A      4.727783   314A      4.736325   315A      4.737208  
     316A      4.751500   317A      4.763157   318A      4.798208  
     319A      4.800787   320A      4.822119   321A      4.843047  
     322A      4.856875   323A      4.870168   324A      4.872382  
     325A      4.897388   326A      4.901016   327A      4.909250  
     328A      4.921483   329A      4.946426   330A      4.952617  
     331A      4.965356   332A      4.986972   333A      5.003685  
     334A      5.016503   335A      5.017921   336A      5.028988  
     337A      5.031489   338A      5.061940   339A      5.088740  
     340A      5.091823   341A      5.109761   342A      5.128145  
     343A      5.167995   344A      5.174854   345A      5.203947  
     346A      5.215760   347A      5.234344   348A      5.333991  
     349A      5.344633   350A      5.360440   351A      5.382252  
     352A      5.435979   353A      5.453217   354A      5.512952  
     355A      5.595751   356A      5.614370   357A      5.614500  
     358A      5.637152   359A      5.643524   360A      5.659953  
     361A      5.677449   362A      5.714506   363A      5.800919  
     364A      5.801652   365A      5.816876   366A      5.852080  
     367A      5.875647   368A      5.884222   369A      5.910003  
     370A      6.019728   371A      6.030648   372A      6.036216  
     373A      6.039065   374A      6.123787   375A      6.169399  
     376A      6.181288   377A      6.186073   378A      6.237434  
     379A      6.240187   380A      6.294494   381A      6.345374  
     382A      6.389413   383A      6.432235   384A      6.438474  
     385A      6.463644   386A      6.498628   387A      6.506809  
     388A      6.586622   389A      6.589888   390A      6.646924  
     391A      6.720452   392A      6.724973   393A      6.786692  
     394A      6.843623   395A      6.915803   396A      6.919245  
     397A      6.974190   398A      6.978602   399A      6.998353  
     400A      7.006359   401A      7.123339   402A      7.150253  
     403A      7.207771   404A      7.238373   405A      7.298815  
     406A      7.329364   407A      7.347052   408A      7.380537  
     409A      7.395213   410A      7.492948   411A      7.543532  
     412A      7.547360   413A      7.603680   414A      7.656506  
     415A      7.676621   416A      7.683219   417A      7.683941  
     418A      7.720367   419A      7.766824   420A      7.795336  
     421A      7.817445   422A      7.873482   423A      7.880098  
     424A      7.982477   425A      8.083616   426A      8.112218  
     427A      8.278358   428A      8.302970   429A      8.389029  
     430A      8.509495   431A      8.669148   432A      9.388519  
     433A      9.465089   434A      9.664223   435A      9.744682  
     436A      9.786442   437A      9.865623   438A      9.869452  
     439A      9.963722   440A     10.265079   441A     10.973416  
     442A     11.551946   443A     11.968891   444A     12.610073  
     445A     13.622738   446A     13.795797   447A     14.648326  
     448A     43.909145   449A     44.384591   450A     45.560222  
     451A     45.834008   452A     60.689208  

    Final Occupation by Irrep:
              A 
    DOCC [    12 ]

  @DF-RHF Final Energy:  -188.84143264022853

   => Energetics <=

    Nuclear Repulsion Energy =             70.0307753516662217
    One-Electron Energy =                -397.7531458624139304
    Two-Electron Energy =                 138.8809378705192046
    Total Energy =                       -188.8414326402285326

Computation Completed


Properties will be evaluated at   0.000000,   0.000000,   0.000000 [a0]

Properties computed using the SCF density matrix

  Nuclear Dipole Moment: [e a0]
     X:   131.8921      Y:     0.8151      Z:    -0.0043

  Electronic Dipole Moment: [e a0]
     X:  -131.7963      Y:    -1.5706      Z:     0.0043

  Dipole Moment: [e a0]
     X:     0.0958      Y:    -0.7555      Z:     0.0001     Total:     0.7616

  Dipole Moment: [D]
     X:     0.2434      Y:    -1.9203      Z:     0.0001     Total:     1.9357


*** tstop() called on r282 at Fri Sep 10 13:03:55 2021
Module time:
	user time   =      21.67 seconds =       0.36 minutes
	system time =       0.49 seconds =       0.01 minutes
	total time  =         22 seconds =       0.37 minutes
Total time:
	user time   =      67.48 seconds =       1.12 minutes
	system time =       1.58 seconds =       0.03 minutes
	total time  =         69 seconds =       1.15 minutes

  //>>>>>>>>>>>>>>>>>>>>>>>>>>>>>>>>>>>//
  //            Monomer B HF           //
  //<<<<<<<<<<<<<<<<<<<<<<<<<<<<<<<<<<<//


*** tstart() called on r282
*** at Fri Sep 10 13:03:55 2021

   => Loading Basis Set <=

    Name: JUN-CC-PVTZ
    Role: ORBITAL
    Keyword: BASIS
    atoms 1, 7-8, 11, 15        entry C          line   217 file /home/r08543048/miniconda3/share/psi4/basis/jun-cc-pvtz.gbs 
    atoms 2-3, 9                entry O          line   305 file /home/r08543048/miniconda3/share/psi4/basis/jun-cc-pvtz.gbs 
    atoms 4-6, 10, 12-14, 16-18 entry H          line    36 file /home/r08543048/miniconda3/share/psi4/basis/jun-cc-pvtz.gbs 


         ---------------------------------------------------------
                                   SCF
               by Justin Turney, Rob Parrish, Andy Simmonett
                          and Daniel G. A. Smith
                              RHF Reference
                        1 Threads,  20980 MiB Core
         ---------------------------------------------------------

  ==> Geometry <==

    Molecular point group: c1
    Full point group: C1

    Geometry (in Angstrom), charge = 0, multiplicity = 1:

       Center              X                  Y                   Z               Mass       
    ------------   -----------------  -----------------  -----------------  -----------------
      Gh(C)           3.311379008751     0.111391829000    -0.000129665957    12.000000000000
      Gh(O)           2.740026008751    -1.088064171000     0.000012334043    15.994914619570
      Gh(O)           2.731244008751     1.177392829000    -0.000179665957    15.994914619570
      Gh(H)           4.400868008751     0.015807829000    -0.000204665957     1.007825032230
      Gh(H)           1.754991008751    -0.967453171000     0.000071334043     1.007825032230
         H            0.336274008751     1.218229829000    -0.000158665957     1.007825032230
         C           -1.838433991249     0.742311829000    -0.000027665957    12.000000000000
         C           -0.386609991249     0.389292829000    -0.000018665957    12.000000000000
         O            0.024653008751    -0.764425171000     0.000124334043    15.994914619570
         H           -2.007011991249     1.389505829000    -0.868619665957     1.007825032230
         C           -2.783662991249    -0.445849171000     0.000115334043    12.000000000000
         H           -2.576245991249    -1.067210171000    -0.871932665957     1.007825032230
         H           -2.576205991249    -1.067034171000     0.872277334043     1.007825032230
         H           -2.006972991249     1.389680829000     0.868441334043     1.007825032230
         C           -4.240847991249    -0.002477171000     0.000103334043    12.000000000000
         H           -4.465809991249     0.599861829000     0.880968334043     1.007825032230
         H           -4.465846991249     0.599693829000    -0.880867665957     1.007825032230
         H           -4.913481991249    -0.858812171000     0.000199334043     1.007825032230

  Running in c1 symmetry.

  Rotational constants: A =      0.22144  B =      0.02018  C =      0.01868 [cm^-1]
  Rotational constants: A =   6638.62160  B =    604.85390  C =    560.01977 [MHz]
  Nuclear repulsion =  172.514375767777750

  Charge       = 0
  Multiplicity = 1
  Electrons    = 40
  Nalpha       = 20
  Nbeta        = 20

  ==> Algorithm <==

  SCF Algorithm Type is DF.
  DIIS enabled.
  MOM disabled.
  Fractional occupation disabled.
  Guess Type is SAD.
  Energy threshold   = 1.00e-08
  Density threshold  = 1.00e-08
  Integral threshold = 0.00e+00

  ==> Primary Basis <==

  Basis Set: JUN-CC-PVTZ
    Blend: JUN-CC-PVTZ
    Number of shells: 164
    Number of basis function: 452
    Number of Cartesian functions: 510
    Spherical Harmonics?: true
    Max angular momentum: 3

   => Loading Basis Set <=

    Name: (JUN-CC-PVTZ AUX)
    Role: JKFIT
    Keyword: DF_BASIS_SCF
    atoms 1, 7-8, 11, 15        entry C          line   152 file /home/r08543048/miniconda3/share/psi4/basis/jun-cc-pvtz-jkfit.gbs 
    atoms 2-3, 9                entry O          line   272 file /home/r08543048/miniconda3/share/psi4/basis/jun-cc-pvtz-jkfit.gbs 
    atoms 4-6, 10, 12-14, 16-18 entry H          line    70 file /home/r08543048/miniconda3/share/psi4/basis/jun-cc-pvtz-jkfit.gbs 

  ==> Pre-Iterations <==

   -------------------------------------------------------
    Irrep   Nso     Nmo     Nalpha   Nbeta   Ndocc  Nsocc
   -------------------------------------------------------
     A        452     452       0       0       0       0
   -------------------------------------------------------
    Total     452     452      20      20      20       0
   -------------------------------------------------------

  ==> Integral Setup <==

  ==> DiskDFJK: Density-Fitted J/K Matrices <==

    J tasked:                  Yes
    K tasked:                  Yes
    wK tasked:                  No
    OpenMP threads:              1
    Integrals threads:           1
    Memory [MiB]:            15735
    Algorithm:                Core
    Integral Cache:           LOAD
    Schwarz Cutoff:          1E-12
    Fitting Condition:       1E-10

   => Auxiliary Basis Set <=

  Basis Set: (JUN-CC-PVTZ AUX)
    Blend: JUN-CC-PVTZ-JKFIT
    Number of shells: 332
    Number of basis function: 1060
    Number of Cartesian functions: 1278
    Spherical Harmonics?: true
    Max angular momentum: 4

  Minimum eigenvalue in the overlap matrix is 2.6159803308E-05.
  Using Symmetric Orthogonalization.

  SCF Guess: Superposition of Atomic Densities via on-the-fly atomic UHF.

  ==> Iterations <==

                           Total Energy        Delta E     RMS |[F,P]|

   @DF-RHF iter SAD:  -230.24003376027383   -2.30240e+02   0.00000e+00 
   @DF-RHF iter   1:  -230.85939932199932   -6.19366e-01   1.36704e-03 DIIS
   @DF-RHF iter   2:  -231.01121569636999   -1.51816e-01   8.46766e-04 DIIS
   @DF-RHF iter   3:  -231.06670947865541   -5.54938e-02   1.67002e-04 DIIS
   @DF-RHF iter   4:  -231.07021220716493   -3.50273e-03   7.12671e-05 DIIS
   @DF-RHF iter   5:  -231.07088525643613   -6.73049e-04   1.24659e-05 DIIS
   @DF-RHF iter   6:  -231.07092621885926   -4.09624e-05   5.19539e-06 DIIS
   @DF-RHF iter   7:  -231.07093276700226   -6.54814e-06   2.30689e-06 DIIS
   @DF-RHF iter   8:  -231.07093417587464   -1.40887e-06   7.61520e-07 DIIS
   @DF-RHF iter   9:  -231.07093436955910   -1.93684e-07   1.40438e-07 DIIS
   @DF-RHF iter  10:  -231.07093437578274   -6.22364e-09   3.67766e-08 DIIS
   @DF-RHF iter  11:  -231.07093437605212   -2.69381e-10   1.04365e-08 DIIS
   @DF-RHF iter  12:  -231.07093437607693   -2.48122e-11   2.67041e-09 DIIS
  Energy and wave function converged.


  ==> Post-Iterations <==

    Orbital Energies [Eh]
    ---------------------

    Doubly Occupied:                                                      

       1A    -20.555690     2A    -11.332296     3A    -11.242295  
       4A    -11.225946     5A    -11.218419     6A     -1.381818  
       7A     -1.084076     8A     -0.979069     9A     -0.849970  
      10A     -0.771935    11A     -0.674171    12A     -0.651066  
      13A     -0.630819    14A     -0.569347    15A     -0.568399  
      16A     -0.512280    17A     -0.498875    18A     -0.492195  
      19A     -0.479875    20A     -0.422718  

    Virtual:                                                              

      21A      0.043303    22A      0.046329    23A      0.056133  
      24A      0.065391    25A      0.070695    26A      0.074404  
      27A      0.080000    28A      0.091317    29A      0.098615  
      30A      0.099791    31A      0.106810    32A      0.107702  
      33A      0.122907    34A      0.125023    35A      0.137090  
      36A      0.162338    37A      0.162734    38A      0.169623  
      39A      0.178641    40A      0.182748    41A      0.192161  
      42A      0.193598    43A      0.199083    44A      0.216791  
      45A      0.224021    46A      0.225680    47A      0.238302  
      48A      0.244346    49A      0.248376    50A      0.258482  
      51A      0.263795    52A      0.266208    53A      0.277721  
      54A      0.287715    55A      0.295268    56A      0.301847  
      57A      0.303538    58A      0.306234    59A      0.319414  
      60A      0.329352    61A      0.335921    62A      0.352758  
      63A      0.353506    64A      0.357771    65A      0.363764  
      66A      0.376882    67A      0.381398    68A      0.396223  
      69A      0.398001    70A      0.405099    71A      0.411047  
      72A      0.421095    73A      0.427429    74A      0.432236  
      75A      0.434979    76A      0.456455    77A      0.467221  
      78A      0.476926    79A      0.484552    80A      0.490592  
      81A      0.499589    82A      0.503215    83A      0.518259  
      84A      0.519954    85A      0.531421    86A      0.535169  
      87A      0.539893    88A      0.547266    89A      0.547319  
      90A      0.567576    91A      0.571589    92A      0.601061  
      93A      0.620857    94A      0.623595    95A      0.652050  
      96A      0.656333    97A      0.672535    98A      0.687375  
      99A      0.706918   100A      0.709839   101A      0.723416  
     102A      0.728443   103A      0.747444   104A      0.761527  
     105A      0.762733   106A      0.769139   107A      0.773199  
     108A      0.792114   109A      0.792483   110A      0.802784  
     111A      0.809052   112A      0.826229   113A      0.836670  
     114A      0.837999   115A      0.853984   116A      0.856986  
     117A      0.869513   118A      0.886173   119A      0.892433  
     120A      0.901401   121A      0.917106   122A      0.928180  
     123A      0.931099   124A      0.947099   125A      0.951097  
     126A      0.954676   127A      0.969308   128A      0.977118  
     129A      0.992242   130A      1.008021   131A      1.009312  
     132A      1.011705   133A      1.025591   134A      1.032693  
     135A      1.037347   136A      1.051781   137A      1.064709  
     138A      1.076341   139A      1.083743   140A      1.096359  
     141A      1.108978   142A      1.116571   143A      1.156088  
     144A      1.161327   145A      1.179967   146A      1.190998  
     147A      1.210411   148A      1.218825   149A      1.238009  
     150A      1.251578   151A      1.256523   152A      1.262873  
     153A      1.262889   154A      1.288153   155A      1.306105  
     156A      1.339290   157A      1.345038   158A      1.352059  
     159A      1.365531   160A      1.389309   161A      1.402606  
     162A      1.413636   163A      1.431413   164A      1.440349  
     165A      1.443541   166A      1.458552   167A      1.464369  
     168A      1.474277   169A      1.479772   170A      1.502661  
     171A      1.519198   172A      1.557647   173A      1.570617  
     174A      1.585141   175A      1.588024   176A      1.599496  
     177A      1.617839   178A      1.625549   179A      1.639900  
     180A      1.648598   181A      1.670274   182A      1.679975  
     183A      1.690440   184A      1.692406   185A      1.712343  
     186A      1.734352   187A      1.758023   188A      1.769264  
     189A      1.791299   190A      1.810421   191A      1.844290  
     192A      1.848411   193A      1.857348   194A      1.891780  
     195A      1.905807   196A      1.917021   197A      1.923646  
     198A      1.937625   199A      1.976551   200A      1.997403  
     201A      2.010280   202A      2.043966   203A      2.067728  
     204A      2.102727   205A      2.189834   206A      2.237466  
     207A      2.296886   208A      2.348492   209A      2.370980  
     210A      2.395427   211A      2.481747   212A      2.535010  
     213A      2.564804   214A      2.620940   215A      2.636354  
     216A      2.649528   217A      2.676125   218A      2.726692  
     219A      2.748988   220A      2.764821   221A      2.780544  
     222A      2.786999   223A      2.800237   224A      2.826944  
     225A      2.840623   226A      2.846893   227A      2.887343  
     228A      2.892662   229A      2.893839   230A      2.911498  
     231A      2.935935   232A      2.944894   233A      2.983849  
     234A      3.002693   235A      3.008889   236A      3.014050  
     237A      3.027598   238A      3.047599   239A      3.080143  
     240A      3.104502   241A      3.108656   242A      3.126384  
     243A      3.126718   244A      3.132959   245A      3.138498  
     246A      3.146663   247A      3.198971   248A      3.246329  
     249A      3.267217   250A      3.270238   251A      3.290012  
     252A      3.300872   253A      3.310887   254A      3.337144  
     255A      3.353700   256A      3.363235   257A      3.376312  
     258A      3.411758   259A      3.436130   260A      3.442951  
     261A      3.445126   262A      3.464928   263A      3.477861  
     264A      3.478037   265A      3.495493   266A      3.501633  
     267A      3.522316   268A      3.528161   269A      3.553279  
     270A      3.557129   271A      3.565380   272A      3.577264  
     273A      3.590141   274A      3.593820   275A      3.604809  
     276A      3.622823   277A      3.690333   278A      3.710575  
     279A      3.715556   280A      3.722299   281A      3.741124  
     282A      3.762239   283A      3.778042   284A      3.787614  
     285A      3.823411   286A      3.824689   287A      3.831510  
     288A      3.866841   289A      3.873487   290A      3.918269  
     291A      3.927439   292A      3.938682   293A      3.957869  
     294A      3.983626   295A      3.999944   296A      4.041677  
     297A      4.052927   298A      4.057138   299A      4.088593  
     300A      4.114321   301A      4.119553   302A      4.182730  
     303A      4.185371   304A      4.211662   305A      4.223822  
     306A      4.232912   307A      4.261350   308A      4.287517  
     309A      4.300739   310A      4.313083   311A      4.327310  
     312A      4.328060   313A      4.337762   314A      4.355135  
     315A      4.355213   316A      4.358041   317A      4.406440  
     318A      4.418140   319A      4.422042   320A      4.449979  
     321A      4.482995   322A      4.497753   323A      4.504017  
     324A      4.515618   325A      4.535337   326A      4.554630  
     327A      4.566366   328A      4.570490   329A      4.606559  
     330A      4.619776   331A      4.625882   332A      4.653728  
     333A      4.672429   334A      4.691144   335A      4.692335  
     336A      4.695492   337A      4.733483   338A      4.762660  
     339A      4.788262   340A      4.795409   341A      4.818428  
     342A      4.830637   343A      4.837940   344A      4.873042  
     345A      4.889414   346A      4.928742   347A      4.952749  
     348A      4.986957   349A      4.987339   350A      5.030629  
     351A      5.044265   352A      5.050629   353A      5.065872  
     354A      5.098230   355A      5.099021   356A      5.123683  
     357A      5.140872   358A      5.168463   359A      5.176168  
     360A      5.271789   361A      5.275399   362A      5.276007  
     363A      5.297786   364A      5.325969   365A      5.357385  
     366A      5.362458   367A      5.402628   368A      5.406493  
     369A      5.436073   370A      5.486007   371A      5.550287  
     372A      5.565266   373A      5.582730   374A      5.622449  
     375A      5.628284   376A      5.673326   377A      5.735358  
     378A      5.747492   379A      5.756999   380A      5.759750  
     381A      5.760581   382A      5.804137   383A      5.856915  
     384A      5.883889   385A      5.896603   386A      5.935315  
     387A      5.936064   388A      5.966465   389A      5.999233  
     390A      6.105217   391A      6.117209   392A      6.132105  
     393A      6.147342   394A      6.255973   395A      6.268567  
     396A      6.441903   397A      6.484129   398A      6.496476  
     399A      6.503303   400A      6.519285   401A      6.537274  
     402A      6.574394   403A      6.594785   404A      6.759294  
     405A      6.767984   406A      6.808696   407A      6.985277  
     408A      7.030875   409A      7.162684   410A      7.179717  
     411A      7.237679   412A      7.276725   413A      7.415785  
     414A      7.425298   415A      7.486566   416A      7.557528  
     417A      7.686407   418A      7.777532   419A      7.816625  
     420A      7.832683   421A      8.006481   422A      8.019746  
     423A      8.443880   424A      8.666286   425A      8.897771  
     426A      9.307142   427A      9.505178   428A      9.695036  
     429A      9.771097   430A      9.822056   431A      9.850131  
     432A      9.877148   433A      9.937825   434A     10.033187  
     435A     10.317668   436A     10.520523   437A     10.995453  
     438A     11.386304   439A     11.527271   440A     11.563724  
     441A     11.904947   442A     12.531103   443A     13.071886  
     444A     13.635946   445A     13.896448   446A     13.945923  
     447A     14.375401   448A     14.448168   449A     14.537090  
     450A     44.817502   451A     60.221096   452A     61.442428  

    Final Occupation by Irrep:
              A 
    DOCC [    20 ]

  @DF-RHF Final Energy:  -231.07093437607693

   => Energetics <=

    Nuclear Repulsion Energy =            172.5143757677777501
    One-Electron Energy =                -654.8881035885772235
    Two-Electron Energy =                 251.3027934447225107
    Total Energy =                       -231.0709343760769343

Computation Completed


Properties will be evaluated at   0.000000,   0.000000,   0.000000 [a0]

Properties computed using the SCF density matrix

  Nuclear Dipole Moment: [e a0]
     X:  -147.3522      Y:     0.3556      Z:     0.0044

  Electronic Dipole Moment: [e a0]
     X:   146.7014      Y:     0.6918      Z:    -0.0045

  Dipole Moment: [e a0]
     X:    -0.6507      Y:     1.0474      Z:    -0.0001     Total:     1.2331

  Dipole Moment: [D]
     X:    -1.6540      Y:     2.6623      Z:    -0.0003     Total:     3.1342


*** tstop() called on r282 at Fri Sep 10 13:04:21 2021
Module time:
	user time   =      25.50 seconds =       0.42 minutes
	system time =       0.58 seconds =       0.01 minutes
	total time  =         26 seconds =       0.43 minutes
Total time:
	user time   =      92.98 seconds =       1.55 minutes
	system time =       2.16 seconds =       0.04 minutes
	total time  =         95 seconds =       1.58 minutes
  Constructing Basis Sets for SAPT...

   => Loading Basis Set <=

    Name: (JUN-CC-PVTZ AUX)
    Role: RIFIT
    Keyword: DF_BASIS_SAPT
    atoms 1, 7-8, 11, 15        entry C          line   132 file /home/r08543048/miniconda3/share/psi4/basis/jun-cc-pvtz-ri.gbs 
    atoms 2-3, 9                entry O          line   244 file /home/r08543048/miniconda3/share/psi4/basis/jun-cc-pvtz-ri.gbs 
    atoms 4-6, 10, 12-14, 16-18 entry H          line    30 file /home/r08543048/miniconda3/share/psi4/basis/jun-cc-pvtz-ri.gbs 


  //>>>>>>>>>>>>>>>>>>>>>>>>>>>>>>>>>>>//
  //               SAPT0               //
  //<<<<<<<<<<<<<<<<<<<<<<<<<<<<<<<<<<<//


*** tstart() called on r282
*** at Fri Sep 10 13:04:21 2021

        SAPT0  
    Ed Hohenstein
     6 June 2009

      Orbital Information
  --------------------------
    NSO        =       452
    NMO        =       452
    NRI        =      1076
    NOCC A     =        12
    NOCC B     =        20
    FOCC A     =         0
    FOCC B     =         0
    NVIR A     =       440
    NVIR B     =       432

    Elst10,r            =    -0.028774636807 [Eh]
    Exch10              =     0.026268321205 [Eh]
    Exch10 (S^2)        =     0.025995490832 [Eh]

    Iter     Energy [mEh]          dE [mEh]         Residual      Time [s]
       1      -4.00223475       4.002234748      10.301511679             1
       2      -4.60243440       0.600199655       5.114279839             2
       3      -4.76671747       0.164283069       1.445371511             2
       4      -4.74179525      -0.024922222       0.622204673             3
       5      -4.73409226      -0.007702995       0.188458529             4
       6      -4.73727031       0.003178057       0.085135433             4
       7      -4.73822748       0.000957171       0.019379008             5
       8      -4.73784656      -0.000380926       0.005192610             6
       9      -4.73782921      -0.000017343       0.001512508             6
      10      -4.73785195       0.000022732       0.000372979             7
      11      -4.73785006      -0.000001883       0.000074601             8
      12      -4.73784945      -0.000000610       0.000015325             8
      13      -4.73784962       0.000000165       0.000002844             9
      14      -4.73784960      -0.000000021       0.000000550            10

    CHF Iterations converged


    Iter     Energy [mEh]          dE [mEh]         Residual      Time [s]
       1      -7.82576506       7.825765060      22.562524269             0
       2      -9.10691392       1.281148859      12.542561867             1
       3     -10.17547405       1.068560126       2.921040559             2
       4     -10.10328034      -0.072193703       1.191285616             3
       5     -10.08689907      -0.016381273       0.370168127             3
       6     -10.09574189       0.008842822       0.130649974             4
       7     -10.09687052       0.001128625       0.026257363             5
       8     -10.09636311      -0.000507409       0.008504006             6
       9     -10.09628449      -0.000078620       0.001962180             6
      10     -10.09632490       0.000040417       0.000403841             7
      11     -10.09632344      -0.000001459       0.000091754             8
      12     -10.09632242      -0.000001020       0.000027854             9
      13     -10.09632242      -0.000000007       0.000007535             9
      14     -10.09632252       0.000000101       0.000001538            10
      15     -10.09632251      -0.000000010       0.000000309            11

    CHF Iterations converged

    Ind20,r (A<-B)      =    -0.004737849596 [Eh]
    Ind20,r (B<-A)      =    -0.010096322508 [Eh]
    Ind20,r             =    -0.014834172103 [Eh]
    Exch-Ind20,r (A<-B) =     0.003403558748 [Eh]
    Exch-Ind20,r (B<-A) =     0.004324277509 [Eh]
    Exch-Ind20,r        =     0.007727836256 [Eh]
    Disp20              =    -0.009952284280 [Eh]
    Disp20 (SS)         =    -0.004976142140 [Eh]
    Disp20 (OS)         =    -0.004976142140 [Eh]
    Exch-Disp20         =     0.001776795775 [Eh]
    Exch-Disp20 (SS)    =     0.001109756449 [Eh]
    Exch-Disp20 (OS)    =     0.000667039325 [Eh]

    SAPT Results 
  --------------------------------------------------------------------------------------------------------
    Electrostatics                -28.77463681 [mEh]     -18.05635720 [kcal/mol]     -75.54779853 [kJ/mol]
      Elst10,r                    -28.77463681 [mEh]     -18.05635720 [kcal/mol]     -75.54779853 [kJ/mol]

    Exchange                       26.26832121 [mEh]      16.48362042 [kcal/mol]      68.96746782 [kJ/mol]
      Exch10                       26.26832121 [mEh]      16.48362042 [kcal/mol]      68.96746782 [kJ/mol]
      Exch10(S^2)                  25.99549083 [mEh]      16.31241677 [kcal/mol]      68.25115178 [kJ/mol]

    Induction                     -12.02276525 [mEh]      -7.54439909 [kcal/mol]     -31.56576580 [kJ/mol]
      Ind20,r                     -14.83417210 [mEh]      -9.30858353 [kcal/mol]     -38.94711349 [kJ/mol]
      Exch-Ind20,r                  7.72783626 [mEh]       4.84929046 [kcal/mol]      20.28943130 [kJ/mol]
      delta HF,r (2)               -4.91642940 [mEh]      -3.08510603 [kcal/mol]     -12.90808361 [kJ/mol]

    Dispersion                     -8.17548851 [mEh]      -5.13019649 [kcal/mol]     -21.46474211 [kJ/mol]
      Disp20                       -9.95228428 [mEh]      -6.24515267 [kcal/mol]     -26.12971878 [kJ/mol]
      Exch-Disp20                   1.77679577 [mEh]       1.11495618 [kcal/mol]       4.66497666 [kJ/mol]
      Disp20 (SS)                  -4.97614214 [mEh]      -3.12257634 [kcal/mol]     -13.06485939 [kJ/mol]
      Disp20 (OS)                  -4.97614214 [mEh]      -3.12257634 [kcal/mol]     -13.06485939 [kJ/mol]
      Exch-Disp20 (SS)              1.10975645 [mEh]       0.69638269 [kcal/mol]       2.91366516 [kJ/mol]
      Exch-Disp20 (OS)              0.66703933 [mEh]       0.41857350 [kcal/mol]       1.75131151 [kJ/mol]

  Total HF                        -14.52908085 [mEh]      -9.11713588 [kcal/mol]     -38.14609651 [kJ/mol]
  Total SAPT0                     -22.70456935 [mEh]     -14.24733237 [kcal/mol]     -59.61083862 [kJ/mol]

  Special recipe for scaled SAPT0 (see Manual):
    Electrostatics sSAPT0         -28.77463681 [mEh]     -18.05635720 [kcal/mol]     -75.54779853 [kJ/mol]
    Exchange sSAPT0                26.26832121 [mEh]      16.48362042 [kcal/mol]      68.96746782 [kJ/mol]
    Induction sSAPT0              -11.77688483 [mEh]      -7.39010680 [kcal/mol]     -30.92020686 [kJ/mol]
    Dispersion sSAPT0              -8.11895531 [mEh]      -5.09472137 [kcal/mol]     -21.31631423 [kJ/mol]
  Total sSAPT0                    -22.40215574 [mEh]     -14.05756496 [kcal/mol]     -58.81685180 [kJ/mol]
  --------------------------------------------------------------------------------------------------------

*** tstop() called on r282 at Fri Sep 10 13:05:48 2021
Module time:
	user time   =      72.52 seconds =       1.21 minutes
	system time =      13.77 seconds =       0.23 minutes
	total time  =         87 seconds =       1.45 minutes
Total time:
	user time   =     165.62 seconds =       2.76 minutes
	system time =      15.93 seconds =       0.27 minutes
	total time  =        182 seconds =       3.03 minutes

    Psi4 stopped on: Friday, 10 September 2021 01:05PM
    Psi4 wall time for execution: 0:03:01.94

*** Psi4 exiting successfully. Buy a developer a beer!
