
    -----------------------------------------------------------------------
          Psi4: An Open-Source Ab Initio Electronic Structure Package
                               Psi4 1.3.2 release

                         Git: Rev {HEAD} ecbda83 


    R. M. Parrish, L. A. Burns, D. G. A. Smith, A. C. Simmonett,
    A. E. DePrince III, E. G. Hohenstein, U. Bozkaya, A. Yu. Sokolov,
    R. Di Remigio, R. M. Richard, J. F. Gonthier, A. M. James,
    H. R. McAlexander, A. Kumar, M. Saitow, X. Wang, B. P. Pritchard,
    P. Verma, H. F. Schaefer III, K. Patkowski, R. A. King, E. F. Valeev,
    F. A. Evangelista, J. M. Turney, T. D. Crawford, and C. D. Sherrill,
    J. Chem. Theory Comput. 13(7) pp 3185--3197 (2017).
    (doi: 10.1021/acs.jctc.7b00174)


                         Additional Contributions by
    P. Kraus, H. Kruse, M. H. Lechner, M. C. Schieber, R. A. Shaw,
    A. Alenaizan, R. Galvelis, Z. L. Glick, S. Lehtola, and J. P. Misiewicz

    -----------------------------------------------------------------------


    Psi4 started on: Friday, 10 September 2021 01:11PM

    Process ID: 56667
    Host:       r282
    PSIDATADIR: /home/r08543048/miniconda3/share/psi4
    Memory:     500.0 MiB
    Threads:    1
    
  ==> Input File <==

--------------------------------------------------------------------------
# Any line starting with the # character is a comment line
#! Sample  computation

memory 22 gb

molecule Dimer {
0 1
 C  2.823883    0.091105    0.000048
 O  2.244632   -1.104526   -0.000200
 O  2.250810    1.160932    0.000324
 H  3.912691   -0.011642   -0.000021
 H  1.260573   -0.977499   -0.000176







    
 --
0 1
 H -0.144804    1.218704   -0.000716
 C -2.322538    0.756710   -0.000248
 C -0.872625    0.394434   -0.000236
 O -0.469759   -0.762023    0.000058
 H -2.482307    1.404807    0.867493
 C -3.259751   -0.437084    0.000291
 H -4.296766   -0.108110    0.000267
 H -3.093179   -1.058562   -0.877201
 H -3.093010   -1.057900    0.878219
 H -2.482479    1.404154   -0.868447





 
 







units angstrom

no_reorient
symmetry c1
}

set globals{
  basis jun-cc-pvtz
}

energy('sapt0')


--------------------------------------------------------------------------

  Memory set to  20.489 GiB by Python driver.

  //>>>>>>>>>>>>>>>>>>>>>>>>>>>>>>>>>>>//
  //              Dimer HF             //
  //<<<<<<<<<<<<<<<<<<<<<<<<<<<<<<<<<<<//


*** tstart() called on r282
*** at Fri Sep 10 13:11:22 2021

   => Loading Basis Set <=

    Name: JUN-CC-PVTZ
    Role: ORBITAL
    Keyword: BASIS
    atoms 1, 7-8, 11     entry C          line   217 file /home/r08543048/miniconda3/share/psi4/basis/jun-cc-pvtz.gbs 
    atoms 2-3, 9         entry O          line   305 file /home/r08543048/miniconda3/share/psi4/basis/jun-cc-pvtz.gbs 
    atoms 4-6, 10, 12-15 entry H          line    36 file /home/r08543048/miniconda3/share/psi4/basis/jun-cc-pvtz.gbs 


         ---------------------------------------------------------
                                   SCF
               by Justin Turney, Rob Parrish, Andy Simmonett
                          and Daniel G. A. Smith
                              RHF Reference
                        1 Threads,  20980 MiB Core
         ---------------------------------------------------------

  ==> Geometry <==

    Molecular point group: c1
    Full point group: C1

    Geometry (in Angstrom), charge = 0, multiplicity = 1:

       Center              X                  Y                   Z               Mass       
    ------------   -----------------  -----------------  -----------------  -----------------
         C            2.724723605318     0.098832083044     0.000042382170    12.000000000000
         O            2.145472605318    -1.096798916956    -0.000205617830    15.994914619570
         O            2.151650605318     1.168659083044     0.000318382170    15.994914619570
         H            3.813531605318    -0.003914916956    -0.000026617830     1.007825032230
         H            1.161413605318    -0.969771916956    -0.000181617830     1.007825032230
         H           -0.243963394682     1.226431083044    -0.000721617830     1.007825032230
         C           -2.421697394682     0.764437083044    -0.000253617830    12.000000000000
         C           -0.971784394682     0.402161083044    -0.000241617830    12.000000000000
         O           -0.568918394682    -0.754295916956     0.000052382170    15.994914619570
         H           -2.581466394682     1.412534083044     0.867487382170     1.007825032230
         C           -3.358910394682    -0.429356916956     0.000285382170    12.000000000000
         H           -4.395925394682    -0.100382916956     0.000261382170     1.007825032230
         H           -3.192338394682    -1.050834916956    -0.877206617830     1.007825032230
         H           -3.192169394682    -1.050172916956     0.878213382170     1.007825032230
         H           -2.581638394682     1.411881083044    -0.868452617830     1.007825032230

  Running in c1 symmetry.

  Rotational constants: A =      0.23012  B =      0.03171  C =      0.02815 [cm^-1]
  Rotational constants: A =   6898.95698  B =    950.60659  C =    844.05658 [MHz]
  Nuclear repulsion =  288.928446283307210

  Charge       = 0
  Multiplicity = 1
  Electrons    = 56
  Nalpha       = 28
  Nbeta        = 28

  ==> Algorithm <==

  SCF Algorithm Type is DF.
  DIIS enabled.
  MOM disabled.
  Fractional occupation disabled.
  Guess Type is SAD.
  Energy threshold   = 1.00e-08
  Density threshold  = 1.00e-08
  Integral threshold = 0.00e+00

  ==> Primary Basis <==

  Basis Set: JUN-CC-PVTZ
    Blend: JUN-CC-PVTZ
    Number of shells: 139
    Number of basis function: 385
    Number of Cartesian functions: 435
    Spherical Harmonics?: true
    Max angular momentum: 3

   => Loading Basis Set <=

    Name: (JUN-CC-PVTZ AUX)
    Role: JKFIT
    Keyword: DF_BASIS_SCF
    atoms 1, 7-8, 11     entry C          line   152 file /home/r08543048/miniconda3/share/psi4/basis/jun-cc-pvtz-jkfit.gbs 
    atoms 2-3, 9         entry O          line   272 file /home/r08543048/miniconda3/share/psi4/basis/jun-cc-pvtz-jkfit.gbs 
    atoms 4-6, 10, 12-15 entry H          line    70 file /home/r08543048/miniconda3/share/psi4/basis/jun-cc-pvtz-jkfit.gbs 

  ==> Pre-Iterations <==

   -------------------------------------------------------
    Irrep   Nso     Nmo     Nalpha   Nbeta   Ndocc  Nsocc
   -------------------------------------------------------
     A        385     385       0       0       0       0
   -------------------------------------------------------
    Total     385     385      28      28      28       0
   -------------------------------------------------------

  ==> Integral Setup <==

  ==> DiskDFJK: Density-Fitted J/K Matrices <==

    J tasked:                  Yes
    K tasked:                  Yes
    wK tasked:                  No
    OpenMP threads:              1
    Integrals threads:           1
    Memory [MiB]:            15735
    Algorithm:                Core
    Integral Cache:           SAVE
    Schwarz Cutoff:          1E-12
    Fitting Condition:       1E-10

   => Auxiliary Basis Set <=

  Basis Set: (JUN-CC-PVTZ AUX)
    Blend: JUN-CC-PVTZ-JKFIT
    Number of shells: 283
    Number of basis function: 905
    Number of Cartesian functions: 1092
    Spherical Harmonics?: true
    Max angular momentum: 4

  Minimum eigenvalue in the overlap matrix is 3.7269910720E-05.
  Using Symmetric Orthogonalization.

  SCF Guess: Superposition of Atomic Densities via on-the-fly atomic UHF.

  ==> Iterations <==

                           Total Energy        Delta E     RMS |[F,P]|

   @DF-RHF iter SAD:  -379.34337147462782   -3.79343e+02   0.00000e+00 
   @DF-RHF iter   1:  -380.63228649019953   -1.28892e+00   1.90490e-03 DIIS
   @DF-RHF iter   2:  -380.80253224805239   -1.70246e-01   1.20039e-03 DIIS
   @DF-RHF iter   3:  -380.87500059917153   -7.24684e-02   1.89494e-04 DIIS
   @DF-RHF iter   4:  -380.87851885008041   -3.51825e-03   8.63461e-05 DIIS
   @DF-RHF iter   5:  -380.87918251154457   -6.63661e-04   1.98353e-05 DIIS
   @DF-RHF iter   6:  -380.87924893355824   -6.64220e-05   9.57791e-06 DIIS
   @DF-RHF iter   7:  -380.87926249940853   -1.35659e-05   3.45657e-06 DIIS
   @DF-RHF iter   8:  -380.87926519856808   -2.69916e-06   1.28117e-06 DIIS
   @DF-RHF iter   9:  -380.87926557066197   -3.72094e-07   3.62993e-07 DIIS
   @DF-RHF iter  10:  -380.87926559309329   -2.24313e-08   1.56455e-07 DIIS
   @DF-RHF iter  11:  -380.87926559555552   -2.46223e-09   5.08841e-08 DIIS
   @DF-RHF iter  12:  -380.87926559585753   -3.02009e-10   1.51202e-08 DIIS
   @DF-RHF iter  13:  -380.87926559589727   -3.97335e-11   3.19441e-09 DIIS
  Energy and wave function converged.


  ==> Post-Iterations <==

    Orbital Energies [Eh]
    ---------------------

    Doubly Occupied:                                                      

       1A    -20.594930     2A    -20.578510     3A    -20.547809  
       4A    -11.379727     5A    -11.348365     6A    -11.253949  
       7A    -11.228419     8A     -1.451463     9A     -1.409368  
      10A     -1.352075    11A     -1.075143    12A     -0.924281  
      13A     -0.875436    14A     -0.790590    15A     -0.711853  
      16A     -0.703289    17A     -0.687893    18A     -0.645479  
      19A     -0.645079    20A     -0.613846    21A     -0.576628  
      22A     -0.548452    23A     -0.543194    24A     -0.529511  
      25A     -0.505562    26A     -0.473032    27A     -0.457377  
      28A     -0.444178  

    Virtual:                                                              

      29A      0.046050    30A      0.054462    31A      0.065815  
      32A      0.066754    33A      0.078086    34A      0.084111  
      35A      0.085506    36A      0.098235    37A      0.100975  
      38A      0.105668    39A      0.106666    40A      0.120888  
      41A      0.136981    42A      0.152466    43A      0.172152  
      44A      0.179069    45A      0.179306    46A      0.192156  
      47A      0.199822    48A      0.207631    49A      0.223365  
      50A      0.235729    51A      0.243178    52A      0.244302  
      53A      0.250529    54A      0.260614    55A      0.263916  
      56A      0.270288    57A      0.277612    58A      0.282726  
      59A      0.288522    60A      0.296514    61A      0.303015  
      62A      0.314602    63A      0.320801    64A      0.321064  
      65A      0.325459    66A      0.345375    67A      0.359104  
      68A      0.371541    69A      0.377124    70A      0.383859  
      71A      0.399057    72A      0.405952    73A      0.418759  
      74A      0.435349    75A      0.443463    76A      0.455780  
      77A      0.468856    78A      0.474080    79A      0.480756  
      80A      0.484048    81A      0.491294    82A      0.499532  
      83A      0.513906    84A      0.528030    85A      0.534118  
      86A      0.559931    87A      0.586466    88A      0.588913  
      89A      0.601257    90A      0.616112    91A      0.616310  
      92A      0.633791    93A      0.642002    94A      0.663389  
      95A      0.672244    96A      0.686448    97A      0.700774  
      98A      0.706172    99A      0.718328   100A      0.724161  
     101A      0.741872   102A      0.745161   103A      0.755249  
     104A      0.763526   105A      0.776289   106A      0.789005  
     107A      0.802586   108A      0.806962   109A      0.816865  
     110A      0.846552   111A      0.854262   112A      0.866214  
     113A      0.868637   114A      0.875381   115A      0.890787  
     116A      0.900678   117A      0.907649   118A      0.923744  
     119A      0.930609   120A      0.941953   121A      0.967881  
     122A      0.974814   123A      0.982183   124A      0.989416  
     125A      1.030494   126A      1.032578   127A      1.066857  
     128A      1.067291   129A      1.084438   130A      1.096318  
     131A      1.100089   132A      1.111026   133A      1.143448  
     134A      1.146240   135A      1.183647   136A      1.186482  
     137A      1.194343   138A      1.225539   139A      1.240875  
     140A      1.255514   141A      1.260632   142A      1.281444  
     143A      1.307831   144A      1.315482   145A      1.332579  
     146A      1.332834   147A      1.340697   148A      1.362099  
     149A      1.387298   150A      1.394600   151A      1.405561  
     152A      1.407135   153A      1.428388   154A      1.428546  
     155A      1.452533   156A      1.458703   157A      1.465337  
     158A      1.473959   159A      1.493590   160A      1.507928  
     161A      1.539204   162A      1.553817   163A      1.566638  
     164A      1.576293   165A      1.609488   166A      1.632116  
     167A      1.662775   168A      1.666615   169A      1.673585  
     170A      1.718500   171A      1.730261   172A      1.754479  
     173A      1.760990   174A      1.789834   175A      1.808980  
     176A      1.833545   177A      1.835574   178A      1.876600  
     179A      1.893112   180A      1.931028   181A      1.961321  
     182A      2.065926   183A      2.138856   184A      2.190098  
     185A      2.196431   186A      2.253341   187A      2.258551  
     188A      2.314574   189A      2.321855   190A      2.339519  
     191A      2.376723   192A      2.390525   193A      2.403385  
     194A      2.427374   195A      2.537372   196A      2.564253  
     197A      2.571134   198A      2.610423   199A      2.613818  
     200A      2.686965   201A      2.711758   202A      2.734838  
     203A      2.743154   204A      2.785978   205A      2.810722  
     206A      2.837841   207A      2.857705   208A      2.907991  
     209A      2.921684   210A      2.932882   211A      2.964753  
     212A      2.969570   213A      3.023967   214A      3.053758  
     215A      3.068077   216A      3.074799   217A      3.120460  
     218A      3.120510   219A      3.122875   220A      3.166762  
     221A      3.198677   222A      3.207420   223A      3.241851  
     224A      3.280080   225A      3.284932   226A      3.322809  
     227A      3.328071   228A      3.349078   229A      3.360758  
     230A      3.369887   231A      3.380111   232A      3.394142  
     233A      3.411786   234A      3.444749   235A      3.457681  
     236A      3.477724   237A      3.481757   238A      3.482099  
     239A      3.495399   240A      3.515285   241A      3.523060  
     242A      3.539212   243A      3.551236   244A      3.580755  
     245A      3.580955   246A      3.593773   247A      3.628476  
     248A      3.636051   249A      3.658782   250A      3.669296  
     251A      3.678599   252A      3.717906   253A      3.732151  
     254A      3.753671   255A      3.768669   256A      3.790880  
     257A      3.821609   258A      3.829573   259A      3.846884  
     260A      3.877052   261A      3.880529   262A      3.892882  
     263A      3.906365   264A      3.927970   265A      3.968057  
     266A      3.984284   267A      3.985077   268A      4.028335  
     269A      4.038741   270A      4.110431   271A      4.127247  
     272A      4.134088   273A      4.189941   274A      4.200763  
     275A      4.205951   276A      4.229451   277A      4.252971  
     278A      4.278364   279A      4.308949   280A      4.311077  
     281A      4.324965   282A      4.332349   283A      4.342490  
     284A      4.358107   285A      4.385457   286A      4.399076  
     287A      4.418403   288A      4.439523   289A      4.474265  
     290A      4.512735   291A      4.517929   292A      4.572901  
     293A      4.615104   294A      4.629889   295A      4.631043  
     296A      4.639587   297A      4.653716   298A      4.666943  
     299A      4.686834   300A      4.706218   301A      4.725160  
     302A      4.746623   303A      4.754673   304A      4.817555  
     305A      4.891680   306A      4.911373   307A      4.927432  
     308A      4.961930   309A      4.974752   310A      5.002100  
     311A      5.041525   312A      5.047944   313A      5.157907  
     314A      5.158733   315A      5.206398   316A      5.229965  
     317A      5.256602   318A      5.261571   319A      5.289210  
     320A      5.322826   321A      5.322930   322A      5.361474  
     323A      5.379593   324A      5.440250   325A      5.461532  
     326A      5.548572   327A      5.609870   328A      5.628012  
     329A      5.650024   330A      5.657924   331A      5.694035  
     332A      5.715051   333A      5.726803   334A      5.733115  
     335A      5.798929   336A      5.837712   337A      5.844011  
     338A      5.850849   339A      5.878488   340A      5.891116  
     341A      5.910751   342A      5.927581   343A      5.965688  
     344A      6.062275   345A      6.085878   346A      6.177924  
     347A      6.214677   348A      6.259654   349A      6.379848  
     350A      6.466699   351A      6.490116   352A      6.521631  
     353A      6.534696   354A      6.731907   355A      6.746866  
     356A      6.859488   357A      6.933836   358A      6.943464  
     359A      6.957623   360A      7.138394   361A      7.145246  
     362A      7.214130   363A      7.243636   364A      7.258568  
     365A      7.260606   366A      7.336126   367A      7.364249  
     368A      7.383702   369A      7.404255   370A      7.449470  
     371A      7.517132   372A      7.621043   373A      7.693955  
     374A      7.713209   375A      7.730180   376A      7.869066  
     377A      8.023651   378A      8.270453   379A     12.445127  
     380A     12.602664   381A     13.734679   382A     13.989203  
     383A     14.280790   384A     14.616703   385A     14.669198  

    Final Occupation by Irrep:
              A 
    DOCC [    28 ]

  @DF-RHF Final Energy:  -380.87926559589727

   => Energetics <=

    Nuclear Repulsion Energy =            288.9284462833072098
    One-Electron Energy =               -1093.8245458747069279
    Two-Electron Energy =                 424.0168339955023953
    Total Energy =                       -380.8792655958972659

Computation Completed


Properties will be evaluated at   0.000000,   0.000000,   0.000000 [a0]

Properties computed using the SCF density matrix

  Nuclear Dipole Moment: [e a0]
     X:   -10.4935      Y:     0.8177      Z:    -0.0006

  Electronic Dipole Moment: [e a0]
     X:     9.5896      Y:    -0.3665      Z:     0.0001

  Dipole Moment: [e a0]
     X:    -0.9039      Y:     0.4513      Z:    -0.0005     Total:     1.0103

  Dipole Moment: [D]
     X:    -2.2975      Y:     1.1470      Z:    -0.0013     Total:     2.5679


*** tstop() called on r282 at Fri Sep 10 13:11:49 2021
Module time:
	user time   =      26.19 seconds =       0.44 minutes
	system time =       0.71 seconds =       0.01 minutes
	total time  =         27 seconds =       0.45 minutes
Total time:
	user time   =      26.19 seconds =       0.44 minutes
	system time =       0.71 seconds =       0.01 minutes
	total time  =         27 seconds =       0.45 minutes

  //>>>>>>>>>>>>>>>>>>>>>>>>>>>>>>>>>>>//
  //            Monomer A HF           //
  //<<<<<<<<<<<<<<<<<<<<<<<<<<<<<<<<<<<//


*** tstart() called on r282
*** at Fri Sep 10 13:11:49 2021

   => Loading Basis Set <=

    Name: JUN-CC-PVTZ
    Role: ORBITAL
    Keyword: BASIS
    atoms 1, 7-8, 11     entry C          line   217 file /home/r08543048/miniconda3/share/psi4/basis/jun-cc-pvtz.gbs 
    atoms 2-3, 9         entry O          line   305 file /home/r08543048/miniconda3/share/psi4/basis/jun-cc-pvtz.gbs 
    atoms 4-6, 10, 12-15 entry H          line    36 file /home/r08543048/miniconda3/share/psi4/basis/jun-cc-pvtz.gbs 


         ---------------------------------------------------------
                                   SCF
               by Justin Turney, Rob Parrish, Andy Simmonett
                          and Daniel G. A. Smith
                              RHF Reference
                        1 Threads,  20980 MiB Core
         ---------------------------------------------------------

  ==> Geometry <==

    Molecular point group: c1
    Full point group: C1

    Geometry (in Angstrom), charge = 0, multiplicity = 1:

       Center              X                  Y                   Z               Mass       
    ------------   -----------------  -----------------  -----------------  -----------------
         C            2.724723605318     0.098832083044     0.000042382170    12.000000000000
         O            2.145472605318    -1.096798916956    -0.000205617830    15.994914619570
         O            2.151650605318     1.168659083044     0.000318382170    15.994914619570
         H            3.813531605318    -0.003914916956    -0.000026617830     1.007825032230
         H            1.161413605318    -0.969771916956    -0.000181617830     1.007825032230
      Gh(H)          -0.243963394682     1.226431083044    -0.000721617830     1.007825032230
      Gh(C)          -2.421697394682     0.764437083044    -0.000253617830    12.000000000000
      Gh(C)          -0.971784394682     0.402161083044    -0.000241617830    12.000000000000
      Gh(O)          -0.568918394682    -0.754295916956     0.000052382170    15.994914619570
      Gh(H)          -2.581466394682     1.412534083044     0.867487382170     1.007825032230
      Gh(C)          -3.358910394682    -0.429356916956     0.000285382170    12.000000000000
      Gh(H)          -4.395925394682    -0.100382916956     0.000261382170     1.007825032230
      Gh(H)          -3.192338394682    -1.050834916956    -0.877206617830     1.007825032230
      Gh(H)          -3.192169394682    -1.050172916956     0.878213382170     1.007825032230
      Gh(H)          -2.581638394682     1.411881083044    -0.868452617830     1.007825032230

  Running in c1 symmetry.

  Rotational constants: A =      0.23012  B =      0.03171  C =      0.02815 [cm^-1]
  Rotational constants: A =   6898.95698  B =    950.60659  C =    844.05658 [MHz]
  Nuclear repulsion =   70.031990601000501

  Charge       = 0
  Multiplicity = 1
  Electrons    = 24
  Nalpha       = 12
  Nbeta        = 12

  ==> Algorithm <==

  SCF Algorithm Type is DF.
  DIIS enabled.
  MOM disabled.
  Fractional occupation disabled.
  Guess Type is SAD.
  Energy threshold   = 1.00e-08
  Density threshold  = 1.00e-08
  Integral threshold = 0.00e+00

  ==> Primary Basis <==

  Basis Set: JUN-CC-PVTZ
    Blend: JUN-CC-PVTZ
    Number of shells: 139
    Number of basis function: 385
    Number of Cartesian functions: 435
    Spherical Harmonics?: true
    Max angular momentum: 3

   => Loading Basis Set <=

    Name: (JUN-CC-PVTZ AUX)
    Role: JKFIT
    Keyword: DF_BASIS_SCF
    atoms 1, 7-8, 11     entry C          line   152 file /home/r08543048/miniconda3/share/psi4/basis/jun-cc-pvtz-jkfit.gbs 
    atoms 2-3, 9         entry O          line   272 file /home/r08543048/miniconda3/share/psi4/basis/jun-cc-pvtz-jkfit.gbs 
    atoms 4-6, 10, 12-15 entry H          line    70 file /home/r08543048/miniconda3/share/psi4/basis/jun-cc-pvtz-jkfit.gbs 

  ==> Pre-Iterations <==

   -------------------------------------------------------
    Irrep   Nso     Nmo     Nalpha   Nbeta   Ndocc  Nsocc
   -------------------------------------------------------
     A        385     385       0       0       0       0
   -------------------------------------------------------
    Total     385     385      12      12      12       0
   -------------------------------------------------------

  ==> Integral Setup <==

  ==> DiskDFJK: Density-Fitted J/K Matrices <==

    J tasked:                  Yes
    K tasked:                  Yes
    wK tasked:                  No
    OpenMP threads:              1
    Integrals threads:           1
    Memory [MiB]:            15735
    Algorithm:                Core
    Integral Cache:           LOAD
    Schwarz Cutoff:          1E-12
    Fitting Condition:       1E-10

   => Auxiliary Basis Set <=

  Basis Set: (JUN-CC-PVTZ AUX)
    Blend: JUN-CC-PVTZ-JKFIT
    Number of shells: 283
    Number of basis function: 905
    Number of Cartesian functions: 1092
    Spherical Harmonics?: true
    Max angular momentum: 4

  Minimum eigenvalue in the overlap matrix is 3.7269910720E-05.
  Using Symmetric Orthogonalization.

  SCF Guess: Superposition of Atomic Densities via on-the-fly atomic UHF.

  ==> Iterations <==

                           Total Energy        Delta E     RMS |[F,P]|

   @DF-RHF iter SAD:  -187.99896664678033   -1.87999e+02   0.00000e+00 
   @DF-RHF iter   1:  -188.73398398723387   -7.35017e-01   1.36314e-03 DIIS
   @DF-RHF iter   2:  -188.79612385273916   -6.21399e-02   9.71092e-04 DIIS
   @DF-RHF iter   3:  -188.84000517197623   -4.38813e-02   1.12888e-04 DIIS
   @DF-RHF iter   4:  -188.84110980605158   -1.10463e-03   6.01397e-05 DIIS
   @DF-RHF iter   5:  -188.84138793854694   -2.78132e-04   1.45661e-05 DIIS
   @DF-RHF iter   6:  -188.84143000751391   -4.20690e-05   6.34367e-06 DIIS
   @DF-RHF iter   7:  -188.84143951537030   -9.50786e-06   2.25329e-06 DIIS
   @DF-RHF iter   8:  -188.84144056433107   -1.04896e-06   6.84861e-07 DIIS
   @DF-RHF iter   9:  -188.84144066176000   -9.74289e-08   1.97688e-07 DIIS
   @DF-RHF iter  10:  -188.84144066970376   -7.94375e-09   4.46959e-08 DIIS
   @DF-RHF iter  11:  -188.84144067006054   -3.56778e-10   7.78540e-09 DIIS
  Energy and wave function converged.


  ==> Post-Iterations <==

    Orbital Energies [Eh]
    ---------------------

    Doubly Occupied:                                                      

       1A    -20.635635     2A    -20.564762     3A    -11.397676  
       4A     -1.478394     5A     -1.372443     6A     -0.898905  
       7A     -0.728204     8A     -0.711989     9A     -0.641112  
      10A     -0.600197    11A     -0.493709    12A     -0.472772  

    Virtual:                                                              

      13A      0.029989    14A      0.051592    15A      0.056413  
      16A      0.062099    17A      0.062480    18A      0.079366  
      19A      0.081541    20A      0.098545    21A      0.105000  
      22A      0.105782    23A      0.113314    24A      0.113817  
      25A      0.137493    26A      0.153349    27A      0.162148  
      28A      0.166910    29A      0.170157    30A      0.171623  
      31A      0.177150    32A      0.185399    33A      0.211275  
      34A      0.213524    35A      0.218410    36A      0.228152  
      37A      0.242500    38A      0.251427    39A      0.254643  
      40A      0.262131    41A      0.270659    42A      0.294343  
      43A      0.297813    44A      0.302128    45A      0.302657  
      46A      0.322265    47A      0.331521    48A      0.344776  
      49A      0.350261    50A      0.352755    51A      0.365208  
      52A      0.384571    53A      0.385927    54A      0.393723  
      55A      0.401055    56A      0.411294    57A      0.428401  
      58A      0.435149    59A      0.443730    60A      0.454692  
      61A      0.459415    62A      0.474142    63A      0.482113  
      64A      0.496901    65A      0.502537    66A      0.507750  
      67A      0.535157    68A      0.543759    69A      0.549705  
      70A      0.559328    71A      0.561256    72A      0.569284  
      73A      0.580525    74A      0.585908    75A      0.603310  
      76A      0.617117    77A      0.635448    78A      0.644955  
      79A      0.654020    80A      0.661139    81A      0.677375  
      82A      0.696735    83A      0.710613    84A      0.716734  
      85A      0.736741    86A      0.744764    87A      0.755934  
      88A      0.781108    89A      0.790853    90A      0.796818  
      91A      0.808912    92A      0.823572    93A      0.858246  
      94A      0.880002    95A      0.900369    96A      0.904548  
      97A      0.916243    98A      0.942398    99A      0.969924  
     100A      1.000211   101A      1.005378   102A      1.010716  
     103A      1.030451   104A      1.033707   105A      1.052057  
     106A      1.056472   107A      1.072130   108A      1.072456  
     109A      1.094277   110A      1.115916   111A      1.131946  
     112A      1.132227   113A      1.160535   114A      1.169072  
     115A      1.191603   116A      1.212675   117A      1.219647  
     118A      1.222600   119A      1.242416   120A      1.242741  
     121A      1.247137   122A      1.252732   123A      1.268068  
     124A      1.274069   125A      1.282676   126A      1.301000  
     127A      1.308775   128A      1.318431   129A      1.330491  
     130A      1.347980   131A      1.360236   132A      1.368838  
     133A      1.388664   134A      1.391718   135A      1.409442  
     136A      1.438204   137A      1.447411   138A      1.458743  
     139A      1.479463   140A      1.486107   141A      1.516359  
     142A      1.517780   143A      1.560234   144A      1.569136  
     145A      1.579999   146A      1.582961   147A      1.599693  
     148A      1.616365   149A      1.646441   150A      1.666757  
     151A      1.707127   152A      1.723203   153A      1.739336  
     154A      1.744666   155A      1.761752   156A      1.818134  
     157A      1.840165   158A      1.867005   159A      1.890120  
     160A      1.920140   161A      1.949009   162A      1.996044  
     163A      2.049359   164A      2.077738   165A      2.108439  
     166A      2.120783   167A      2.144532   168A      2.177981  
     169A      2.181369   170A      2.241492   171A      2.244632  
     172A      2.259358   173A      2.290202   174A      2.325082  
     175A      2.336889   176A      2.374612   177A      2.384218  
     178A      2.405441   179A      2.415500   180A      2.443507  
     181A      2.461988   182A      2.503852   183A      2.513589  
     184A      2.547526   185A      2.564124   186A      2.596219  
     187A      2.639624   188A      2.707726   189A      2.716863  
     190A      2.748418   191A      2.805726   192A      2.808041  
     193A      2.861379   194A      2.921077   195A      2.961417  
     196A      2.976113   197A      3.104182   198A      3.134806  
     199A      3.201703   200A      3.270989   201A      3.292922  
     202A      3.305217   203A      3.356947   204A      3.441866  
     205A      3.464300   206A      3.484072   207A      3.504384  
     208A      3.521509   209A      3.540166   210A      3.541089  
     211A      3.592122   212A      3.597542   213A      3.609706  
     214A      3.620824   215A      3.622919   216A      3.637912  
     217A      3.694671   218A      3.699215   219A      3.732694  
     220A      3.762196   221A      3.766847   222A      3.787470  
     223A      3.798377   224A      3.821462   225A      3.849828  
     226A      3.853533   227A      3.868253   228A      3.883487  
     229A      3.886686   230A      3.910209   231A      3.936030  
     232A      3.944727   233A      3.977605   234A      3.994677  
     235A      4.014700   236A      4.031112   237A      4.044765  
     238A      4.101629   239A      4.137365   240A      4.159320  
     241A      4.183150   242A      4.214880   243A      4.218135  
     244A      4.254498   245A      4.288266   246A      4.306155  
     247A      4.317625   248A      4.378502   249A      4.382396  
     250A      4.429806   251A      4.445767   252A      4.456446  
     253A      4.485747   254A      4.487780   255A      4.518447  
     256A      4.550066   257A      4.550896   258A      4.576266  
     259A      4.606272   260A      4.611720   261A      4.622819  
     262A      4.638034   263A      4.656560   264A      4.674771  
     265A      4.685857   266A      4.694746   267A      4.714230  
     268A      4.732611   269A      4.733973   270A      4.759453  
     271A      4.775264   272A      4.812088   273A      4.818186  
     274A      4.819915   275A      4.827341   276A      4.849533  
     277A      4.853941   278A      4.884133   279A      4.925123  
     280A      4.928424   281A      4.949171   282A      4.970931  
     283A      4.973092   284A      4.977803   285A      4.994674  
     286A      5.004539   287A      5.024032   288A      5.032170  
     289A      5.057452   290A      5.088583   291A      5.092616  
     292A      5.142566   293A      5.178197   294A      5.208194  
     295A      5.234603   296A      5.259671   297A      5.327632  
     298A      5.357678   299A      5.390259   300A      5.449999  
     301A      5.550849   302A      5.607913   303A      5.626223  
     304A      5.636859   305A      5.662412   306A      5.673476  
     307A      5.731729   308A      5.786725   309A      5.815043  
     310A      5.852290   311A      5.872583   312A      5.877706  
     313A      5.902689   314A      6.028532   315A      6.038635  
     316A      6.083978   317A      6.087340   318A      6.155372  
     319A      6.187300   320A      6.203153   321A      6.241199  
     322A      6.305864   323A      6.365193   324A      6.377284  
     325A      6.428607   326A      6.448634   327A      6.468085  
     328A      6.505216   329A      6.564051   330A      6.576876  
     331A      6.709097   332A      6.720224   333A      6.840972  
     334A      6.866385   335A      6.918510   336A      6.919440  
     337A      6.960744   338A      6.972092   339A      6.996157  
     340A      7.122380   341A      7.149619   342A      7.205489  
     343A      7.237990   344A      7.301509   345A      7.345702  
     346A      7.357035   347A      7.382724   348A      7.394331  
     349A      7.487933   350A      7.525408   351A      7.579554  
     352A      7.606201   353A      7.688554   354A      7.691791  
     355A      7.729401   356A      7.765543   357A      7.791959  
     358A      7.843473   359A      7.892360   360A      7.992224  
     361A      7.995860   362A      8.102053   363A      8.159207  
     364A      8.267723   365A      8.451061   366A      8.569326  
     367A      9.366322   368A      9.419073   369A      9.643441  
     370A      9.775884   371A      9.862918   372A      9.925779  
     373A      9.950989   374A     10.264230   375A     10.962395  
     376A     11.549010   377A     11.949129   378A     12.592121  
     379A     13.610961   380A     13.785623   381A     14.623075  
     382A     43.690269   383A     44.844695   384A     45.747828  
     385A     60.594883  

    Final Occupation by Irrep:
              A 
    DOCC [    12 ]

  @DF-RHF Final Energy:  -188.84144067006054

   => Energetics <=

    Nuclear Repulsion Energy =             70.0319906010005013
    One-Electron Energy =                -397.7552647886753903
    Two-Electron Energy =                 138.8818335176143250
    Total Energy =                       -188.8414406700605355

Computation Completed


Properties will be evaluated at   0.000000,   0.000000,   0.000000 [a0]

Properties computed using the SCF density matrix

  Nuclear Dipole Moment: [e a0]
     X:   105.2583      Y:     0.3670      Z:     0.0018

  Electronic Dipole Moment: [e a0]
     X:  -105.1674      Y:    -1.1232      Z:    -0.0020

  Dipole Moment: [e a0]
     X:     0.0909      Y:    -0.7563      Z:    -0.0002     Total:     0.7617

  Dipole Moment: [D]
     X:     0.2310      Y:    -1.9222      Z:    -0.0005     Total:     1.9360


*** tstop() called on r282 at Fri Sep 10 13:12:02 2021
Module time:
	user time   =      12.27 seconds =       0.20 minutes
	system time =       0.24 seconds =       0.00 minutes
	total time  =         13 seconds =       0.22 minutes
Total time:
	user time   =      38.46 seconds =       0.64 minutes
	system time =       0.95 seconds =       0.02 minutes
	total time  =         40 seconds =       0.67 minutes

  //>>>>>>>>>>>>>>>>>>>>>>>>>>>>>>>>>>>//
  //            Monomer B HF           //
  //<<<<<<<<<<<<<<<<<<<<<<<<<<<<<<<<<<<//


*** tstart() called on r282
*** at Fri Sep 10 13:12:02 2021

   => Loading Basis Set <=

    Name: JUN-CC-PVTZ
    Role: ORBITAL
    Keyword: BASIS
    atoms 1, 7-8, 11     entry C          line   217 file /home/r08543048/miniconda3/share/psi4/basis/jun-cc-pvtz.gbs 
    atoms 2-3, 9         entry O          line   305 file /home/r08543048/miniconda3/share/psi4/basis/jun-cc-pvtz.gbs 
    atoms 4-6, 10, 12-15 entry H          line    36 file /home/r08543048/miniconda3/share/psi4/basis/jun-cc-pvtz.gbs 


         ---------------------------------------------------------
                                   SCF
               by Justin Turney, Rob Parrish, Andy Simmonett
                          and Daniel G. A. Smith
                              RHF Reference
                        1 Threads,  20980 MiB Core
         ---------------------------------------------------------

  ==> Geometry <==

    Molecular point group: c1
    Full point group: C1

    Geometry (in Angstrom), charge = 0, multiplicity = 1:

       Center              X                  Y                   Z               Mass       
    ------------   -----------------  -----------------  -----------------  -----------------
      Gh(C)           2.724723605318     0.098832083044     0.000042382170    12.000000000000
      Gh(O)           2.145472605318    -1.096798916956    -0.000205617830    15.994914619570
      Gh(O)           2.151650605318     1.168659083044     0.000318382170    15.994914619570
      Gh(H)           3.813531605318    -0.003914916956    -0.000026617830     1.007825032230
      Gh(H)           1.161413605318    -0.969771916956    -0.000181617830     1.007825032230
         H           -0.243963394682     1.226431083044    -0.000721617830     1.007825032230
         C           -2.421697394682     0.764437083044    -0.000253617830    12.000000000000
         C           -0.971784394682     0.402161083044    -0.000241617830    12.000000000000
         O           -0.568918394682    -0.754295916956     0.000052382170    15.994914619570
         H           -2.581466394682     1.412534083044     0.867487382170     1.007825032230
         C           -3.358910394682    -0.429356916956     0.000285382170    12.000000000000
         H           -4.395925394682    -0.100382916956     0.000261382170     1.007825032230
         H           -3.192338394682    -1.050834916956    -0.877206617830     1.007825032230
         H           -3.192169394682    -1.050172916956     0.878213382170     1.007825032230
         H           -2.581638394682     1.411881083044    -0.868452617830     1.007825032230

  Running in c1 symmetry.

  Rotational constants: A =      0.23012  B =      0.03171  C =      0.02815 [cm^-1]
  Rotational constants: A =   6898.95698  B =    950.60659  C =    844.05658 [MHz]
  Nuclear repulsion =  118.747114891950361

  Charge       = 0
  Multiplicity = 1
  Electrons    = 32
  Nalpha       = 16
  Nbeta        = 16

  ==> Algorithm <==

  SCF Algorithm Type is DF.
  DIIS enabled.
  MOM disabled.
  Fractional occupation disabled.
  Guess Type is SAD.
  Energy threshold   = 1.00e-08
  Density threshold  = 1.00e-08
  Integral threshold = 0.00e+00

  ==> Primary Basis <==

  Basis Set: JUN-CC-PVTZ
    Blend: JUN-CC-PVTZ
    Number of shells: 139
    Number of basis function: 385
    Number of Cartesian functions: 435
    Spherical Harmonics?: true
    Max angular momentum: 3

   => Loading Basis Set <=

    Name: (JUN-CC-PVTZ AUX)
    Role: JKFIT
    Keyword: DF_BASIS_SCF
    atoms 1, 7-8, 11     entry C          line   152 file /home/r08543048/miniconda3/share/psi4/basis/jun-cc-pvtz-jkfit.gbs 
    atoms 2-3, 9         entry O          line   272 file /home/r08543048/miniconda3/share/psi4/basis/jun-cc-pvtz-jkfit.gbs 
    atoms 4-6, 10, 12-15 entry H          line    70 file /home/r08543048/miniconda3/share/psi4/basis/jun-cc-pvtz-jkfit.gbs 

  ==> Pre-Iterations <==

   -------------------------------------------------------
    Irrep   Nso     Nmo     Nalpha   Nbeta   Ndocc  Nsocc
   -------------------------------------------------------
     A        385     385       0       0       0       0
   -------------------------------------------------------
    Total     385     385      16      16      16       0
   -------------------------------------------------------

  ==> Integral Setup <==

  ==> DiskDFJK: Density-Fitted J/K Matrices <==

    J tasked:                  Yes
    K tasked:                  Yes
    wK tasked:                  No
    OpenMP threads:              1
    Integrals threads:           1
    Memory [MiB]:            15735
    Algorithm:                Core
    Integral Cache:           LOAD
    Schwarz Cutoff:          1E-12
    Fitting Condition:       1E-10

   => Auxiliary Basis Set <=

  Basis Set: (JUN-CC-PVTZ AUX)
    Blend: JUN-CC-PVTZ-JKFIT
    Number of shells: 283
    Number of basis function: 905
    Number of Cartesian functions: 1092
    Spherical Harmonics?: true
    Max angular momentum: 4

  Minimum eigenvalue in the overlap matrix is 3.7269910720E-05.
  Using Symmetric Orthogonalization.

  SCF Guess: Superposition of Atomic Densities via on-the-fly atomic UHF.

  ==> Iterations <==

                           Total Energy        Delta E     RMS |[F,P]|

   @DF-RHF iter SAD:  -191.17362807190239   -1.91174e+02   0.00000e+00 
   @DF-RHF iter   1:  -191.85714193616764   -6.83514e-01   1.44872e-03 DIIS
   @DF-RHF iter   2:  -191.97228919960136   -1.15147e-01   9.39752e-04 DIIS
   @DF-RHF iter   3:  -192.01989374595544   -4.76045e-02   1.73332e-04 DIIS
   @DF-RHF iter   4:  -192.02273630084591   -2.84255e-03   7.35382e-05 DIIS
   @DF-RHF iter   5:  -192.02329741226549   -5.61111e-04   1.33264e-05 DIIS
   @DF-RHF iter   6:  -192.02333649120868   -3.90789e-05   5.12438e-06 DIIS
   @DF-RHF iter   7:  -192.02334194983837   -5.45863e-06   2.23339e-06 DIIS
   @DF-RHF iter   8:  -192.02334289018270   -9.40344e-07   7.07250e-07 DIIS
   @DF-RHF iter   9:  -192.02334300562862   -1.15446e-07   1.41453e-07 DIIS
   @DF-RHF iter  10:  -192.02334301001389   -4.38527e-09   2.92798e-08 DIIS
   @DF-RHF iter  11:  -192.02334301015748   -1.43586e-10   5.96088e-09 DIIS
  Energy and wave function converged.


  ==> Post-Iterations <==

    Orbital Energies [Eh]
    ---------------------

    Doubly Occupied:                                                      

       1A    -20.556493     2A    -11.332770     3A    -11.245430  
       4A    -11.221217     5A     -1.382700     6A     -1.064962  
       7A     -0.914340     8A     -0.775876     9A     -0.681648  
      10A     -0.635951    11A     -0.624505    12A     -0.541819  
      13A     -0.525860    14A     -0.520911    15A     -0.488448  
      16A     -0.425038  

    Virtual:                                                              

      17A      0.043368    18A      0.048547    19A      0.056419  
      20A      0.066792    21A      0.073737    22A      0.080647  
      23A      0.083275    24A      0.101158    25A      0.102043  
      26A      0.106172    27A      0.112884    28A      0.118874  
      29A      0.144524    30A      0.149267    31A      0.159422  
      32A      0.169974    33A      0.181135    34A      0.185962  
      35A      0.193100    36A      0.210565    37A      0.212871  
      38A      0.216571    39A      0.228692    40A      0.234712  
      41A      0.243779    42A      0.250307    43A      0.266670  
      44A      0.268035    45A      0.276589    46A      0.288305  
      47A      0.290279    48A      0.301397    49A      0.311252  
      50A      0.318913    51A      0.325341    52A      0.326397  
      53A      0.353573    54A      0.358939    55A      0.370735  
      56A      0.385540    57A      0.389048    58A      0.395939  
      59A      0.400061    60A      0.422337    61A      0.425302  
      62A      0.431443    63A      0.441617    64A      0.446102  
      65A      0.462656    66A      0.470765    67A      0.474804  
      68A      0.482938    69A      0.499865    70A      0.505799  
      71A      0.507909    72A      0.514779    73A      0.531869  
      74A      0.548952    75A      0.551826    76A      0.564517  
      77A      0.602302    78A      0.619562    79A      0.637969  
      80A      0.649973    81A      0.682997    82A      0.686852  
      83A      0.704182    84A      0.709298    85A      0.710802  
      86A      0.723249    87A      0.734512    88A      0.744603  
      89A      0.760066    90A      0.764361    91A      0.770183  
      92A      0.778804    93A      0.789145    94A      0.810817  
      95A      0.823815    96A      0.852478    97A      0.863261  
      98A      0.869961    99A      0.873420   100A      0.890420  
     101A      0.895037   102A      0.905642   103A      0.915634  
     104A      0.927024   105A      0.935848   106A      0.949111  
     107A      0.964911   108A      0.993720   109A      0.994882  
     110A      0.997935   111A      1.005193   112A      1.007829  
     113A      1.025600   114A      1.031447   115A      1.052401  
     116A      1.055849   117A      1.070601   118A      1.074745  
     119A      1.092418   120A      1.101503   121A      1.111160  
     122A      1.149944   123A      1.177781   124A      1.187858  
     125A      1.210340   126A      1.223005   127A      1.236542  
     128A      1.243807   129A      1.268503   130A      1.271825  
     131A      1.294802   132A      1.321930   133A      1.341174  
     134A      1.364785   135A      1.380128   136A      1.396843  
     137A      1.414852   138A      1.425124   139A      1.426959  
     140A      1.430655   141A      1.457959   142A      1.460441  
     143A      1.496333   144A      1.507297   145A      1.551479  
     146A      1.555782   147A      1.575157   148A      1.578637  
     149A      1.585712   150A      1.610048   151A      1.642315  
     152A      1.644092   153A      1.668996   154A      1.679796  
     155A      1.681901   156A      1.708763   157A      1.728108  
     158A      1.763212   159A      1.783135   160A      1.784688  
     161A      1.801705   162A      1.832168   163A      1.835319  
     164A      1.887560   165A      1.904466   166A      1.916408  
     167A      1.934121   168A      1.952815   169A      2.022868  
     170A      2.038883   171A      2.078177   172A      2.176752  
     173A      2.227294   174A      2.285876   175A      2.331438  
     176A      2.352487   177A      2.376496   178A      2.479624  
     179A      2.530508   180A      2.555588   181A      2.609200  
     182A      2.623468   183A      2.642480   184A      2.668461  
     185A      2.734887   186A      2.745667   187A      2.765390  
     188A      2.782256   189A      2.797827   190A      2.818869  
     191A      2.842181   192A      2.844679   193A      2.877908  
     194A      2.891601   195A      2.929346   196A      2.932944  
     197A      2.944794   198A      2.966139   199A      2.977599  
     200A      2.990387   201A      3.017270   202A      3.022431  
     203A      3.059282   204A      3.067215   205A      3.085040  
     206A      3.107279   207A      3.128496   208A      3.130065  
     209A      3.192649   210A      3.219401   211A      3.253080  
     212A      3.273274   213A      3.289538   214A      3.295448  
     215A      3.339016   216A      3.359874   217A      3.389511  
     218A      3.392514   219A      3.400476   220A      3.419038  
     221A      3.446636   222A      3.470821   223A      3.476426  
     224A      3.504513   225A      3.513101   226A      3.530953  
     227A      3.531886   228A      3.552816   229A      3.558089  
     230A      3.590315   231A      3.605376   232A      3.631865  
     233A      3.668346   234A      3.685464   235A      3.709800  
     236A      3.721514   237A      3.727268   238A      3.768704  
     239A      3.775470   240A      3.809556   241A      3.830937  
     242A      3.840811   243A      3.866296   244A      3.885117  
     245A      3.895791   246A      3.953175   247A      3.963150  
     248A      3.989146   249A      4.041567   250A      4.055980  
     251A      4.088230   252A      4.122838   253A      4.137941  
     254A      4.150672   255A      4.197415   256A      4.207391  
     257A      4.223059   258A      4.231991   259A      4.279129  
     260A      4.316980   261A      4.318799   262A      4.341676  
     263A      4.347629   264A      4.348640   265A      4.378852  
     266A      4.389837   267A      4.413254   268A      4.413353  
     269A      4.442952   270A      4.472706   271A      4.483149  
     272A      4.509088   273A      4.547842   274A      4.564357  
     275A      4.569774   276A      4.603186   277A      4.637371  
     278A      4.653034   279A      4.661236   280A      4.676034  
     281A      4.694420   282A      4.707805   283A      4.734294  
     284A      4.764161   285A      4.783148   286A      4.786518  
     287A      4.842511   288A      4.883497   289A      4.919571  
     290A      4.919975   291A      4.951437   292A      4.972440  
     293A      5.000111   294A      5.020310   295A      5.037414  
     296A      5.055661   297A      5.069146   298A      5.088193  
     299A      5.164246   300A      5.179478   301A      5.249599  
     302A      5.269528   303A      5.275524   304A      5.292973  
     305A      5.315840   306A      5.331674   307A      5.375567  
     308A      5.405204   309A      5.449224   310A      5.496868  
     311A      5.555305   312A      5.623697   313A      5.630633  
     314A      5.674783   315A      5.732023   316A      5.734065  
     317A      5.749921   318A      5.758102   319A      5.764856  
     320A      5.806119   321A      5.847695   322A      5.899318  
     323A      5.918797   324A      5.960245   325A      5.993444  
     326A      6.114457   327A      6.117516   328A      6.145677  
     329A      6.186983   330A      6.265085   331A      6.439627  
     332A      6.474614   333A      6.483839   334A      6.490395  
     335A      6.502227   336A      6.530934   337A      6.595639  
     338A      6.755298   339A      6.765840   340A      6.808208  
     341A      6.968669   342A      7.030562   343A      7.162196  
     344A      7.178369   345A      7.225549   346A      7.274071  
     347A      7.414432   348A      7.417898   349A      7.482780  
     350A      7.556982   351A      7.681406   352A      7.775659  
     353A      7.815697   354A      7.827593   355A      8.001630  
     356A      8.019276   357A      8.443018   358A      8.664309  
     359A      8.897187   360A      9.299571   361A      9.496066  
     362A      9.693316   363A      9.769754   364A      9.819827  
     365A      9.848486   366A      9.875912   367A      9.936617  
     368A     10.029629   369A     10.314949   370A     10.517206  
     371A     10.993415   372A     11.383889   373A     11.526535  
     374A     11.563142   375A     11.902810   376A     12.463417  
     377A     13.067583   378A     13.634501   379A     13.939816  
     380A     13.999468   381A     14.282149   382A     14.652207  
     383A     44.755090   384A     60.202856   385A     61.412892  

    Final Occupation by Irrep:
              A 
    DOCC [    16 ]

  @DF-RHF Final Energy:  -192.02334301015748

   => Energetics <=

    Nuclear Repulsion Energy =            118.7471148919503605
    One-Electron Energy =                -495.6649788264176664
    Two-Electron Energy =                 184.8945209243098020
    Total Energy =                       -192.0233430101574754

Computation Completed


Properties will be evaluated at   0.000000,   0.000000,   0.000000 [a0]

Properties computed using the SCF density matrix

  Nuclear Dipole Moment: [e a0]
     X:  -115.7518      Y:     0.4508      Z:    -0.0024

  Electronic Dipole Moment: [e a0]
     X:   115.1255      Y:     0.6436      Z:     0.0021

  Dipole Moment: [e a0]
     X:    -0.6263      Y:     1.0944      Z:    -0.0003     Total:     1.2609

  Dipole Moment: [D]
     X:    -1.5920      Y:     2.7816      Z:    -0.0007     Total:     3.2049


*** tstop() called on r282 at Fri Sep 10 13:12:15 2021
Module time:
	user time   =      12.66 seconds =       0.21 minutes
	system time =       0.36 seconds =       0.01 minutes
	total time  =         13 seconds =       0.22 minutes
Total time:
	user time   =      51.12 seconds =       0.85 minutes
	system time =       1.32 seconds =       0.02 minutes
	total time  =         53 seconds =       0.88 minutes
  Constructing Basis Sets for SAPT...

   => Loading Basis Set <=

    Name: (JUN-CC-PVTZ AUX)
    Role: RIFIT
    Keyword: DF_BASIS_SAPT
    atoms 1, 7-8, 11     entry C          line   132 file /home/r08543048/miniconda3/share/psi4/basis/jun-cc-pvtz-ri.gbs 
    atoms 2-3, 9         entry O          line   244 file /home/r08543048/miniconda3/share/psi4/basis/jun-cc-pvtz-ri.gbs 
    atoms 4-6, 10, 12-15 entry H          line    30 file /home/r08543048/miniconda3/share/psi4/basis/jun-cc-pvtz-ri.gbs 


  //>>>>>>>>>>>>>>>>>>>>>>>>>>>>>>>>>>>//
  //               SAPT0               //
  //<<<<<<<<<<<<<<<<<<<<<<<<<<<<<<<<<<<//


*** tstart() called on r282
*** at Fri Sep 10 13:12:15 2021

        SAPT0  
    Ed Hohenstein
     6 June 2009

      Orbital Information
  --------------------------
    NSO        =       385
    NMO        =       385
    NRI        =       919
    NOCC A     =        12
    NOCC B     =        16
    FOCC A     =         0
    FOCC B     =         0
    NVIR A     =       373
    NVIR B     =       369

    Elst10,r            =    -0.028665545003 [Eh]
    Exch10              =     0.026128293063 [Eh]
    Exch10 (S^2)        =     0.025858266084 [Eh]

    Iter     Energy [mEh]          dE [mEh]         Residual      Time [s]
       1      -3.98167690       3.981676899      10.294133194             1
       2      -4.57839545       0.596718551       5.125934082             1
       3      -4.74389533       0.165499881       1.443013764             1
       4      -4.71880081      -0.025094517       0.620906578             2
       5      -4.71124576      -0.007555055       0.188114993             2
       6      -4.71442186       0.003176097       0.084799743             3
       7      -4.71536140       0.000939544       0.019311995             3
       8      -4.71498185      -0.000379553       0.005157203             3
       9      -4.71496543      -0.000016412       0.001507486             4
      10      -4.71498795       0.000022515       0.000371733             4
      11      -4.71498607      -0.000001877       0.000074429             5
      12      -4.71498547      -0.000000607       0.000015306             5
      13      -4.71498563       0.000000164       0.000002843             5
      14      -4.71498561      -0.000000021       0.000000551             6

    CHF Iterations converged


    Iter     Energy [mEh]          dE [mEh]         Residual      Time [s]
       1      -7.77590870       7.775908702      22.490473722             0
       2      -9.04597389       1.270065188      12.496020580             1
       3     -10.10752450       1.061550605       2.900523734             1
       4     -10.03453872      -0.072985773       1.182387267             2
       5     -10.01937221      -0.015166508       0.370943390             2
       6     -10.02789620       0.008523986       0.132207278             3
       7     -10.02908415       0.001187950       0.024927960             3
       8     -10.02851366      -0.000570492       0.006487586             3
       9     -10.02849508      -0.000018580       0.001815081             4
      10     -10.02853254       0.000037460       0.000375472             4
      11     -10.02853024      -0.000002297       0.000087295             5
      12     -10.02852931      -0.000000930       0.000024520             5
      13     -10.02852940       0.000000091       0.000006772             6
      14     -10.02852947       0.000000069       0.000001905             6
      15     -10.02852945      -0.000000016       0.000000973             7

    CHF Iterations converged

    Ind20,r (A<-B)      =    -0.004714985608 [Eh]
    Ind20,r (B<-A)      =    -0.010028529454 [Eh]
    Ind20,r             =    -0.014743515062 [Eh]
    Exch-Ind20,r (A<-B) =     0.003389513876 [Eh]
    Exch-Ind20,r (B<-A) =     0.004290593307 [Eh]
    Exch-Ind20,r        =     0.007680107184 [Eh]
    Disp20              =    -0.009892657536 [Eh]
    Disp20 (SS)         =    -0.004946328768 [Eh]
    Disp20 (OS)         =    -0.004946328768 [Eh]
    Exch-Disp20         =     0.001765160807 [Eh]
    Exch-Disp20 (SS)    =     0.001102277068 [Eh]
    Exch-Disp20 (OS)    =     0.000662883739 [Eh]

    SAPT Results 
  --------------------------------------------------------------------------------------------------------
    Electrostatics                -28.66554500 [mEh]     -17.98790106 [kcal/mol]     -75.26137804 [kJ/mol]
      Elst10,r                    -28.66554500 [mEh]     -17.98790106 [kcal/mol]     -75.26137804 [kJ/mol]

    Exchange                       26.12829306 [mEh]      16.39575143 [kcal/mol]      68.59982399 [kJ/mol]
      Exch10                       26.12829306 [mEh]      16.39575143 [kcal/mol]      68.59982399 [kJ/mol]
      Exch10(S^2)                  25.85826608 [mEh]      16.22630694 [kcal/mol]      67.89086825 [kJ/mol]

    Induction                     -11.94466374 [mEh]      -7.49538966 [kcal/mol]     -31.36071033 [kJ/mol]
      Ind20,r                     -14.74351506 [mEh]      -9.25169538 [kcal/mol]     -38.70909346 [kJ/mol]
      Exch-Ind20,r                  7.68010718 [mEh]       4.81934002 [kcal/mol]      20.16411863 [kJ/mol]
      delta HF,r (2)               -4.88125586 [mEh]      -3.06303430 [kcal/mol]     -12.81573550 [kJ/mol]

    Dispersion                     -8.12749673 [mEh]      -5.10008120 [kcal/mol]     -21.33873972 [kJ/mol]
      Disp20                       -9.89265754 [mEh]      -6.20773632 [kcal/mol]     -25.97316878 [kJ/mol]
      Exch-Disp20                   1.76516081 [mEh]       1.10765513 [kcal/mol]       4.63442906 [kJ/mol]
      Disp20 (SS)                  -4.94632877 [mEh]      -3.10386816 [kcal/mol]     -12.98658439 [kJ/mol]
      Disp20 (OS)                  -4.94632877 [mEh]      -3.10386816 [kcal/mol]     -12.98658439 [kJ/mol]
      Exch-Disp20 (SS)              1.10227707 [mEh]       0.69168930 [kcal/mol]       2.89402804 [kJ/mol]
      Exch-Disp20 (OS)              0.66288374 [mEh]       0.41596583 [kcal/mol]       1.74040102 [kJ/mol]

  Total HF                        -14.48191568 [mEh]      -9.08753929 [kcal/mol]     -38.02226438 [kJ/mol]
  Total SAPT0                     -22.60941241 [mEh]     -14.18762048 [kcal/mol]     -59.36100410 [kJ/mol]

  Special recipe for scaled SAPT0 (see Manual):
    Electrostatics sSAPT0         -28.66554500 [mEh]     -17.98790106 [kcal/mol]     -75.26137804 [kJ/mol]
    Exchange sSAPT0                26.12829306 [mEh]      16.39575143 [kcal/mol]      68.59982399 [kJ/mol]
    Induction sSAPT0              -11.70154213 [mEh]      -7.34282855 [kcal/mol]     -30.72239464 [kJ/mol]
    Dispersion sSAPT0              -8.07161877 [mEh]      -5.06501725 [kcal/mol]     -21.19203215 [kJ/mol]
  Total sSAPT0                    -22.31041284 [mEh]     -13.99999542 [kcal/mol]     -58.57598084 [kJ/mol]
  --------------------------------------------------------------------------------------------------------

*** tstop() called on r282 at Fri Sep 10 13:13:05 2021
Module time:
	user time   =      41.09 seconds =       0.68 minutes
	system time =       8.08 seconds =       0.13 minutes
	total time  =         50 seconds =       0.83 minutes
Total time:
	user time   =      92.31 seconds =       1.54 minutes
	system time =       9.40 seconds =       0.16 minutes
	total time  =        103 seconds =       1.72 minutes

    Psi4 stopped on: Friday, 10 September 2021 01:13PM
    Psi4 wall time for execution: 0:01:42.69

*** Psi4 exiting successfully. Buy a developer a beer!
