
    -----------------------------------------------------------------------
          Psi4: An Open-Source Ab Initio Electronic Structure Package
                               Psi4 1.3.2 release

                         Git: Rev {HEAD} ecbda83 


    R. M. Parrish, L. A. Burns, D. G. A. Smith, A. C. Simmonett,
    A. E. DePrince III, E. G. Hohenstein, U. Bozkaya, A. Yu. Sokolov,
    R. Di Remigio, R. M. Richard, J. F. Gonthier, A. M. James,
    H. R. McAlexander, A. Kumar, M. Saitow, X. Wang, B. P. Pritchard,
    P. Verma, H. F. Schaefer III, K. Patkowski, R. A. King, E. F. Valeev,
    F. A. Evangelista, J. M. Turney, T. D. Crawford, and C. D. Sherrill,
    J. Chem. Theory Comput. 13(7) pp 3185--3197 (2017).
    (doi: 10.1021/acs.jctc.7b00174)


                         Additional Contributions by
    P. Kraus, H. Kruse, M. H. Lechner, M. C. Schieber, R. A. Shaw,
    A. Alenaizan, R. Galvelis, Z. L. Glick, S. Lehtola, and J. P. Misiewicz

    -----------------------------------------------------------------------


    Psi4 started on: Friday, 10 September 2021 01:37PM

    Process ID: 56694
    Host:       r282
    PSIDATADIR: /home/r08543048/miniconda3/share/psi4
    Memory:     500.0 MiB
    Threads:    1
    
  ==> Input File <==

--------------------------------------------------------------------------
# Any line starting with the # character is a comment line
#! Sample  computation

memory 22 gb

molecule Dimer {
0 1
 C  4.049398   -0.828827    0.000176
 C  3.247016    0.459884   -0.000040
 C  1.760443    0.220850   -0.000000
 O  1.236241   -0.878912    0.000170
 O  1.072268    1.369100   -0.000207
 H  3.817270   -1.428575   -0.877388
 H  5.116293   -0.612175    0.000144
 H  3.817264   -1.428283    0.877938
 H  3.475344    1.077081   -0.870574
 H  3.475341    1.077370    0.870290
 H  0.107693    1.150346   -0.000207

    
 --
0 1
 H -1.121334   -1.154408   -0.000866
 C -3.332912   -0.889088   -0.000262
 C -1.920148   -0.398752   -0.000307
 O -1.622027    0.788593    0.000056
 H -3.434852   -1.548533    0.867614
 C -4.372343    0.216905    0.000405
 H -4.260830    0.850147    0.878240
 H -4.261159    0.850897   -0.876931
 H -5.376427   -0.202153    0.000413
 H -3.435183   -1.547795   -0.868661





 
 







units angstrom

no_reorient
symmetry c1
}

set globals{
  basis jun-cc-pvtz
}

energy('sapt0')


--------------------------------------------------------------------------

  Memory set to  20.489 GiB by Python driver.

  //>>>>>>>>>>>>>>>>>>>>>>>>>>>>>>>>>>>//
  //              Dimer HF             //
  //<<<<<<<<<<<<<<<<<<<<<<<<<<<<<<<<<<<//


*** tstart() called on r282
*** at Fri Sep 10 13:37:09 2021

   => Loading Basis Set <=

    Name: JUN-CC-PVTZ
    Role: ORBITAL
    Keyword: BASIS
    atoms 1-3, 13-14, 17  entry C          line   217 file /home/r08543048/miniconda3/share/psi4/basis/jun-cc-pvtz.gbs 
    atoms 4-5, 15         entry O          line   305 file /home/r08543048/miniconda3/share/psi4/basis/jun-cc-pvtz.gbs 
    atoms 6-12, 16, 18-21 entry H          line    36 file /home/r08543048/miniconda3/share/psi4/basis/jun-cc-pvtz.gbs 


         ---------------------------------------------------------
                                   SCF
               by Justin Turney, Rob Parrish, Andy Simmonett
                          and Daniel G. A. Smith
                              RHF Reference
                        1 Threads,  20980 MiB Core
         ---------------------------------------------------------

  ==> Geometry <==

    Molecular point group: c1
    Full point group: C1

    Geometry (in Angstrom), charge = 0, multiplicity = 1:

       Center              X                  Y                   Z               Mass       
    ------------   -----------------  -----------------  -----------------  -----------------
         C            4.033795111402    -0.850683353090     0.000176151446    12.000000000000
         C            3.231413111402     0.438027646910    -0.000039848554    12.000000000000
         C            1.744840111402     0.198993646910     0.000000151446    12.000000000000
         O            1.220638111402    -0.900768353090     0.000170151446    15.994914619570
         O            1.056665111402     1.347243646910    -0.000206848554    15.994914619570
         H            3.801667111402    -1.450431353090    -0.877387848554     1.007825032230
         H            5.100690111402    -0.634031353090     0.000144151446     1.007825032230
         H            3.801661111402    -1.450139353090     0.877938151446     1.007825032230
         H            3.459741111402     1.055224646910    -0.870573848554     1.007825032230
         H            3.459738111402     1.055513646910     0.870290151446     1.007825032230
         H            0.092090111402     1.128489646910    -0.000206848554     1.007825032230
         H           -1.136936888598    -1.176264353090    -0.000865848554     1.007825032230
         C           -3.348514888598    -0.910944353090    -0.000261848554    12.000000000000
         C           -1.935750888598    -0.420608353090    -0.000306848554    12.000000000000
         O           -1.637629888598     0.766736646910     0.000056151446    15.994914619570
         H           -3.450454888598    -1.570389353090     0.867614151446     1.007825032230
         C           -4.387945888598     0.195048646910     0.000405151446    12.000000000000
         H           -4.276432888598     0.828290646910     0.878240151446     1.007825032230
         H           -4.276761888598     0.829040646910    -0.876930848554     1.007825032230
         H           -5.392029888598    -0.224009353090     0.000413151446     1.007825032230
         H           -3.450785888598    -1.569651353090    -0.868660848554     1.007825032230

  Running in c1 symmetry.

  Rotational constants: A =      0.17284  B =      0.01638  C =      0.01512 [cm^-1]
  Rotational constants: A =   5181.59039  B =    490.96638  C =    453.42282 [MHz]
  Nuclear repulsion =  438.585890545636119

  Charge       = 0
  Multiplicity = 1
  Electrons    = 72
  Nalpha       = 36
  Nbeta        = 36

  ==> Algorithm <==

  SCF Algorithm Type is DF.
  DIIS enabled.
  MOM disabled.
  Fractional occupation disabled.
  Guess Type is SAD.
  Energy threshold   = 1.00e-08
  Density threshold  = 1.00e-08
  Integral threshold = 0.00e+00

  ==> Primary Basis <==

  Basis Set: JUN-CC-PVTZ
    Blend: JUN-CC-PVTZ
    Number of shells: 189
    Number of basis function: 519
    Number of Cartesian functions: 585
    Spherical Harmonics?: true
    Max angular momentum: 3

   => Loading Basis Set <=

    Name: (JUN-CC-PVTZ AUX)
    Role: JKFIT
    Keyword: DF_BASIS_SCF
    atoms 1-3, 13-14, 17  entry C          line   152 file /home/r08543048/miniconda3/share/psi4/basis/jun-cc-pvtz-jkfit.gbs 
    atoms 4-5, 15         entry O          line   272 file /home/r08543048/miniconda3/share/psi4/basis/jun-cc-pvtz-jkfit.gbs 
    atoms 6-12, 16, 18-21 entry H          line    70 file /home/r08543048/miniconda3/share/psi4/basis/jun-cc-pvtz-jkfit.gbs 

  ==> Pre-Iterations <==

   -------------------------------------------------------
    Irrep   Nso     Nmo     Nalpha   Nbeta   Ndocc  Nsocc
   -------------------------------------------------------
     A        519     519       0       0       0       0
   -------------------------------------------------------
    Total     519     519      36      36      36       0
   -------------------------------------------------------

  ==> Integral Setup <==

  ==> DiskDFJK: Density-Fitted J/K Matrices <==

    J tasked:                  Yes
    K tasked:                  Yes
    wK tasked:                  No
    OpenMP threads:              1
    Integrals threads:           1
    Memory [MiB]:            15735
    Algorithm:                Core
    Integral Cache:           SAVE
    Schwarz Cutoff:          1E-12
    Fitting Condition:       1E-10

   => Auxiliary Basis Set <=

  Basis Set: (JUN-CC-PVTZ AUX)
    Blend: JUN-CC-PVTZ-JKFIT
    Number of shells: 381
    Number of basis function: 1215
    Number of Cartesian functions: 1464
    Spherical Harmonics?: true
    Max angular momentum: 4

  Minimum eigenvalue in the overlap matrix is 3.1037710113E-05.
  Using Symmetric Orthogonalization.

  SCF Guess: Superposition of Atomic Densities via on-the-fly atomic UHF.

  ==> Iterations <==

                           Total Energy        Delta E     RMS |[F,P]|

   @DF-RHF iter SAD:  -457.39876152412512   -4.57399e+02   0.00000e+00 
   @DF-RHF iter   1:  -458.64728535649175   -1.24852e+00   1.59331e-03 DIIS
   @DF-RHF iter   2:  -458.90301236152686   -2.55727e-01   9.07746e-04 DIIS
   @DF-RHF iter   3:  -458.98186715593420   -7.88548e-02   1.70696e-04 DIIS
   @DF-RHF iter   4:  -458.98690581208302   -5.03866e-03   7.87933e-05 DIIS
   @DF-RHF iter   5:  -458.98790505972801   -9.99248e-04   1.50205e-05 DIIS
   @DF-RHF iter   6:  -458.98797638661949   -7.13269e-05   7.18042e-06 DIIS
   @DF-RHF iter   7:  -458.98798833638040   -1.19498e-05   2.72590e-06 DIIS
   @DF-RHF iter   8:  -458.98799111862149   -2.78224e-06   1.04395e-06 DIIS
   @DF-RHF iter   9:  -458.98799157107663   -4.52455e-07   2.61378e-07 DIIS
   @DF-RHF iter  10:  -458.98799159727469   -2.61981e-08   7.40533e-08 DIIS
   @DF-RHF iter  11:  -458.98799159892076   -1.64607e-09   1.75083e-08 DIIS
   @DF-RHF iter  12:  -458.98799159900773   -8.69704e-11   4.07332e-09 DIIS
  Energy and wave function converged.


  ==> Post-Iterations <==

    Orbital Energies [Eh]
    ---------------------

    Doubly Occupied:                                                      

       1A    -20.581669     2A    -20.572907     3A    -20.533653  
       4A    -11.371037     5A    -11.342776     6A    -11.250420  
       7A    -11.235757     8A    -11.225619     9A    -11.213740  
      10A     -1.441732    11A     -1.403664    12A     -1.339019  
      13A     -1.071367    14A     -1.055852    15A     -0.920409  
      16A     -0.902971    17A     -0.788120    18A     -0.778740  
      19A     -0.702852    20A     -0.686685    21A     -0.669411  
      22A     -0.646833    23A     -0.641769    24A     -0.640004  
      25A     -0.577230    26A     -0.576916    27A     -0.548085  
      28A     -0.538586    29A     -0.526619    30A     -0.521978  
      31A     -0.515638    32A     -0.501793    33A     -0.494477  
      34A     -0.464001    35A     -0.441998    36A     -0.435516  

    Virtual:                                                              

      37A      0.045274    38A      0.053208    39A      0.056309  
      40A      0.065418    41A      0.067358    42A      0.075197  
      43A      0.078416    44A      0.094963    45A      0.097345  
      46A      0.097867    47A      0.104667    48A      0.105214  
      49A      0.112715    50A      0.113244    51A      0.120879  
      52A      0.124650    53A      0.144682    54A      0.156078  
      55A      0.156929    56A      0.181029    57A      0.186345  
      58A      0.186985    59A      0.191218    60A      0.195024  
      61A      0.208581    62A      0.211741    63A      0.218922  
      64A      0.221942    65A      0.241932    66A      0.246988  
      67A      0.249705    68A      0.259562    69A      0.261040  
      70A      0.268995    71A      0.275595    72A      0.278172  
      73A      0.282509    74A      0.296733    75A      0.299616  
      76A      0.302284    77A      0.302700    78A      0.309623  
      79A      0.318850    80A      0.321973    81A      0.324818  
      82A      0.325285    83A      0.328395    84A      0.339363  
      85A      0.345979    86A      0.346583    87A      0.356525  
      88A      0.373240    89A      0.374543    90A      0.392431  
      91A      0.396809    92A      0.399673    93A      0.405886  
      94A      0.410952    95A      0.422112    96A      0.426503  
      97A      0.434891    98A      0.444651    99A      0.445252  
     100A      0.462997   101A      0.465488   102A      0.471162  
     103A      0.474402   104A      0.481257   105A      0.495341  
     106A      0.508395   107A      0.516187   108A      0.521661  
     109A      0.529317   110A      0.530037   111A      0.532920  
     112A      0.548668   113A      0.556114   114A      0.565211  
     115A      0.566772   116A      0.574112   117A      0.580450  
     118A      0.600307   119A      0.617402   120A      0.632516  
     121A      0.640075   122A      0.653504   123A      0.671444  
     124A      0.679960   125A      0.690181   126A      0.693937  
     127A      0.700627   128A      0.706378   129A      0.726986  
     130A      0.728882   131A      0.731468   132A      0.732907  
     133A      0.735558   134A      0.741779   135A      0.745621  
     136A      0.759776   137A      0.774306   138A      0.777364  
     139A      0.786863   140A      0.796403   141A      0.798459  
     142A      0.807822   143A      0.813409   144A      0.818275  
     145A      0.829619   146A      0.853212   147A      0.854852  
     148A      0.861069   149A      0.868733   150A      0.870873  
     151A      0.877413   152A      0.891423   153A      0.902123  
     154A      0.908116   155A      0.917193   156A      0.918278  
     157A      0.926848   158A      0.929042   159A      0.953182  
     160A      0.957719   161A      0.969538   162A      0.977308  
     163A      0.992788   164A      1.007267   165A      1.007405  
     166A      1.031952   167A      1.034648   168A      1.038675  
     169A      1.046729   170A      1.065495   171A      1.071258  
     172A      1.097062   173A      1.098771   174A      1.122414  
     175A      1.134575   176A      1.140786   177A      1.145858  
     178A      1.156220   179A      1.162284   180A      1.197681  
     181A      1.206893   182A      1.236490   183A      1.241560  
     184A      1.257797   185A      1.272933   186A      1.283336  
     187A      1.285180   188A      1.290350   189A      1.312147  
     190A      1.312446   191A      1.330031   192A      1.345993  
     193A      1.360564   194A      1.368067   195A      1.374219  
     196A      1.380712   197A      1.400637   198A      1.405644  
     199A      1.419533   200A      1.424945   201A      1.430183  
     202A      1.438399   203A      1.442669   204A      1.452931  
     205A      1.458004   206A      1.458566   207A      1.463565  
     208A      1.495624   209A      1.499034   210A      1.512184  
     211A      1.529596   212A      1.533511   213A      1.540005  
     214A      1.545932   215A      1.570779   216A      1.573802  
     217A      1.584644   218A      1.592495   219A      1.605640  
     220A      1.609596   221A      1.621813   222A      1.647444  
     223A      1.668403   224A      1.671207   225A      1.680676  
     226A      1.688885   227A      1.689710   228A      1.696792  
     229A      1.747159   230A      1.758657   231A      1.762158  
     232A      1.787579   233A      1.794118   234A      1.804176  
     235A      1.823407   236A      1.828277   237A      1.832452  
     238A      1.856487   239A      1.860382   240A      1.897214  
     241A      1.912500   242A      1.914157   243A      1.931903  
     244A      1.945338   245A      1.966821   246A      1.991254  
     247A      2.090248   248A      2.148173   249A      2.183393  
     250A      2.225773   251A      2.261527   252A      2.291624  
     253A      2.303235   254A      2.328991   255A      2.377348  
     256A      2.399560   257A      2.426900   258A      2.449432  
     259A      2.458575   260A      2.536176   261A      2.563430  
     262A      2.614467   263A      2.649351   264A      2.652229  
     265A      2.692370   266A      2.712099   267A      2.733164  
     268A      2.747175   269A      2.772701   270A      2.802047  
     271A      2.807444   272A      2.841857   273A      2.852792  
     274A      2.875007   275A      2.899530   276A      2.904729  
     277A      2.928085   278A      2.936564   279A      2.954350  
     280A      2.970189   281A      2.971679   282A      2.986617  
     283A      2.991205   284A      3.020345   285A      3.036009  
     286A      3.051385   287A      3.073530   288A      3.079316  
     289A      3.083512   290A      3.116114   291A      3.121251  
     292A      3.124807   293A      3.136642   294A      3.145588  
     295A      3.164039   296A      3.196589   297A      3.207830  
     298A      3.211567   299A      3.245134   300A      3.248238  
     301A      3.254875   302A      3.285921   303A      3.310541  
     304A      3.325835   305A      3.331661   306A      3.348973  
     307A      3.358281   308A      3.375724   309A      3.375743  
     310A      3.388598   311A      3.392441   312A      3.396698  
     313A      3.422307   314A      3.426380   315A      3.442440  
     316A      3.462847   317A      3.471167   318A      3.479358  
     319A      3.487826   320A      3.488121   321A      3.498591  
     322A      3.501488   323A      3.511405   324A      3.516006  
     325A      3.525457   326A      3.531672   327A      3.549123  
     328A      3.575338   329A      3.576430   330A      3.587635  
     331A      3.600405   332A      3.621140   333A      3.621732  
     334A      3.634433   335A      3.652618   336A      3.664009  
     337A      3.678628   338A      3.685390   339A      3.689393  
     340A      3.723286   341A      3.736386   342A      3.745209  
     343A      3.767926   344A      3.772122   345A      3.794014  
     346A      3.796500   347A      3.804555   348A      3.826050  
     349A      3.833459   350A      3.852489   351A      3.877032  
     352A      3.880142   353A      3.890675   354A      3.890878  
     355A      3.904652   356A      3.921266   357A      3.935013  
     358A      3.964363   359A      3.980517   360A      3.987437  
     361A      4.006595   362A      4.054526   363A      4.065958  
     364A      4.068912   365A      4.109834   366A      4.136280  
     367A      4.138687   368A      4.164078   369A      4.191302  
     370A      4.206088   371A      4.219176   372A      4.223141  
     373A      4.228629   374A      4.241322   375A      4.251322  
     376A      4.266164   377A      4.288539   378A      4.311284  
     379A      4.314665   380A      4.317809   381A      4.336802  
     382A      4.340871   383A      4.358342   384A      4.373962  
     385A      4.374720   386A      4.391606   387A      4.403249  
     388A      4.409999   389A      4.427011   390A      4.430005  
     391A      4.445842   392A      4.452523   393A      4.473439  
     394A      4.478652   395A      4.486713   396A      4.513984  
     397A      4.527397   398A      4.554559   399A      4.587033  
     400A      4.606567   401A      4.627420   402A      4.633858  
     403A      4.643939   404A      4.645805   405A      4.661935  
     406A      4.670978   407A      4.681245   408A      4.707298  
     409A      4.718773   410A      4.723532   411A      4.727197  
     412A      4.731954   413A      4.768592   414A      4.799485  
     415A      4.818659   416A      4.836923   417A      4.865970  
     418A      4.909068   419A      4.915249   420A      4.939308  
     421A      4.950872   422A      4.962673   423A      4.994149  
     424A      5.007190   425A      5.040180   426A      5.088884  
     427A      5.125117   428A      5.141604   429A      5.162875  
     430A      5.224682   431A      5.252672   432A      5.264576  
     433A      5.269790   434A      5.279199   435A      5.282500  
     436A      5.295614   437A      5.317473   438A      5.322554  
     439A      5.325805   440A      5.335678   441A      5.353610  
     442A      5.377436   443A      5.443417   444A      5.458673  
     445A      5.464922   446A      5.499494   447A      5.565138  
     448A      5.597120   449A      5.614069   450A      5.624797  
     451A      5.649687   452A      5.660722   453A      5.676949  
     454A      5.701063   455A      5.720671   456A      5.729466  
     457A      5.736117   458A      5.745034   459A      5.745992  
     460A      5.800358   461A      5.820932   462A      5.834747  
     463A      5.843973   464A      5.850095   465A      5.889903  
     466A      5.893999   467A      5.905378   468A      5.915610  
     469A      5.922139   470A      5.970495   471A      6.003559  
     472A      6.040436   473A      6.073460   474A      6.092114  
     475A      6.157891   476A      6.196648   477A      6.314494  
     478A      6.374852   479A      6.469694   480A      6.485081  
     481A      6.493054   482A      6.503562   483A      6.508036  
     484A      6.527665   485A      6.570280   486A      6.752016  
     487A      6.775241   488A      6.775850   489A      6.947937  
     490A      6.971664   491A      6.978986   492A      7.117837  
     493A      7.167343   494A      7.254095   495A      7.254528  
     496A      7.295078   497A      7.332313   498A      7.365034  
     499A      7.386446   500A      7.433175   501A      7.441490  
     502A      7.448267   503A      7.475352   504A      7.693692  
     505A      7.715140   506A      7.749472   507A      7.785978  
     508A      7.908144   509A      8.037271   510A      8.298652  
     511A     12.190565   512A     12.489637   513A     13.881620  
     514A     13.995234   515A     14.132231   516A     14.347698  
     517A     14.504637   518A     14.664391   519A     14.745671  

    Final Occupation by Irrep:
              A 
    DOCC [    36 ]

  @DF-RHF Final Energy:  -458.98799159900773

   => Energetics <=

    Nuclear Repulsion Energy =            438.5858905456361185
    One-Electron Energy =               -1496.8280885025844782
    Two-Electron Energy =                 599.2542063579405749
    Total Energy =                       -458.9879915990077279

Computation Completed


Properties will be evaluated at   0.000000,   0.000000,   0.000000 [a0]

Properties computed using the SCF density matrix

  Nuclear Dipole Moment: [e a0]
     X:    -2.1229      Y:    -2.9738      Z:     0.0000

  Electronic Dipole Moment: [e a0]
     X:     1.5857      Y:     2.4182      Z:    -0.0005

  Dipole Moment: [e a0]
     X:    -0.5373      Y:    -0.5556      Z:    -0.0005     Total:     0.7729

  Dipole Moment: [D]
     X:    -1.3656      Y:    -1.4121      Z:    -0.0012     Total:     1.9644


*** tstop() called on r282 at Fri Sep 10 13:38:18 2021
Module time:
	user time   =      66.93 seconds =       1.12 minutes
	system time =       1.54 seconds =       0.03 minutes
	total time  =         69 seconds =       1.15 minutes
Total time:
	user time   =      66.93 seconds =       1.12 minutes
	system time =       1.54 seconds =       0.03 minutes
	total time  =         69 seconds =       1.15 minutes

  //>>>>>>>>>>>>>>>>>>>>>>>>>>>>>>>>>>>//
  //            Monomer A HF           //
  //<<<<<<<<<<<<<<<<<<<<<<<<<<<<<<<<<<<//


*** tstart() called on r282
*** at Fri Sep 10 13:38:18 2021

   => Loading Basis Set <=

    Name: JUN-CC-PVTZ
    Role: ORBITAL
    Keyword: BASIS
    atoms 1-3, 13-14, 17  entry C          line   217 file /home/r08543048/miniconda3/share/psi4/basis/jun-cc-pvtz.gbs 
    atoms 4-5, 15         entry O          line   305 file /home/r08543048/miniconda3/share/psi4/basis/jun-cc-pvtz.gbs 
    atoms 6-12, 16, 18-21 entry H          line    36 file /home/r08543048/miniconda3/share/psi4/basis/jun-cc-pvtz.gbs 


         ---------------------------------------------------------
                                   SCF
               by Justin Turney, Rob Parrish, Andy Simmonett
                          and Daniel G. A. Smith
                              RHF Reference
                        1 Threads,  20980 MiB Core
         ---------------------------------------------------------

  ==> Geometry <==

    Molecular point group: c1
    Full point group: C1

    Geometry (in Angstrom), charge = 0, multiplicity = 1:

       Center              X                  Y                   Z               Mass       
    ------------   -----------------  -----------------  -----------------  -----------------
         C            4.033795111402    -0.850683353090     0.000176151446    12.000000000000
         C            3.231413111402     0.438027646910    -0.000039848554    12.000000000000
         C            1.744840111402     0.198993646910     0.000000151446    12.000000000000
         O            1.220638111402    -0.900768353090     0.000170151446    15.994914619570
         O            1.056665111402     1.347243646910    -0.000206848554    15.994914619570
         H            3.801667111402    -1.450431353090    -0.877387848554     1.007825032230
         H            5.100690111402    -0.634031353090     0.000144151446     1.007825032230
         H            3.801661111402    -1.450139353090     0.877938151446     1.007825032230
         H            3.459741111402     1.055224646910    -0.870573848554     1.007825032230
         H            3.459738111402     1.055513646910     0.870290151446     1.007825032230
         H            0.092090111402     1.128489646910    -0.000206848554     1.007825032230
      Gh(H)          -1.136936888598    -1.176264353090    -0.000865848554     1.007825032230
      Gh(C)          -3.348514888598    -0.910944353090    -0.000261848554    12.000000000000
      Gh(C)          -1.935750888598    -0.420608353090    -0.000306848554    12.000000000000
      Gh(O)          -1.637629888598     0.766736646910     0.000056151446    15.994914619570
      Gh(H)          -3.450454888598    -1.570389353090     0.867614151446     1.007825032230
      Gh(C)          -4.387945888598     0.195048646910     0.000405151446    12.000000000000
      Gh(H)          -4.276432888598     0.828290646910     0.878240151446     1.007825032230
      Gh(H)          -4.276761888598     0.829040646910    -0.876930848554     1.007825032230
      Gh(H)          -5.392029888598    -0.224009353090     0.000413151446     1.007825032230
      Gh(H)          -3.450785888598    -1.569651353090    -0.868660848554     1.007825032230

  Running in c1 symmetry.

  Rotational constants: A =      0.17284  B =      0.01638  C =      0.01512 [cm^-1]
  Rotational constants: A =   5181.59039  B =    490.96638  C =    453.42282 [MHz]
  Nuclear repulsion =  178.640668350941866

  Charge       = 0
  Multiplicity = 1
  Electrons    = 40
  Nalpha       = 20
  Nbeta        = 20

  ==> Algorithm <==

  SCF Algorithm Type is DF.
  DIIS enabled.
  MOM disabled.
  Fractional occupation disabled.
  Guess Type is SAD.
  Energy threshold   = 1.00e-08
  Density threshold  = 1.00e-08
  Integral threshold = 0.00e+00

  ==> Primary Basis <==

  Basis Set: JUN-CC-PVTZ
    Blend: JUN-CC-PVTZ
    Number of shells: 189
    Number of basis function: 519
    Number of Cartesian functions: 585
    Spherical Harmonics?: true
    Max angular momentum: 3

   => Loading Basis Set <=

    Name: (JUN-CC-PVTZ AUX)
    Role: JKFIT
    Keyword: DF_BASIS_SCF
    atoms 1-3, 13-14, 17  entry C          line   152 file /home/r08543048/miniconda3/share/psi4/basis/jun-cc-pvtz-jkfit.gbs 
    atoms 4-5, 15         entry O          line   272 file /home/r08543048/miniconda3/share/psi4/basis/jun-cc-pvtz-jkfit.gbs 
    atoms 6-12, 16, 18-21 entry H          line    70 file /home/r08543048/miniconda3/share/psi4/basis/jun-cc-pvtz-jkfit.gbs 

  ==> Pre-Iterations <==

   -------------------------------------------------------
    Irrep   Nso     Nmo     Nalpha   Nbeta   Ndocc  Nsocc
   -------------------------------------------------------
     A        519     519       0       0       0       0
   -------------------------------------------------------
    Total     519     519      20      20      20       0
   -------------------------------------------------------

  ==> Integral Setup <==

  ==> DiskDFJK: Density-Fitted J/K Matrices <==

    J tasked:                  Yes
    K tasked:                  Yes
    wK tasked:                  No
    OpenMP threads:              1
    Integrals threads:           1
    Memory [MiB]:            15735
    Algorithm:                Core
    Integral Cache:           LOAD
    Schwarz Cutoff:          1E-12
    Fitting Condition:       1E-10

   => Auxiliary Basis Set <=

  Basis Set: (JUN-CC-PVTZ AUX)
    Blend: JUN-CC-PVTZ-JKFIT
    Number of shells: 381
    Number of basis function: 1215
    Number of Cartesian functions: 1464
    Spherical Harmonics?: true
    Max angular momentum: 4

  Minimum eigenvalue in the overlap matrix is 3.1037710113E-05.
  Using Symmetric Orthogonalization.

  SCF Guess: Superposition of Atomic Densities via on-the-fly atomic UHF.

  ==> Iterations <==

                           Total Energy        Delta E     RMS |[F,P]|

   @DF-RHF iter SAD:  -266.06002035051176   -2.66060e+02   0.00000e+00 
   @DF-RHF iter   1:  -266.75005881964756   -6.90038e-01   1.25287e-03 DIIS
   @DF-RHF iter   2:  -266.89779171128941   -1.47733e-01   7.40029e-04 DIIS
   @DF-RHF iter   3:  -266.94791671234941   -5.01250e-02   1.31620e-04 DIIS
   @DF-RHF iter   4:  -266.95072467642609   -2.80796e-03   6.24640e-05 DIIS
   @DF-RHF iter   5:  -266.95134842487505   -6.23748e-04   1.24041e-05 DIIS
   @DF-RHF iter   6:  -266.95139305547656   -4.46306e-05   6.04216e-06 DIIS
   @DF-RHF iter   7:  -266.95140204375087   -8.98827e-06   2.19040e-06 DIIS
   @DF-RHF iter   8:  -266.95140392783645   -1.88409e-06   7.82149e-07 DIIS
   @DF-RHF iter   9:  -266.95140418825991   -2.60423e-07   1.82961e-07 DIIS
   @DF-RHF iter  10:  -266.95140420124375   -1.29838e-08   5.56388e-08 DIIS
   @DF-RHF iter  11:  -266.95140420202335   -7.79607e-10   1.40837e-08 DIIS
   @DF-RHF iter  12:  -266.95140420208025   -5.69003e-11   3.23633e-09 DIIS
  Energy and wave function converged.


  ==> Post-Iterations <==

    Orbital Energies [Eh]
    ---------------------

    Doubly Occupied:                                                      

       1A    -20.619371     2A    -20.547300     3A    -11.386017  
       4A    -11.247726     5A    -11.221217     6A     -1.465452  
       7A     -1.356910     8A     -1.066873     9A     -0.915983  
      10A     -0.798583    11A     -0.703692    12A     -0.689633  
      13A     -0.662537    14A     -0.594977    15A     -0.594092  
      16A     -0.534511    17A     -0.525165    18A     -0.504882  
      19A     -0.480551    20A     -0.451528  

    Virtual:                                                              

      21A      0.031540    22A      0.047823    23A      0.054518  
      24A      0.058227    25A      0.063308    26A      0.063331  
      27A      0.075151    28A      0.089242    29A      0.096445  
      30A      0.101533    31A      0.103015    32A      0.103822  
      33A      0.110660    34A      0.113740    35A      0.118701  
      36A      0.129172    37A      0.141763    38A      0.142159  
      39A      0.155921    40A      0.161926    41A      0.171629  
      42A      0.177434    43A      0.179287    44A      0.186432  
      45A      0.187816    46A      0.202627    47A      0.211468  
      48A      0.213269    49A      0.219658    50A      0.235077  
      51A      0.236575    52A      0.250051    53A      0.255483  
      54A      0.259467    55A      0.268091    56A      0.281259  
      57A      0.286600    58A      0.294778    59A      0.296264  
      60A      0.303450    61A      0.304082    62A      0.312972  
      63A      0.319534    64A      0.322054    65A      0.335299  
      66A      0.335764    67A      0.343766    68A      0.348650  
      69A      0.356638    70A      0.362259    71A      0.368796  
      72A      0.377061    73A      0.378704    74A      0.382543  
      75A      0.393602    76A      0.399404    77A      0.404582  
      78A      0.412794    79A      0.418469    80A      0.430619  
      81A      0.434330    82A      0.442500    83A      0.443420  
      84A      0.453522    85A      0.458271    86A      0.468594  
      87A      0.488560    88A      0.496313    89A      0.500295  
      90A      0.503376    91A      0.509782    92A      0.517843  
      93A      0.535869    94A      0.537937    95A      0.540912  
      96A      0.544826    97A      0.555536    98A      0.561545  
      99A      0.571411   100A      0.573199   101A      0.577906  
     102A      0.598469   103A      0.603235   104A      0.620224  
     105A      0.625469   106A      0.634968   107A      0.654359  
     108A      0.668574   109A      0.672193   110A      0.672747  
     111A      0.688179   112A      0.700348   113A      0.706319  
     114A      0.714539   115A      0.723939   116A      0.728913  
     117A      0.737392   118A      0.738791   119A      0.751401  
     120A      0.758878   121A      0.776544   122A      0.784069  
     123A      0.784770   124A      0.798353   125A      0.808152  
     126A      0.815634   127A      0.823006   128A      0.842387  
     129A      0.855225   130A      0.864934   131A      0.883035  
     132A      0.886171   133A      0.896530   134A      0.901754  
     135A      0.917034   136A      0.920753   137A      0.941414  
     138A      0.960830   139A      0.973072   140A      0.975445  
     141A      0.993634   142A      1.003734   143A      1.008797  
     144A      1.023535   145A      1.031823   146A      1.051078  
     147A      1.054116   148A      1.075280   149A      1.075927  
     150A      1.085211   151A      1.094642   152A      1.105843  
     153A      1.123889   154A      1.130296   155A      1.137939  
     156A      1.140130   157A      1.142532   158A      1.178875  
     159A      1.198522   160A      1.210835   161A      1.217614  
     162A      1.234364   163A      1.238519   164A      1.246731  
     165A      1.263304   166A      1.263847   167A      1.269902  
     168A      1.279785   169A      1.282977   170A      1.288125  
     171A      1.304124   172A      1.305939   173A      1.313761  
     174A      1.327494   175A      1.328173   176A      1.354407  
     177A      1.362273   178A      1.369073   179A      1.381506  
     180A      1.390737   181A      1.410451   182A      1.415313  
     183A      1.427045   184A      1.436199   185A      1.440631  
     186A      1.453147   187A      1.464801   188A      1.473141  
     189A      1.485579   190A      1.488280   191A      1.490964  
     192A      1.512544   193A      1.522359   194A      1.535611  
     195A      1.548371   196A      1.573366   197A      1.575236  
     198A      1.576638   199A      1.584256   200A      1.585266  
     201A      1.602530   202A      1.605668   203A      1.613404  
     204A      1.636366   205A      1.645504   206A      1.672345  
     207A      1.678837   208A      1.681145   209A      1.709181  
     210A      1.721265   211A      1.741584   212A      1.758495  
     213A      1.775778   214A      1.784361   215A      1.785845  
     216A      1.817099   217A      1.820030   218A      1.842482  
     219A      1.859107   220A      1.894238   221A      1.905781  
     222A      1.913100   223A      1.920361   224A      1.927238  
     225A      1.964580   226A      1.980474   227A      2.017823  
     228A      2.081071   229A      2.083909   230A      2.107672  
     231A      2.129561   232A      2.152862   233A      2.162347  
     234A      2.223902   235A      2.240978   236A      2.261240  
     237A      2.281371   238A      2.303134   239A      2.318229  
     240A      2.378932   241A      2.403029   242A      2.407830  
     243A      2.430446   244A      2.441117   245A      2.453387  
     246A      2.491831   247A      2.526670   248A      2.536446  
     249A      2.543547   250A      2.595902   251A      2.638378  
     252A      2.638510   253A      2.695882   254A      2.728916  
     255A      2.747541   256A      2.791868   257A      2.799914  
     258A      2.823230   259A      2.851993   260A      2.874393  
     261A      2.889072   262A      2.920008   263A      2.934923  
     264A      2.965954   265A      2.970530   266A      2.973385  
     267A      3.024546   268A      3.035736   269A      3.060505  
     270A      3.089535   271A      3.113724   272A      3.124095  
     273A      3.129466   274A      3.179043   275A      3.214758  
     276A      3.239579   277A      3.248073   278A      3.300810  
     279A      3.303269   280A      3.325232   281A      3.339169  
     282A      3.366413   283A      3.380899   284A      3.410251  
     285A      3.453923   286A      3.471096   287A      3.478433  
     288A      3.488023   289A      3.488806   290A      3.505558  
     291A      3.513191   292A      3.517233   293A      3.533801  
     294A      3.547513   295A      3.560914   296A      3.571958  
     297A      3.595837   298A      3.603338   299A      3.611515  
     300A      3.621340   301A      3.638156   302A      3.645857  
     303A      3.666200   304A      3.676371   305A      3.685210  
     306A      3.719199   307A      3.724109   308A      3.728251  
     309A      3.777899   310A      3.781257   311A      3.786400  
     312A      3.790415   313A      3.792718   314A      3.803630  
     315A      3.830010   316A      3.849949   317A      3.857742  
     318A      3.872747   319A      3.878099   320A      3.885649  
     321A      3.897869   322A      3.899512   323A      3.909309  
     324A      3.938004   325A      3.962077   326A      3.981714  
     327A      3.996147   328A      4.017610   329A      4.027060  
     330A      4.043422   331A      4.063378   332A      4.063763  
     333A      4.105844   334A      4.118014   335A      4.149665  
     336A      4.164330   337A      4.210211   338A      4.211432  
     339A      4.213201   340A      4.224168   341A      4.235091  
     342A      4.253313   343A      4.259480   344A      4.294582  
     345A      4.310725   346A      4.338139   347A      4.352519  
     348A      4.355783   349A      4.372708   350A      4.392753  
     351A      4.408748   352A      4.417442   353A      4.434100  
     354A      4.436119   355A      4.440863   356A      4.455976  
     357A      4.476793   358A      4.486944   359A      4.492550  
     360A      4.494221   361A      4.535498   362A      4.540973  
     363A      4.555309   364A      4.558629   365A      4.586878  
     366A      4.597324   367A      4.619791   368A      4.631882  
     369A      4.633546   370A      4.655471   371A      4.664198  
     372A      4.668422   373A      4.688979   374A      4.700124  
     375A      4.708474   376A      4.715179   377A      4.718930  
     378A      4.728108   379A      4.758471   380A      4.760575  
     381A      4.775120   382A      4.778258   383A      4.803119  
     384A      4.816785   385A      4.823398   386A      4.826246  
     387A      4.833757   388A      4.849911   389A      4.856340  
     390A      4.869213   391A      4.910380   392A      4.928302  
     393A      4.932611   394A      4.934815   395A      4.951582  
     396A      4.968933   397A      4.981417   398A      4.983222  
     399A      5.001886   400A      5.012672   401A      5.015413  
     402A      5.038651   403A      5.060703   404A      5.092501  
     405A      5.129179   406A      5.132021   407A      5.161310  
     408A      5.193489   409A      5.222026   410A      5.255450  
     411A      5.263051   412A      5.271855   413A      5.282289  
     414A      5.308781   415A      5.313405   416A      5.340937  
     417A      5.349107   418A      5.405317   419A      5.454682  
     420A      5.454826   421A      5.486541   422A      5.554118  
     423A      5.581515   424A      5.615239   425A      5.631721  
     426A      5.644051   427A      5.649531   428A      5.667363  
     429A      5.693270   430A      5.733614   431A      5.738013  
     432A      5.739542   433A      5.789159   434A      5.807836  
     435A      5.824013   436A      5.876097   437A      5.876632  
     438A      5.887446   439A      5.889822   440A      5.903568  
     441A      5.973438   442A      6.028308   443A      6.052194  
     444A      6.053348   445A      6.088791   446A      6.092126  
     447A      6.139120   448A      6.164696   449A      6.211105  
     450A      6.289826   451A      6.307892   452A      6.369159  
     453A      6.383825   454A      6.431588   455A      6.455140  
     456A      6.471221   457A      6.477368   458A      6.487439  
     459A      6.500382   460A      6.555285   461A      6.572059  
     462A      6.580668   463A      6.707581   464A      6.755558  
     465A      6.764823   466A      6.875888   467A      6.940437  
     468A      6.950493   469A      6.964336   470A      6.979901  
     471A      7.004536   472A      7.099100   473A      7.180682  
     474A      7.269791   475A      7.309261   476A      7.334004  
     477A      7.386097   478A      7.394161   479A      7.403140  
     480A      7.430149   481A      7.447372   482A      7.528484  
     483A      7.584602   484A      7.680737   485A      7.695471  
     486A      7.717279   487A      7.770657   488A      7.777585  
     489A      7.848920   490A      7.873562   491A      7.899699  
     492A      7.998326   493A      7.999235   494A      8.126914  
     495A      8.169353   496A      8.278987   497A      8.459956  
     498A      8.584666   499A      9.389212   500A      9.442096  
     501A      9.647833   502A      9.784541   503A      9.871827  
     504A      9.929422   505A      9.964045   506A     10.259153  
     507A     10.979033   508A     11.560399   509A     11.964005  
     510A     12.182386   511A     13.666375   512A     13.920947  
     513A     14.124426   514A     14.492468   515A     14.732337  
     516A     43.788307   517A     44.841872   518A     45.776368  
     519A     60.668918  

    Final Occupation by Irrep:
              A 
    DOCC [    20 ]

  @DF-RHF Final Energy:  -266.95140420208025

   => Energetics <=

    Nuclear Repulsion Energy =            178.6406683509418656
    One-Electron Energy =                -718.4501476977508219
    Two-Electron Energy =                 272.8580751447287298
    Total Energy =                       -266.9514042020802549

Computation Completed


Properties will be evaluated at   0.000000,   0.000000,   0.000000 [a0]

Properties computed using the SCF density matrix

  Nuclear Dipole Moment: [e a0]
     X:   173.8440      Y:     3.7690      Z:     0.0014

  Electronic Dipole Moment: [e a0]
     X:  -173.5107      Y:    -3.0711      Z:    -0.0015

  Dipole Moment: [e a0]
     X:     0.3334      Y:     0.6979      Z:    -0.0001     Total:     0.7734

  Dipole Moment: [D]
     X:     0.8474      Y:     1.7738      Z:    -0.0003     Total:     1.9658


*** tstop() called on r282 at Fri Sep 10 13:39:04 2021
Module time:
	user time   =      45.22 seconds =       0.75 minutes
	system time =       0.75 seconds =       0.01 minutes
	total time  =         46 seconds =       0.77 minutes
Total time:
	user time   =     112.15 seconds =       1.87 minutes
	system time =       2.29 seconds =       0.04 minutes
	total time  =        115 seconds =       1.92 minutes

  //>>>>>>>>>>>>>>>>>>>>>>>>>>>>>>>>>>>//
  //            Monomer B HF           //
  //<<<<<<<<<<<<<<<<<<<<<<<<<<<<<<<<<<<//


*** tstart() called on r282
*** at Fri Sep 10 13:39:04 2021

   => Loading Basis Set <=

    Name: JUN-CC-PVTZ
    Role: ORBITAL
    Keyword: BASIS
    atoms 1-3, 13-14, 17  entry C          line   217 file /home/r08543048/miniconda3/share/psi4/basis/jun-cc-pvtz.gbs 
    atoms 4-5, 15         entry O          line   305 file /home/r08543048/miniconda3/share/psi4/basis/jun-cc-pvtz.gbs 
    atoms 6-12, 16, 18-21 entry H          line    36 file /home/r08543048/miniconda3/share/psi4/basis/jun-cc-pvtz.gbs 


         ---------------------------------------------------------
                                   SCF
               by Justin Turney, Rob Parrish, Andy Simmonett
                          and Daniel G. A. Smith
                              RHF Reference
                        1 Threads,  20980 MiB Core
         ---------------------------------------------------------

  ==> Geometry <==

    Molecular point group: c1
    Full point group: C1

    Geometry (in Angstrom), charge = 0, multiplicity = 1:

       Center              X                  Y                   Z               Mass       
    ------------   -----------------  -----------------  -----------------  -----------------
      Gh(C)           4.033795111402    -0.850683353090     0.000176151446    12.000000000000
      Gh(C)           3.231413111402     0.438027646910    -0.000039848554    12.000000000000
      Gh(C)           1.744840111402     0.198993646910     0.000000151446    12.000000000000
      Gh(O)           1.220638111402    -0.900768353090     0.000170151446    15.994914619570
      Gh(O)           1.056665111402     1.347243646910    -0.000206848554    15.994914619570
      Gh(H)           3.801667111402    -1.450431353090    -0.877387848554     1.007825032230
      Gh(H)           5.100690111402    -0.634031353090     0.000144151446     1.007825032230
      Gh(H)           3.801661111402    -1.450139353090     0.877938151446     1.007825032230
      Gh(H)           3.459741111402     1.055224646910    -0.870573848554     1.007825032230
      Gh(H)           3.459738111402     1.055513646910     0.870290151446     1.007825032230
      Gh(H)           0.092090111402     1.128489646910    -0.000206848554     1.007825032230
         H           -1.136936888598    -1.176264353090    -0.000865848554     1.007825032230
         C           -3.348514888598    -0.910944353090    -0.000261848554    12.000000000000
         C           -1.935750888598    -0.420608353090    -0.000306848554    12.000000000000
         O           -1.637629888598     0.766736646910     0.000056151446    15.994914619570
         H           -3.450454888598    -1.570389353090     0.867614151446     1.007825032230
         C           -4.387945888598     0.195048646910     0.000405151446    12.000000000000
         H           -4.276432888598     0.828290646910     0.878240151446     1.007825032230
         H           -4.276761888598     0.829040646910    -0.876930848554     1.007825032230
         H           -5.392029888598    -0.224009353090     0.000413151446     1.007825032230
         H           -3.450785888598    -1.569651353090    -0.868660848554     1.007825032230

  Running in c1 symmetry.

  Rotational constants: A =      0.17284  B =      0.01638  C =      0.01512 [cm^-1]
  Rotational constants: A =   5181.59039  B =    490.96638  C =    453.42282 [MHz]
  Nuclear repulsion =  118.738657555309786

  Charge       = 0
  Multiplicity = 1
  Electrons    = 32
  Nalpha       = 16
  Nbeta        = 16

  ==> Algorithm <==

  SCF Algorithm Type is DF.
  DIIS enabled.
  MOM disabled.
  Fractional occupation disabled.
  Guess Type is SAD.
  Energy threshold   = 1.00e-08
  Density threshold  = 1.00e-08
  Integral threshold = 0.00e+00

  ==> Primary Basis <==

  Basis Set: JUN-CC-PVTZ
    Blend: JUN-CC-PVTZ
    Number of shells: 189
    Number of basis function: 519
    Number of Cartesian functions: 585
    Spherical Harmonics?: true
    Max angular momentum: 3

   => Loading Basis Set <=

    Name: (JUN-CC-PVTZ AUX)
    Role: JKFIT
    Keyword: DF_BASIS_SCF
    atoms 1-3, 13-14, 17  entry C          line   152 file /home/r08543048/miniconda3/share/psi4/basis/jun-cc-pvtz-jkfit.gbs 
    atoms 4-5, 15         entry O          line   272 file /home/r08543048/miniconda3/share/psi4/basis/jun-cc-pvtz-jkfit.gbs 
    atoms 6-12, 16, 18-21 entry H          line    70 file /home/r08543048/miniconda3/share/psi4/basis/jun-cc-pvtz-jkfit.gbs 

  ==> Pre-Iterations <==

   -------------------------------------------------------
    Irrep   Nso     Nmo     Nalpha   Nbeta   Ndocc  Nsocc
   -------------------------------------------------------
     A        519     519       0       0       0       0
   -------------------------------------------------------
    Total     519     519      16      16      16       0
   -------------------------------------------------------

  ==> Integral Setup <==

  ==> DiskDFJK: Density-Fitted J/K Matrices <==

    J tasked:                  Yes
    K tasked:                  Yes
    wK tasked:                  No
    OpenMP threads:              1
    Integrals threads:           1
    Memory [MiB]:            15735
    Algorithm:                Core
    Integral Cache:           LOAD
    Schwarz Cutoff:          1E-12
    Fitting Condition:       1E-10

   => Auxiliary Basis Set <=

  Basis Set: (JUN-CC-PVTZ AUX)
    Blend: JUN-CC-PVTZ-JKFIT
    Number of shells: 381
    Number of basis function: 1215
    Number of Cartesian functions: 1464
    Spherical Harmonics?: true
    Max angular momentum: 4

  Minimum eigenvalue in the overlap matrix is 3.1037710113E-05.
  Using Symmetric Orthogonalization.

  SCF Guess: Superposition of Atomic Densities via on-the-fly atomic UHF.

  ==> Iterations <==

                           Total Energy        Delta E     RMS |[F,P]|

   @DF-RHF iter SAD:  -191.17295915932002   -1.91173e+02   0.00000e+00 
   @DF-RHF iter   1:  -191.85728575725835   -6.84327e-01   1.07451e-03 DIIS
   @DF-RHF iter   2:  -191.97240683941050   -1.15121e-01   6.96777e-04 DIIS
   @DF-RHF iter   3:  -192.01996454010225   -4.75577e-02   1.28458e-04 DIIS
   @DF-RHF iter   4:  -192.02280346523966   -2.83893e-03   5.45210e-05 DIIS
   @DF-RHF iter   5:  -192.02336374292130   -5.60278e-04   9.88278e-06 DIIS
   @DF-RHF iter   6:  -192.02340278345218   -3.90405e-05   3.79880e-06 DIIS
   @DF-RHF iter   7:  -192.02340823085930   -5.44741e-06   1.65549e-06 DIIS
   @DF-RHF iter   8:  -192.02340916889463   -9.38035e-07   5.24169e-07 DIIS
   @DF-RHF iter   9:  -192.02340928405846   -1.15164e-07   1.04742e-07 DIIS
   @DF-RHF iter  10:  -192.02340928843219   -4.37373e-09   2.17072e-08 DIIS
   @DF-RHF iter  11:  -192.02340928857586   -1.43672e-10   4.42855e-09 DIIS
  Energy and wave function converged.


  ==> Post-Iterations <==

    Orbital Energies [Eh]
    ---------------------

    Doubly Occupied:                                                      

       1A    -20.556526     2A    -11.332765     3A    -11.245462  
       4A    -11.221201     5A     -1.382990     6A     -1.064770  
       7A     -0.914119     8A     -0.775937     9A     -0.681627  
      10A     -0.635897    11A     -0.624575    12A     -0.541860  
      13A     -0.525853    14A     -0.520849    15A     -0.488589  
      16A     -0.424953  

    Virtual:                                                              

      17A      0.034134    18A      0.044555    19A      0.053310  
      20A      0.058864    21A      0.062946    22A      0.064600  
      23A      0.074895    24A      0.090197    25A      0.092532  
      26A      0.096517    27A      0.102611    28A      0.103121  
      29A      0.110825    30A      0.112099    31A      0.115099  
      32A      0.130158    33A      0.135019    34A      0.145411  
      35A      0.158097    36A      0.160620    37A      0.163164  
      38A      0.173619    39A      0.183764    40A      0.188400  
      41A      0.197559    42A      0.199228    43A      0.211823  
      44A      0.214698    45A      0.217143    46A      0.224337  
      47A      0.244876    48A      0.251696    49A      0.252070  
      50A      0.256615    51A      0.257080    52A      0.272523  
      53A      0.274718    54A      0.291868    55A      0.292523  
      56A      0.298043    57A      0.307333    58A      0.309408  
      59A      0.317793    60A      0.318724    61A      0.325467  
      62A      0.328384    63A      0.338630    64A      0.351595  
      65A      0.361623    66A      0.366751    67A      0.373949  
      68A      0.374232    69A      0.385022    70A      0.390836  
      71A      0.396809    72A      0.412578    73A      0.413356  
      74A      0.422918    75A      0.423545    76A      0.430555  
      77A      0.437906    78A      0.448051    79A      0.456864  
      80A      0.463554    81A      0.465215    82A      0.467804  
      83A      0.480837    84A      0.489752    85A      0.490154  
      86A      0.505344    87A      0.512419    88A      0.517048  
      89A      0.522643    90A      0.526972    91A      0.528256  
      92A      0.550204    93A      0.556271    94A      0.557546  
      95A      0.562234    96A      0.570487    97A      0.571929  
      98A      0.601378    99A      0.604467   100A      0.618731  
     101A      0.644854   102A      0.650225   103A      0.658690  
     104A      0.665776   105A      0.675285   106A      0.693871  
     107A      0.695543   108A      0.703494   109A      0.715250  
     110A      0.729427   111A      0.740665   112A      0.743429  
     113A      0.751252   114A      0.754057   115A      0.773329  
     116A      0.776302   117A      0.784274   118A      0.789105  
     119A      0.795036   120A      0.796384   121A      0.810750  
     122A      0.830644   123A      0.866889   124A      0.873067  
     125A      0.880716   126A      0.888507   127A      0.894457  
     128A      0.901924   129A      0.902098   130A      0.909740  
     131A      0.912857   132A      0.933313   133A      0.945690  
     134A      0.955657   135A      0.965083   136A      0.975985  
     137A      0.995735   138A      1.001977   139A      1.016954  
     140A      1.034782   141A      1.038584   142A      1.050784  
     143A      1.058374   144A      1.063891   145A      1.073882  
     146A      1.080537   147A      1.082685   148A      1.083800  
     149A      1.093934   150A      1.109881   151A      1.114831  
     152A      1.138385   153A      1.159272   154A      1.160195  
     155A      1.178701   156A      1.184133   157A      1.208807  
     158A      1.215767   159A      1.224974   160A      1.239406  
     161A      1.247885   162A      1.258100   163A      1.260065  
     164A      1.267716   165A      1.268724   166A      1.278207  
     167A      1.288994   168A      1.305651   169A      1.326003  
     170A      1.328780   171A      1.332391   172A      1.341287  
     173A      1.359100   174A      1.361149   175A      1.379545  
     176A      1.396099   177A      1.408394   178A      1.415402  
     179A      1.416399   180A      1.433112   181A      1.441440  
     182A      1.467857   183A      1.471410   184A      1.489184  
     185A      1.492607   186A      1.509983   187A      1.522968  
     188A      1.534695   189A      1.550714   190A      1.561581  
     191A      1.572327   192A      1.572590   193A      1.587632  
     194A      1.595944   195A      1.608431   196A      1.611526  
     197A      1.623582   198A      1.625712   199A      1.661565  
     200A      1.671215   201A      1.684345   202A      1.695271  
     203A      1.714897   204A      1.715715   205A      1.719265  
     206A      1.770701   207A      1.773400   208A      1.787747  
     209A      1.792334   210A      1.801789   211A      1.806230  
     212A      1.823163   213A      1.846866   214A      1.872994  
     215A      1.899455   216A      1.907523   217A      1.929120  
     218A      1.939703   219A      1.941415   220A      1.960362  
     221A      1.964235   222A      1.984390   223A      2.013600  
     224A      2.066705   225A      2.088374   226A      2.114210  
     227A      2.156419   228A      2.161321   229A      2.176127  
     230A      2.208355   231A      2.253802   232A      2.316659  
     233A      2.335689   234A      2.351458   235A      2.367808  
     236A      2.388576   237A      2.413471   238A      2.455771  
     239A      2.539367   240A      2.540338   241A      2.563350  
     242A      2.591594   243A      2.621984   244A      2.635168  
     245A      2.642176   246A      2.664207   247A      2.729357  
     248A      2.744397   249A      2.766777   250A      2.790181  
     251A      2.798792   252A      2.799640   253A      2.850010  
     254A      2.851750   255A      2.890695   256A      2.905557  
     257A      2.915272   258A      2.944603   259A      2.954313  
     260A      2.976844   261A      2.979431   262A      3.000855  
     263A      3.032199   264A      3.058124   265A      3.069081  
     266A      3.073728   267A      3.078386   268A      3.090126  
     269A      3.098242   270A      3.128670   271A      3.144173  
     272A      3.177259   273A      3.213438   274A      3.219998  
     275A      3.253695   276A      3.292636   277A      3.308582  
     278A      3.361775   279A      3.369334   280A      3.392639  
     281A      3.400429   282A      3.412862   283A      3.437673  
     284A      3.442100   285A      3.468453   286A      3.471518  
     287A      3.498107   288A      3.507495   289A      3.517198  
     290A      3.537819   291A      3.544387   292A      3.559867  
     293A      3.584217   294A      3.592935   295A      3.594660  
     296A      3.605682   297A      3.621118   298A      3.623693  
     299A      3.636131   300A      3.660754   301A      3.669315  
     302A      3.684989   303A      3.699377   304A      3.724446  
     305A      3.730890   306A      3.735228   307A      3.772439  
     308A      3.777349   309A      3.784752   310A      3.804379  
     311A      3.830923   312A      3.839665   313A      3.841895  
     314A      3.856321   315A      3.862684   316A      3.882551  
     317A      3.884808   318A      3.905117   319A      3.908345  
     320A      3.915420   321A      3.951206   322A      3.970045  
     323A      3.984707   324A      3.997116   325A      4.021398  
     326A      4.031540   327A      4.060654   328A      4.098936  
     329A      4.123004   330A      4.140625   331A      4.146564  
     332A      4.157657   333A      4.166363   334A      4.186043  
     335A      4.199985   336A      4.212551   337A      4.232361  
     338A      4.242988   339A      4.284192   340A      4.288361  
     341A      4.302562   342A      4.317561   343A      4.321065  
     344A      4.337615   345A      4.350366   346A      4.388001  
     347A      4.392462   348A      4.400503   349A      4.407935  
     350A      4.417645   351A      4.426838   352A      4.439698  
     353A      4.466878   354A      4.483968   355A      4.489288  
     356A      4.490959   357A      4.510255   358A      4.522194  
     359A      4.541736   360A      4.590356   361A      4.604408  
     362A      4.637473   363A      4.646535   364A      4.655834  
     365A      4.657907   366A      4.663744   367A      4.677215  
     368A      4.692449   369A      4.694182   370A      4.716976  
     371A      4.740530   372A      4.745951   373A      4.748298  
     374A      4.770928   375A      4.776824   376A      4.804456  
     377A      4.814011   378A      4.816959   379A      4.822969  
     380A      4.834158   381A      4.864077   382A      4.870363  
     383A      4.904944   384A      4.906835   385A      4.915687  
     386A      4.921795   387A      4.945271   388A      4.956500  
     389A      4.963448   390A      4.973397   391A      4.983702  
     392A      4.987316   393A      5.005755   394A      5.018839  
     395A      5.024321   396A      5.045979   397A      5.064786  
     398A      5.071230   399A      5.080613   400A      5.103097  
     401A      5.112981   402A      5.155321   403A      5.182686  
     404A      5.185221   405A      5.254330   406A      5.269667  
     407A      5.275878   408A      5.281647   409A      5.291946  
     410A      5.309788   411A      5.322200   412A      5.331134  
     413A      5.375486   414A      5.409901   415A      5.449101  
     416A      5.458378   417A      5.499041   418A      5.547621  
     419A      5.562223   420A      5.572435   421A      5.614622  
     422A      5.631117   423A      5.678885   424A      5.692922  
     425A      5.733532   426A      5.734060   427A      5.748944  
     428A      5.752419   429A      5.756520   430A      5.782088  
     431A      5.808318   432A      5.829821   433A      5.850071  
     434A      5.899963   435A      5.903149   436A      5.942943  
     437A      5.973081   438A      6.005283   439A      6.092661  
     440A      6.115967   441A      6.171343   442A      6.177900  
     443A      6.201184   444A      6.213573   445A      6.309734  
     446A      6.368081   447A      6.402488   448A      6.440275  
     449A      6.444510   450A      6.463615   451A      6.475047  
     452A      6.492374   453A      6.526398   454A      6.533337  
     455A      6.563396   456A      6.590742   457A      6.650979  
     458A      6.768247   459A      6.827518   460A      6.829814  
     461A      6.901576   462A      6.972372   463A      7.044837  
     464A      7.157010   465A      7.204091   466A      7.228148  
     467A      7.263761   468A      7.281845   469A      7.417331  
     470A      7.422678   471A      7.473319   472A      7.528534  
     473A      7.544592   474A      7.606358   475A      7.692865  
     476A      7.695409   477A      7.761199   478A      7.802830  
     479A      7.802969   480A      7.858826   481A      7.866783  
     482A      7.956272   483A      7.990634   484A      8.062860  
     485A      8.188624   486A      8.256419   487A      8.527431  
     488A      8.675487   489A      8.893778   490A      9.168708  
     491A      9.446358   492A      9.685822   493A      9.745781  
     494A      9.792745   495A      9.871266   496A      9.909785  
     497A      9.923981   498A      9.965941   499A      9.992170  
     500A     10.131459   501A     10.401732   502A     10.513499  
     503A     11.082026   504A     11.416827   505A     11.582110  
     506A     11.636062   507A     12.034792   508A     12.510865  
     509A     13.148435   510A     13.787753   511A     13.994014  
     512A     14.026258   513A     14.318774   514A     14.669892  
     515A     43.014088   516A     45.076561   517A     45.807946  
     518A     61.150695   519A     62.014647  

    Final Occupation by Irrep:
              A 
    DOCC [    16 ]

  @DF-RHF Final Energy:  -192.02340928857586

   => Energetics <=

    Nuclear Repulsion Energy =            118.7386575553097856
    One-Electron Energy =                -495.6481883398499235
    Two-Electron Energy =                 184.8861214959642894
    Total Energy =                       -192.0234092885758628

Computation Completed


Properties will be evaluated at   0.000000,   0.000000,   0.000000 [a0]

Properties computed using the SCF density matrix

  Nuclear Dipole Moment: [e a0]
     X:  -175.9670      Y:    -6.7428      Z:    -0.0014

  Electronic Dipole Moment: [e a0]
     X:   175.4414      Y:     5.5985      Z:     0.0010

  Dipole Moment: [e a0]
     X:    -0.5256      Y:    -1.1443      Z:    -0.0003     Total:     1.2592

  Dipole Moment: [D]
     X:    -1.3359      Y:    -2.9085      Z:    -0.0009     Total:     3.2006


*** tstop() called on r282 at Fri Sep 10 13:39:42 2021
Module time:
	user time   =      38.12 seconds =       0.64 minutes
	system time =       0.71 seconds =       0.01 minutes
	total time  =         38 seconds =       0.63 minutes
Total time:
	user time   =     150.28 seconds =       2.50 minutes
	system time =       3.00 seconds =       0.05 minutes
	total time  =        153 seconds =       2.55 minutes
  Constructing Basis Sets for SAPT...

   => Loading Basis Set <=

    Name: (JUN-CC-PVTZ AUX)
    Role: RIFIT
    Keyword: DF_BASIS_SAPT
    atoms 1-3, 13-14, 17  entry C          line   132 file /home/r08543048/miniconda3/share/psi4/basis/jun-cc-pvtz-ri.gbs 
    atoms 4-5, 15         entry O          line   244 file /home/r08543048/miniconda3/share/psi4/basis/jun-cc-pvtz-ri.gbs 
    atoms 6-12, 16, 18-21 entry H          line    30 file /home/r08543048/miniconda3/share/psi4/basis/jun-cc-pvtz-ri.gbs 


  //>>>>>>>>>>>>>>>>>>>>>>>>>>>>>>>>>>>//
  //               SAPT0               //
  //<<<<<<<<<<<<<<<<<<<<<<<<<<<<<<<<<<<//


*** tstart() called on r282
*** at Fri Sep 10 13:39:43 2021

        SAPT0  
    Ed Hohenstein
     6 June 2009

      Orbital Information
  --------------------------
    NSO        =       519
    NMO        =       519
    NRI        =      1233
    NOCC A     =        20
    NOCC B     =        16
    FOCC A     =         0
    FOCC B     =         0
    NVIR A     =       499
    NVIR B     =       503

    Elst10,r            =    -0.027204102433 [Eh]
    Exch10              =     0.024964629762 [Eh]
    Exch10 (S^2)        =     0.024729096708 [Eh]

    Iter     Energy [mEh]          dE [mEh]         Residual      Time [s]
       1      -3.87997502       3.879975023      10.039416108             1
       2      -4.49056583       0.610590809       4.996160087             2
       3      -4.63936800       0.148802173       1.405296759             4
       4      -4.61399739      -0.025370620       0.575080390             5
       5      -4.60739033      -0.006607059       0.175632277             6
       6      -4.60996597       0.002575646       0.079979746             7
       7      -4.61088713       0.000921163       0.021339014             8
       8      -4.61062273      -0.000264403       0.007180837             9
       9      -4.61053813      -0.000084601       0.001721049            10
      10      -4.61056307       0.000024939       0.000430504            12
      11      -4.61056262      -0.000000446       0.000093283            13
      12      -4.61056182      -0.000000802       0.000028142            14
      13      -4.61056177      -0.000000056       0.000006925            15
      14      -4.61056184       0.000000070       0.000001422            16
      15      -4.61056183      -0.000000007       0.000000350            17

    CHF Iterations converged


    Iter     Energy [mEh]          dE [mEh]         Residual      Time [s]
       1      -7.04804429       7.048044290      21.162994076             1
       2      -8.22073875       1.172694456      11.846645436             3
       3      -9.16789693       0.947158183       2.719926168             4
       4      -9.09797975      -0.069917184       1.100043814             5
       5      -9.08552214      -0.012457605       0.350683921             6
       6      -9.09361849       0.008096351       0.120776134             7
       7      -9.09435053       0.000732043       0.023375087             8
       8      -9.09384371      -0.000506821       0.005281755             9
       9      -9.09385924       0.000015530       0.001581069            10
      10      -9.09388769       0.000028443       0.000335097            11
      11      -9.09388486      -0.000002829       0.000075426            12
      12      -9.09388429      -0.000000564       0.000022178            13
      13      -9.09388440       0.000000107       0.000005970            14
      14      -9.09388445       0.000000049       0.000001739            16
      15      -9.09388443      -0.000000016       0.000000905            17

    CHF Iterations converged

    Ind20,r (A<-B)      =    -0.004610561828 [Eh]
    Ind20,r (B<-A)      =    -0.009093884431 [Eh]
    Ind20,r             =    -0.013704446260 [Eh]
    Exch-Ind20,r (A<-B) =     0.003309161353 [Eh]
    Exch-Ind20,r (B<-A) =     0.003935509353 [Eh]
    Exch-Ind20,r        =     0.007244670706 [Eh]
    Disp20              =    -0.009926866115 [Eh]
    Disp20 (SS)         =    -0.004963433057 [Eh]
    Disp20 (OS)         =    -0.004963433057 [Eh]
    Exch-Disp20         =     0.001748666551 [Eh]
    Exch-Disp20 (SS)    =     0.001091634403 [Eh]
    Exch-Disp20 (OS)    =     0.000657032148 [Eh]

    SAPT Results 
  --------------------------------------------------------------------------------------------------------
    Electrostatics                -27.20410243 [mEh]     -17.07083200 [kcal/mol]     -71.42436110 [kJ/mol]
      Elst10,r                    -27.20410243 [mEh]     -17.07083200 [kcal/mol]     -71.42436110 [kJ/mol]

    Exchange                       24.96462976 [mEh]      15.66554168 [kcal/mol]      65.54462641 [kJ/mol]
      Exch10                       24.96462976 [mEh]      15.66554168 [kcal/mol]      65.54462641 [kJ/mol]
      Exch10(S^2)                  24.72909671 [mEh]      15.51774246 [kcal/mol]      64.92623446 [kJ/mol]

    Induction                     -10.93863568 [mEh]      -6.86409752 [kcal/mol]     -28.71938402 [kJ/mol]
      Ind20,r                     -13.70444626 [mEh]      -8.59966986 [kcal/mol]     -35.98101870 [kJ/mol]
      Exch-Ind20,r                  7.24467071 [mEh]       4.54609950 [kcal/mol]      19.02088032 [kJ/mol]
      delta HF,r (2)               -4.47886013 [mEh]      -2.81052716 [kcal/mol]     -11.75924564 [kJ/mol]

    Dispersion                     -8.17819956 [mEh]      -5.13189770 [kcal/mol]     -21.47186000 [kJ/mol]
      Disp20                       -9.92686611 [mEh]      -6.22920253 [kcal/mol]     -26.06298339 [kJ/mol]
      Exch-Disp20                   1.74866655 [mEh]       1.09730483 [kcal/mol]       4.59112340 [kJ/mol]
      Disp20 (SS)                  -4.96343306 [mEh]      -3.11460127 [kcal/mol]     -13.03149170 [kJ/mol]
      Disp20 (OS)                  -4.96343306 [mEh]      -3.11460127 [kcal/mol]     -13.03149170 [kJ/mol]
      Exch-Disp20 (SS)              1.09163440 [mEh]       0.68501093 [kcal/mol]       2.86608573 [kJ/mol]
      Exch-Disp20 (OS)              0.65703215 [mEh]       0.41229390 [kcal/mol]       1.72503767 [kJ/mol]

  Total HF                        -13.17810835 [mEh]      -8.26938784 [kcal/mol]     -34.59911871 [kJ/mol]
  Total SAPT0                     -21.35630792 [mEh]     -13.40128554 [kcal/mol]     -56.07097871 [kJ/mol]

  Special recipe for scaled SAPT0 (see Manual):
    Electrostatics sSAPT0         -27.20410243 [mEh]     -17.07083200 [kcal/mol]     -71.42436110 [kJ/mol]
    Exchange sSAPT0                24.96462976 [mEh]      15.66554168 [kcal/mol]      65.54462641 [kJ/mol]
    Induction sSAPT0              -10.72965151 [mEh]      -6.73295797 [kcal/mol]     -28.17069615 [kJ/mol]
    Dispersion sSAPT0              -8.12775647 [mEh]      -5.10024418 [kcal/mol]     -21.33942166 [kJ/mol]
  Total sSAPT0                    -21.09688064 [mEh]     -13.23849247 [kcal/mol]     -55.38985250 [kJ/mol]
  --------------------------------------------------------------------------------------------------------

*** tstop() called on r282 at Fri Sep 10 13:42:07 2021
Module time:
	user time   =     123.65 seconds =       2.06 minutes
	system time =      20.72 seconds =       0.35 minutes
	total time  =        144 seconds =       2.40 minutes
Total time:
	user time   =     274.06 seconds =       4.57 minutes
	system time =      23.72 seconds =       0.40 minutes
	total time  =        298 seconds =       4.97 minutes

    Psi4 stopped on: Friday, 10 September 2021 01:42PM
    Psi4 wall time for execution: 0:04:58.45

*** Psi4 exiting successfully. Buy a developer a beer!
