
    -----------------------------------------------------------------------
          Psi4: An Open-Source Ab Initio Electronic Structure Package
                               Psi4 1.3.2 release

                         Git: Rev {HEAD} ecbda83 


    R. M. Parrish, L. A. Burns, D. G. A. Smith, A. C. Simmonett,
    A. E. DePrince III, E. G. Hohenstein, U. Bozkaya, A. Yu. Sokolov,
    R. Di Remigio, R. M. Richard, J. F. Gonthier, A. M. James,
    H. R. McAlexander, A. Kumar, M. Saitow, X. Wang, B. P. Pritchard,
    P. Verma, H. F. Schaefer III, K. Patkowski, R. A. King, E. F. Valeev,
    F. A. Evangelista, J. M. Turney, T. D. Crawford, and C. D. Sherrill,
    J. Chem. Theory Comput. 13(7) pp 3185--3197 (2017).
    (doi: 10.1021/acs.jctc.7b00174)


                         Additional Contributions by
    P. Kraus, H. Kruse, M. H. Lechner, M. C. Schieber, R. A. Shaw,
    A. Alenaizan, R. Galvelis, Z. L. Glick, S. Lehtola, and J. P. Misiewicz

    -----------------------------------------------------------------------


    Psi4 started on: Friday, 10 September 2021 01:19PM

    Process ID: 56679
    Host:       r282
    PSIDATADIR: /home/r08543048/miniconda3/share/psi4
    Memory:     500.0 MiB
    Threads:    1
    
  ==> Input File <==

--------------------------------------------------------------------------
# Any line starting with the # character is a comment line
#! Sample  computation

memory 22 gb

molecule Dimer {
0 1
 C  -2.279049    0.109247    0.000056
 O  -1.657874    1.156989    0.000192
 O  -1.696790   -1.096154   -0.000065
 H  -0.716384   -0.964306   -0.000003
 C  -3.775793    0.004386    0.000062
 H  -4.212920    0.996315   -0.000374
 H  -4.100380   -0.551633   -0.877372
 H  -4.100356   -0.550782    0.878050




    
 --
0 1
 H 0.716133    1.219410   -0.000369
 C 2.894088    0.752849   -0.000158
 C 1.442478    0.393955   -0.000238
 O 1.037019   -0.761243   -0.000008
 H 3.056004    1.400025    0.867846
 C 3.827998   -0.443569    0.000120
 H 3.659135   -1.064196    0.877807
 H 3.659287   -1.064483   -0.877393
 H 4.866174   -0.118033    0.000157
 H 3.056147    1.399732   -0.868352





 
 







units angstrom

no_reorient
symmetry c1
}

set globals{
  basis jun-cc-pvtz
}

energy('sapt0')


--------------------------------------------------------------------------

  Memory set to  20.489 GiB by Python driver.

  //>>>>>>>>>>>>>>>>>>>>>>>>>>>>>>>>>>>//
  //              Dimer HF             //
  //<<<<<<<<<<<<<<<<<<<<<<<<<<<<<<<<<<<//


*** tstart() called on r282
*** at Fri Sep 10 13:19:18 2021

   => Loading Basis Set <=

    Name: JUN-CC-PVTZ
    Role: ORBITAL
    Keyword: BASIS
    atoms 1, 5, 10-11, 14   entry C          line   217 file /home/r08543048/miniconda3/share/psi4/basis/jun-cc-pvtz.gbs 
    atoms 2-3, 12           entry O          line   305 file /home/r08543048/miniconda3/share/psi4/basis/jun-cc-pvtz.gbs 
    atoms 4, 6-9, 13, 15-18 entry H          line    36 file /home/r08543048/miniconda3/share/psi4/basis/jun-cc-pvtz.gbs 


         ---------------------------------------------------------
                                   SCF
               by Justin Turney, Rob Parrish, Andy Simmonett
                          and Daniel G. A. Smith
                              RHF Reference
                        1 Threads,  20980 MiB Core
         ---------------------------------------------------------

  ==> Geometry <==

    Molecular point group: c1
    Full point group: C1

    Geometry (in Angstrom), charge = 0, multiplicity = 1:

       Center              X                  Y                   Z               Mass       
    ------------   -----------------  -----------------  -----------------  -----------------
         C           -2.229710962105     0.115116812193     0.000055962974    12.000000000000
         O           -1.608535962105     1.162858812193     0.000191962974    15.994914619570
         O           -1.647451962105    -1.090284187807    -0.000065037026    15.994914619570
         H           -0.667045962105    -0.958436187807    -0.000003037026     1.007825032230
         C           -3.726454962105     0.010255812193     0.000061962974    12.000000000000
         H           -4.163581962105     1.002184812193    -0.000374037026     1.007825032230
         H           -4.051041962105    -0.545763187807    -0.877372037026     1.007825032230
         H           -4.051017962105    -0.544912187807     0.878049962974     1.007825032230
         H            0.765471037895     1.225279812193    -0.000369037026     1.007825032230
         C            2.943426037895     0.758718812193    -0.000158037026    12.000000000000
         C            1.491816037895     0.399824812193    -0.000238037026    12.000000000000
         O            1.086357037895    -0.755373187807    -0.000008037026    15.994914619570
         H            3.105342037895     1.405894812193     0.867845962974     1.007825032230
         C            3.877336037895    -0.437699187807     0.000119962974    12.000000000000
         H            3.708473037895    -1.058326187807     0.877806962974     1.007825032230
         H            3.708625037895    -1.058613187807    -0.877393037026     1.007825032230
         H            4.915512037895    -0.112163187807     0.000156962974     1.007825032230
         H            3.105485037895     1.405601812193    -0.868352037026     1.007825032230

  Running in c1 symmetry.

  Rotational constants: A =      0.22188  B =      0.02193  C =      0.02018 [cm^-1]
  Rotational constants: A =   6651.74532  B =    657.38050  C =    604.87815 [MHz]
  Nuclear repulsion =  361.694728596005120

  Charge       = 0
  Multiplicity = 1
  Electrons    = 64
  Nalpha       = 32
  Nbeta        = 32

  ==> Algorithm <==

  SCF Algorithm Type is DF.
  DIIS enabled.
  MOM disabled.
  Fractional occupation disabled.
  Guess Type is SAD.
  Energy threshold   = 1.00e-08
  Density threshold  = 1.00e-08
  Integral threshold = 0.00e+00

  ==> Primary Basis <==

  Basis Set: JUN-CC-PVTZ
    Blend: JUN-CC-PVTZ
    Number of shells: 164
    Number of basis function: 452
    Number of Cartesian functions: 510
    Spherical Harmonics?: true
    Max angular momentum: 3

   => Loading Basis Set <=

    Name: (JUN-CC-PVTZ AUX)
    Role: JKFIT
    Keyword: DF_BASIS_SCF
    atoms 1, 5, 10-11, 14   entry C          line   152 file /home/r08543048/miniconda3/share/psi4/basis/jun-cc-pvtz-jkfit.gbs 
    atoms 2-3, 12           entry O          line   272 file /home/r08543048/miniconda3/share/psi4/basis/jun-cc-pvtz-jkfit.gbs 
    atoms 4, 6-9, 13, 15-18 entry H          line    70 file /home/r08543048/miniconda3/share/psi4/basis/jun-cc-pvtz-jkfit.gbs 

  ==> Pre-Iterations <==

   -------------------------------------------------------
    Irrep   Nso     Nmo     Nalpha   Nbeta   Ndocc  Nsocc
   -------------------------------------------------------
     A        452     452       0       0       0       0
   -------------------------------------------------------
    Total     452     452      32      32      32       0
   -------------------------------------------------------

  ==> Integral Setup <==

  ==> DiskDFJK: Density-Fitted J/K Matrices <==

    J tasked:                  Yes
    K tasked:                  Yes
    wK tasked:                  No
    OpenMP threads:              1
    Integrals threads:           1
    Memory [MiB]:            15735
    Algorithm:                Core
    Integral Cache:           SAVE
    Schwarz Cutoff:          1E-12
    Fitting Condition:       1E-10

   => Auxiliary Basis Set <=

  Basis Set: (JUN-CC-PVTZ AUX)
    Blend: JUN-CC-PVTZ-JKFIT
    Number of shells: 332
    Number of basis function: 1060
    Number of Cartesian functions: 1278
    Spherical Harmonics?: true
    Max angular momentum: 4

  Minimum eigenvalue in the overlap matrix is 3.5518492288E-05.
  Using Symmetric Orthogonalization.

  SCF Guess: Superposition of Atomic Densities via on-the-fly atomic UHF.

  ==> Iterations <==

                           Total Energy        Delta E     RMS |[F,P]|

   @DF-RHF iter SAD:  -418.34107796418783   -4.18341e+02   0.00000e+00 
   @DF-RHF iter   1:  -419.64051797010825   -1.29944e+00   1.74345e-03 DIIS
   @DF-RHF iter   2:  -419.86238150223744   -2.21864e-01   1.01783e-03 DIIS
   @DF-RHF iter   3:  -419.93444296425594   -7.20615e-02   1.84553e-04 DIIS
   @DF-RHF iter   4:  -419.93895874813461   -4.51578e-03   8.21926e-05 DIIS
   @DF-RHF iter   5:  -419.93983686206928   -8.78114e-04   1.76066e-05 DIIS
   @DF-RHF iter   6:  -419.93990426996891   -6.74079e-05   8.68911e-06 DIIS
   @DF-RHF iter   7:  -419.93991780127681   -1.35313e-05   3.05114e-06 DIIS
   @DF-RHF iter   8:  -419.93992055752142   -2.75624e-06   1.16158e-06 DIIS
   @DF-RHF iter   9:  -419.93992097136623   -4.13845e-07   3.18742e-07 DIIS
   @DF-RHF iter  10:  -419.93992100006932   -2.87031e-08   7.93591e-08 DIIS
   @DF-RHF iter  11:  -419.93992100166975   -1.60043e-09   2.13521e-08 DIIS
   @DF-RHF iter  12:  -419.93992100175603   -8.62883e-11   9.80160e-09 DIIS
  Energy and wave function converged.


  ==> Post-Iterations <==

    Orbital Energies [Eh]
    ---------------------

    Doubly Occupied:                                                      

       1A    -20.583299     2A    -20.573258     3A    -20.534674  
       4A    -11.375137     5A    -11.343109     6A    -11.250583  
       7A    -11.232521     8A    -11.225765     9A     -1.443102  
      10A     -1.404007    11A     -1.339864    12A     -1.071554  
      13A     -1.014550    14A     -0.920528    15A     -0.808583  
      16A     -0.784969    17A     -0.703279    18A     -0.686533  
      19A     -0.661140    20A     -0.642192    21A     -0.640539  
      22A     -0.633785    23A     -0.567565    24A     -0.560804  
      25A     -0.546393    26A     -0.541934    27A     -0.538011  
      28A     -0.526281    29A     -0.501827    30A     -0.464442  
      31A     -0.444406    32A     -0.436398  

    Virtual:                                                              

      33A      0.045622    34A      0.051238    35A      0.055954  
      36A      0.068115    37A      0.076240    38A      0.081656  
      39A      0.084564    40A      0.097739    41A      0.097966  
      42A      0.098494    43A      0.106185    44A      0.107630  
      45A      0.125105    46A      0.130135    47A      0.149419  
      48A      0.156150    49A      0.170920    50A      0.174227  
      51A      0.183974    52A      0.190441    53A      0.191980  
      54A      0.199643    55A      0.204296    56A      0.212835  
      57A      0.219183    58A      0.239741    59A      0.244079  
      60A      0.258036    61A      0.258728    62A      0.267121  
      63A      0.268878    64A      0.280939    65A      0.284056  
      66A      0.285166    67A      0.294790    68A      0.300976  
      69A      0.302664    70A      0.313844    71A      0.316464  
      72A      0.322304    73A      0.324637    74A      0.327138  
      75A      0.330684    76A      0.351556    77A      0.352194  
      78A      0.370052    79A      0.372135    80A      0.395828  
      81A      0.397390    82A      0.409802    83A      0.413105  
      84A      0.415471    85A      0.426731    86A      0.431614  
      87A      0.432220    88A      0.447384    89A      0.463024  
      90A      0.469356    91A      0.471075    92A      0.486874  
      93A      0.505842    94A      0.512784    95A      0.516486  
      96A      0.522728    97A      0.529493    98A      0.533211  
      99A      0.552239   100A      0.562416   101A      0.564656  
     102A      0.592520   103A      0.617491   104A      0.619787  
     105A      0.627356   106A      0.639532   107A      0.656982  
     108A      0.662571   109A      0.667862   110A      0.678955  
     111A      0.684962   112A      0.698882   113A      0.711109  
     114A      0.714356   115A      0.722257   116A      0.724630  
     117A      0.732436   118A      0.736440   119A      0.747516  
     120A      0.772251   121A      0.773012   122A      0.788218  
     123A      0.797842   124A      0.808140   125A      0.809146  
     126A      0.814392   127A      0.826953   128A      0.852408  
     129A      0.856158   130A      0.857851   131A      0.862176  
     132A      0.868136   133A      0.885252   134A      0.888853  
     135A      0.898614   136A      0.900253   137A      0.916274  
     138A      0.923781   139A      0.940295   140A      0.952075  
     141A      0.964900   142A      0.981818   143A      0.994562  
     144A      1.006631   145A      1.016784   146A      1.020368  
     147A      1.023440   148A      1.046696   149A      1.072835  
     150A      1.077053   151A      1.079723   152A      1.102680  
     153A      1.111009   154A      1.123890   155A      1.158658  
     156A      1.160511   157A      1.194156   158A      1.201997  
     159A      1.215802   160A      1.241250   161A      1.242861  
     162A      1.265698   163A      1.267834   164A      1.281378  
     165A      1.299766   166A      1.306698   167A      1.313693  
     168A      1.325047   169A      1.334599   170A      1.357854  
     171A      1.360927   172A      1.367349   173A      1.375506  
     174A      1.391918   175A      1.404014   176A      1.409145  
     177A      1.424566   178A      1.425886   179A      1.430392  
     180A      1.458736   181A      1.458978   182A      1.469734  
     183A      1.472253   184A      1.505275   185A      1.516649  
     186A      1.538646   187A      1.546944   188A      1.566928  
     189A      1.569401   190A      1.577220   191A      1.583953  
     192A      1.584034   193A      1.609099   194A      1.616004  
     195A      1.643944   196A      1.671170   197A      1.678014  
     198A      1.683035   199A      1.702580   200A      1.722298  
     201A      1.743736   202A      1.757187   203A      1.778635  
     204A      1.785784   205A      1.793369   206A      1.817021  
     207A      1.829329   208A      1.861351   209A      1.875601  
     210A      1.897726   211A      1.928749   212A      1.947236  
     213A      1.961663   214A      1.980884   215A      2.122538  
     216A      2.157332   217A      2.219100   218A      2.240232  
     219A      2.273700   220A      2.280279   221A      2.325086  
     222A      2.369800   223A      2.381489   224A      2.406483  
     225A      2.439124   226A      2.457887   227A      2.475386  
     228A      2.555550   229A      2.604055   230A      2.613593  
     231A      2.642495   232A      2.684470   233A      2.698020  
     234A      2.722998   235A      2.748063   236A      2.764113  
     237A      2.788378   238A      2.803797   239A      2.836069  
     240A      2.850116   241A      2.861088   242A      2.904522  
     243A      2.932238   244A      2.938152   245A      2.966232  
     246A      2.966708   247A      2.971802   248A      2.995377  
     249A      3.022498   250A      3.050978   251A      3.062013  
     252A      3.079020   253A      3.085467   254A      3.107464  
     255A      3.111535   256A      3.123526   257A      3.178025  
     258A      3.184855   259A      3.200763   260A      3.209177  
     261A      3.211345   262A      3.245273   263A      3.269118  
     264A      3.285531   265A      3.300909   266A      3.331584  
     267A      3.347364   268A      3.356985   269A      3.370524  
     270A      3.381348   271A      3.389678   272A      3.394865  
     273A      3.416446   274A      3.432945   275A      3.443233  
     276A      3.444387   277A      3.461661   278A      3.464526  
     279A      3.478350   280A      3.485433   281A      3.502616  
     282A      3.518273   283A      3.519877   284A      3.545125  
     285A      3.566782   286A      3.570565   287A      3.586298  
     288A      3.599543   289A      3.623275   290A      3.626708  
     291A      3.645999   292A      3.662968   293A      3.685561  
     294A      3.693963   295A      3.703244   296A      3.724179  
     297A      3.728100   298A      3.764468   299A      3.765897  
     300A      3.778524   301A      3.783642   302A      3.789530  
     303A      3.795831   304A      3.825497   305A      3.835283  
     306A      3.838905   307A      3.857755   308A      3.880290  
     309A      3.880493   310A      3.908761   311A      3.911996  
     312A      3.958720   313A      3.986818   314A      4.017343  
     315A      4.054744   316A      4.063297   317A      4.111883  
     318A      4.132702   319A      4.142980   320A      4.156942  
     321A      4.162977   322A      4.191833   323A      4.199563  
     324A      4.207930   325A      4.211395   326A      4.236945  
     327A      4.283321   328A      4.303126   329A      4.310917  
     330A      4.314272   331A      4.328090   332A      4.335120  
     333A      4.347923   334A      4.350167   335A      4.378574  
     336A      4.392479   337A      4.396450   338A      4.415254  
     339A      4.420692   340A      4.441621   341A      4.472799  
     342A      4.480137   343A      4.483264   344A      4.515123  
     345A      4.534313   346A      4.591954   347A      4.603024  
     348A      4.617712   349A      4.633540   350A      4.643702  
     351A      4.655793   352A      4.658352   353A      4.671058  
     354A      4.679152   355A      4.708221   356A      4.730990  
     357A      4.758999   358A      4.785146   359A      4.809570  
     360A      4.816192   361A      4.835024   362A      4.864365  
     363A      4.915455   364A      4.932301   365A      4.966084  
     366A      5.007040   367A      5.024640   368A      5.041643  
     369A      5.078309   370A      5.124748   371A      5.159690  
     372A      5.163142   373A      5.223841   374A      5.256924  
     375A      5.264419   376A      5.293860   377A      5.315325  
     378A      5.324169   379A      5.325254   380A      5.371081  
     381A      5.402389   382A      5.443072   383A      5.450217  
     384A      5.463493   385A      5.520370   386A      5.549058  
     387A      5.581083   388A      5.588069   389A      5.613519  
     390A      5.648443   391A      5.651065   392A      5.682817  
     393A      5.690079   394A      5.695122   395A      5.720206  
     396A      5.729293   397A      5.736281   398A      5.747873  
     399A      5.800543   400A      5.841860   401A      5.849802  
     402A      5.891011   403A      5.893022   404A      5.899252  
     405A      5.916857   406A      5.947363   407A      5.973906  
     408A      6.071596   409A      6.091357   410A      6.123190  
     411A      6.188254   412A      6.297354   413A      6.374217  
     414A      6.425061   415A      6.449508   416A      6.469683  
     417A      6.492562   418A      6.527037   419A      6.528706  
     420A      6.749856   421A      6.750930   422A      6.768579  
     423A      6.944494   424A      6.963133   425A      6.974708  
     426A      7.106187   427A      7.159372   428A      7.239865  
     429A      7.252122   430A      7.287112   431A      7.300858  
     432A      7.347592   433A      7.380675   434A      7.395221  
     435A      7.432038   436A      7.444218   437A      7.469648  
     438A      7.677061   439A      7.706988   440A      7.743111  
     441A      7.768643   442A      7.894533   443A      8.007756  
     444A      8.291860   445A     12.144973   446A     12.476164  
     447A     13.812639   448A     13.988850   449A     14.326304  
     450A     14.374333   451A     14.653812   452A     14.718382  

    Final Occupation by Irrep:
              A 
    DOCC [    32 ]

  @DF-RHF Final Energy:  -419.93992100175603

   => Energetics <=

    Nuclear Repulsion Energy =            361.6947285960051204
    One-Electron Energy =               -1291.2672332808147075
    Two-Electron Energy =                 509.6325836830535536
    Total Energy =                       -419.9399210017560335

Computation Completed


Properties will be evaluated at   0.000000,   0.000000,   0.000000 [a0]

Properties computed using the SCF density matrix

  Nuclear Dipole Moment: [e a0]
     X:     5.9671      Y:     0.7099      Z:    -0.0000

  Electronic Dipole Moment: [e a0]
     X:    -5.3862      Y:    -0.2610      Z:    -0.0002

  Dipole Moment: [e a0]
     X:     0.5809      Y:     0.4489      Z:    -0.0002     Total:     0.7341

  Dipole Moment: [D]
     X:     1.4765      Y:     1.1410      Z:    -0.0006     Total:     1.8660


*** tstop() called on r282 at Fri Sep 10 13:20:05 2021
Module time:
	user time   =      46.00 seconds =       0.77 minutes
	system time =       1.06 seconds =       0.02 minutes
	total time  =         47 seconds =       0.78 minutes
Total time:
	user time   =      46.00 seconds =       0.77 minutes
	system time =       1.06 seconds =       0.02 minutes
	total time  =         47 seconds =       0.78 minutes

  //>>>>>>>>>>>>>>>>>>>>>>>>>>>>>>>>>>>//
  //            Monomer A HF           //
  //<<<<<<<<<<<<<<<<<<<<<<<<<<<<<<<<<<<//


*** tstart() called on r282
*** at Fri Sep 10 13:20:05 2021

   => Loading Basis Set <=

    Name: JUN-CC-PVTZ
    Role: ORBITAL
    Keyword: BASIS
    atoms 1, 5, 10-11, 14   entry C          line   217 file /home/r08543048/miniconda3/share/psi4/basis/jun-cc-pvtz.gbs 
    atoms 2-3, 12           entry O          line   305 file /home/r08543048/miniconda3/share/psi4/basis/jun-cc-pvtz.gbs 
    atoms 4, 6-9, 13, 15-18 entry H          line    36 file /home/r08543048/miniconda3/share/psi4/basis/jun-cc-pvtz.gbs 


         ---------------------------------------------------------
                                   SCF
               by Justin Turney, Rob Parrish, Andy Simmonett
                          and Daniel G. A. Smith
                              RHF Reference
                        1 Threads,  20980 MiB Core
         ---------------------------------------------------------

  ==> Geometry <==

    Molecular point group: c1
    Full point group: C1

    Geometry (in Angstrom), charge = 0, multiplicity = 1:

       Center              X                  Y                   Z               Mass       
    ------------   -----------------  -----------------  -----------------  -----------------
         C           -2.229710962105     0.115116812193     0.000055962974    12.000000000000
         O           -1.608535962105     1.162858812193     0.000191962974    15.994914619570
         O           -1.647451962105    -1.090284187807    -0.000065037026    15.994914619570
         H           -0.667045962105    -0.958436187807    -0.000003037026     1.007825032230
         C           -3.726454962105     0.010255812193     0.000061962974    12.000000000000
         H           -4.163581962105     1.002184812193    -0.000374037026     1.007825032230
         H           -4.051041962105    -0.545763187807    -0.877372037026     1.007825032230
         H           -4.051017962105    -0.544912187807     0.878049962974     1.007825032230
      Gh(H)           0.765471037895     1.225279812193    -0.000369037026     1.007825032230
      Gh(C)           2.943426037895     0.758718812193    -0.000158037026    12.000000000000
      Gh(C)           1.491816037895     0.399824812193    -0.000238037026    12.000000000000
      Gh(O)           1.086357037895    -0.755373187807    -0.000008037026    15.994914619570
      Gh(H)           3.105342037895     1.405894812193     0.867845962974     1.007825032230
      Gh(C)           3.877336037895    -0.437699187807     0.000119962974    12.000000000000
      Gh(H)           3.708473037895    -1.058326187807     0.877806962974     1.007825032230
      Gh(H)           3.708625037895    -1.058613187807    -0.877393037026     1.007825032230
      Gh(H)           4.915512037895    -0.112163187807     0.000156962974     1.007825032230
      Gh(H)           3.105485037895     1.405601812193    -0.868352037026     1.007825032230

  Running in c1 symmetry.

  Rotational constants: A =      0.22188  B =      0.02193  C =      0.02018 [cm^-1]
  Rotational constants: A =   6651.74532  B =    657.38050  C =    604.87815 [MHz]
  Nuclear repulsion =  121.131947198407261

  Charge       = 0
  Multiplicity = 1
  Electrons    = 32
  Nalpha       = 16
  Nbeta        = 16

  ==> Algorithm <==

  SCF Algorithm Type is DF.
  DIIS enabled.
  MOM disabled.
  Fractional occupation disabled.
  Guess Type is SAD.
  Energy threshold   = 1.00e-08
  Density threshold  = 1.00e-08
  Integral threshold = 0.00e+00

  ==> Primary Basis <==

  Basis Set: JUN-CC-PVTZ
    Blend: JUN-CC-PVTZ
    Number of shells: 164
    Number of basis function: 452
    Number of Cartesian functions: 510
    Spherical Harmonics?: true
    Max angular momentum: 3

   => Loading Basis Set <=

    Name: (JUN-CC-PVTZ AUX)
    Role: JKFIT
    Keyword: DF_BASIS_SCF
    atoms 1, 5, 10-11, 14   entry C          line   152 file /home/r08543048/miniconda3/share/psi4/basis/jun-cc-pvtz-jkfit.gbs 
    atoms 2-3, 12           entry O          line   272 file /home/r08543048/miniconda3/share/psi4/basis/jun-cc-pvtz-jkfit.gbs 
    atoms 4, 6-9, 13, 15-18 entry H          line    70 file /home/r08543048/miniconda3/share/psi4/basis/jun-cc-pvtz-jkfit.gbs 

  ==> Pre-Iterations <==

   -------------------------------------------------------
    Irrep   Nso     Nmo     Nalpha   Nbeta   Ndocc  Nsocc
   -------------------------------------------------------
     A        452     452       0       0       0       0
   -------------------------------------------------------
    Total     452     452      16      16      16       0
   -------------------------------------------------------

  ==> Integral Setup <==

  ==> DiskDFJK: Density-Fitted J/K Matrices <==

    J tasked:                  Yes
    K tasked:                  Yes
    wK tasked:                  No
    OpenMP threads:              1
    Integrals threads:           1
    Memory [MiB]:            15735
    Algorithm:                Core
    Integral Cache:           LOAD
    Schwarz Cutoff:          1E-12
    Fitting Condition:       1E-10

   => Auxiliary Basis Set <=

  Basis Set: (JUN-CC-PVTZ AUX)
    Blend: JUN-CC-PVTZ-JKFIT
    Number of shells: 332
    Number of basis function: 1060
    Number of Cartesian functions: 1278
    Spherical Harmonics?: true
    Max angular momentum: 4

  Minimum eigenvalue in the overlap matrix is 3.5518492288E-05.
  Using Symmetric Orthogonalization.

  SCF Guess: Superposition of Atomic Densities via on-the-fly atomic UHF.

  ==> Iterations <==

                           Total Energy        Delta E     RMS |[F,P]|

   @DF-RHF iter SAD:  -227.00196459329294   -2.27002e+02   0.00000e+00 
   @DF-RHF iter   1:  -227.74372564521869   -7.41761e-01   1.32544e-03 DIIS
   @DF-RHF iter   2:  -227.85745568850243   -1.13730e-01   8.16799e-04 DIIS
   @DF-RHF iter   3:  -227.90032518113685   -4.28695e-02   1.33985e-04 DIIS
   @DF-RHF iter   4:  -227.90256725699956   -2.24208e-03   6.09380e-05 DIIS
   @DF-RHF iter   5:  -227.90306035514857   -4.93098e-04   1.48516e-05 DIIS
   @DF-RHF iter   6:  -227.90310216605388   -4.18109e-05   7.07865e-06 DIIS
   @DF-RHF iter   7:  -227.90311264500883   -1.04790e-05   2.37686e-06 DIIS
   @DF-RHF iter   8:  -227.90311443904451   -1.79404e-06   6.43567e-07 DIIS
   @DF-RHF iter   9:  -227.90311458897736   -1.49933e-07   1.34989e-07 DIIS
   @DF-RHF iter  10:  -227.90311459447986   -5.50250e-09   3.40204e-08 DIIS
   @DF-RHF iter  11:  -227.90311459470578   -2.25924e-10   9.08082e-09 DIIS
  Energy and wave function converged.


  ==> Post-Iterations <==

    Orbital Energies [Eh]
    ---------------------

    Doubly Occupied:                                                      

       1A    -20.621510     2A    -20.548862     3A    -11.390700  
       4A    -11.245203     5A     -1.467439     6A     -1.358173  
       7A     -1.028706     8A     -0.828851     9A     -0.705461  
      10A     -0.681599    11A     -0.653824    12A     -0.582026  
      13A     -0.574073    14A     -0.563986    15A     -0.481301  
      16A     -0.454582  

    Virtual:                                                              

      17A      0.031783    18A      0.043545    19A      0.056529  
      20A      0.058563    21A      0.063860    22A      0.077851  
      23A      0.079651    24A      0.090755    25A      0.099143  
      26A      0.102169    27A      0.106182    28A      0.110750  
      29A      0.123321    30A      0.139725    31A      0.142436  
      32A      0.144067    33A      0.155863    34A      0.168177  
      35A      0.171046    36A      0.173128    37A      0.179891  
      38A      0.183329    39A      0.197573    40A      0.204674  
      41A      0.206165    42A      0.208066    43A      0.235932  
      44A      0.242627    45A      0.244063    46A      0.261191  
      47A      0.264838    48A      0.267735    49A      0.283357  
      50A      0.287335    51A      0.296866    52A      0.301800  
      53A      0.306442    54A      0.321130    55A      0.322369  
      56A      0.324937    57A      0.340926    58A      0.346247  
      59A      0.347668    60A      0.356928    61A      0.367941  
      62A      0.372223    63A      0.386117    64A      0.393051  
      65A      0.393361    66A      0.398145    67A      0.407318  
      68A      0.419351    69A      0.427057    70A      0.435351  
      71A      0.440129    72A      0.449632    73A      0.456598  
      74A      0.472077    75A      0.486744    76A      0.495767  
      77A      0.504420    78A      0.508422    79A      0.514762  
      80A      0.526906    81A      0.534887    82A      0.537781  
      83A      0.561069    84A      0.565753    85A      0.565832  
      86A      0.575465    87A      0.592022    88A      0.612627  
      89A      0.625972    90A      0.628449    91A      0.638902  
      92A      0.647726    93A      0.659558    94A      0.661977  
      95A      0.664582    96A      0.670968    97A      0.699960  
      98A      0.703217    99A      0.712369   100A      0.719986  
     101A      0.721271   102A      0.730533   103A      0.751673  
     104A      0.773040   105A      0.784846   106A      0.797271  
     107A      0.811226   108A      0.819117   109A      0.824620  
     110A      0.834073   111A      0.845990   112A      0.850814  
     113A      0.870078   114A      0.891653   115A      0.908588  
     116A      0.914797   117A      0.935704   118A      0.945110  
     119A      0.950383   120A      0.984114   121A      0.993096  
     122A      1.015625   123A      1.015773   124A      1.022922  
     125A      1.030726   126A      1.060444   127A      1.063684  
     128A      1.078130   129A      1.078697   130A      1.081142  
     131A      1.114751   132A      1.120679   133A      1.138344  
     134A      1.140308   135A      1.170595   136A      1.187100  
     137A      1.187450   138A      1.199968   139A      1.208931  
     140A      1.241849   141A      1.246874   142A      1.259760  
     143A      1.266716   144A      1.270027   145A      1.277627  
     146A      1.280360   147A      1.290971   148A      1.295329  
     149A      1.299016   150A      1.313068   151A      1.313714  
     152A      1.327740   153A      1.347746   154A      1.352334  
     155A      1.356042   156A      1.366742   157A      1.388840  
     158A      1.399857   159A      1.418368   160A      1.426243  
     161A      1.440761   162A      1.461297   163A      1.466252  
     164A      1.479040   165A      1.482973   166A      1.520029  
     167A      1.520698   168A      1.545733   169A      1.556182  
     170A      1.563504   171A      1.574326   172A      1.577719  
     173A      1.585215   174A      1.595397   175A      1.599864  
     176A      1.617168   177A      1.632446   178A      1.640375  
     179A      1.671722   180A      1.705767   181A      1.719000  
     182A      1.737554   183A      1.739647   184A      1.749380  
     185A      1.768576   186A      1.775337   187A      1.819703  
     188A      1.837169   189A      1.870755   190A      1.894070  
     191A      1.922553   192A      1.940590   193A      1.953695  
     194A      1.966783   195A      2.014274   196A      2.080427  
     197A      2.084125   198A      2.125069   199A      2.146933  
     200A      2.151190   201A      2.213010   202A      2.225080  
     203A      2.251960   204A      2.267618   205A      2.277898  
     206A      2.311404   207A      2.373575   208A      2.378599  
     209A      2.407051   210A      2.416975   211A      2.440749  
     212A      2.446743   213A      2.466409   214A      2.488857  
     215A      2.529496   216A      2.541716   217A      2.576717  
     218A      2.608087   219A      2.627455   220A      2.670070  
     221A      2.725288   222A      2.737598   223A      2.778805  
     224A      2.797598   225A      2.810203   226A      2.837892  
     227A      2.862168   228A      2.938116   229A      2.951348  
     230A      2.955907   231A      2.969844   232A      3.005962  
     233A      3.044772   234A      3.095694   235A      3.120550  
     236A      3.165331   237A      3.197364   238A      3.209287  
     239A      3.257110   240A      3.290155   241A      3.308874  
     242A      3.342275   243A      3.360481   244A      3.419320  
     245A      3.425688   246A      3.440312   247A      3.480417  
     248A      3.488246   249A      3.508618   250A      3.531504  
     251A      3.541484   252A      3.550525   253A      3.567568  
     254A      3.595679   255A      3.612397   256A      3.620751  
     257A      3.632656   258A      3.636847   259A      3.658571  
     260A      3.687613   261A      3.698141   262A      3.702982  
     263A      3.725178   264A      3.751189   265A      3.767662  
     266A      3.771636   267A      3.776757   268A      3.790449  
     269A      3.790929   270A      3.801597   271A      3.821400  
     272A      3.831522   273A      3.848651   274A      3.858598  
     275A      3.875801   276A      3.890114   277A      3.898335  
     278A      3.936365   279A      3.972439   280A      3.998810  
     281A      4.015687   282A      4.017260   283A      4.047172  
     284A      4.064485   285A      4.105121   286A      4.127512  
     287A      4.150329   288A      4.151306   289A      4.165177  
     290A      4.187407   291A      4.192639   292A      4.222239  
     293A      4.257380   294A      4.286118   295A      4.300470  
     296A      4.306665   297A      4.318312   298A      4.347926  
     299A      4.388215   300A      4.391982   301A      4.401572  
     302A      4.429848   303A      4.434601   304A      4.454899  
     305A      4.461593   306A      4.485776   307A      4.493330  
     308A      4.510498   309A      4.534607   310A      4.548024  
     311A      4.557313   312A      4.569640   313A      4.594711  
     314A      4.615655   315A      4.631038   316A      4.639580  
     317A      4.655181   318A      4.660809   319A      4.666416  
     320A      4.692684   321A      4.710217   322A      4.718171  
     323A      4.745416   324A      4.757227   325A      4.770025  
     326A      4.774318   327A      4.777491   328A      4.795192  
     329A      4.819513   330A      4.821391   331A      4.823058  
     332A      4.833783   333A      4.854692   334A      4.856028  
     335A      4.905080   336A      4.925364   337A      4.931353  
     338A      4.945565   339A      4.960844   340A      4.978269  
     341A      4.980837   342A      5.000027   343A      5.001442  
     344A      5.034973   345A      5.044254   346A      5.060463  
     347A      5.064670   348A      5.137511   349A      5.148569  
     350A      5.152244   351A      5.197103   352A      5.236032  
     353A      5.262877   354A      5.296533   355A      5.341853  
     356A      5.372515   357A      5.410180   358A      5.437866  
     359A      5.454037   360A      5.507548   361A      5.553849  
     362A      5.564176   363A      5.570318   364A      5.629652  
     365A      5.637588   366A      5.653480   367A      5.667091  
     368A      5.678980   369A      5.680803   370A      5.732876  
     371A      5.737255   372A      5.788970   373A      5.875863  
     374A      5.876135   375A      5.876698   376A      5.893227  
     377A      5.911887   378A      6.040410   379A      6.049678  
     380A      6.088401   381A      6.090200   382A      6.107915  
     383A      6.161697   384A      6.210474   385A      6.272565  
     386A      6.307705   387A      6.368312   388A      6.381883  
     389A      6.412340   390A      6.431480   391A      6.436774  
     392A      6.452553   393A      6.475367   394A      6.502797  
     395A      6.570507   396A      6.579532   397A      6.706333  
     398A      6.730405   399A      6.756958   400A      6.873970  
     401A      6.934029   402A      6.946585   403A      6.963631  
     404A      6.972601   405A      7.002737   406A      7.087576  
     407A      7.168036   408A      7.253432   409A      7.282259  
     410A      7.321880   411A      7.370340   412A      7.372096  
     413A      7.388128   414A      7.407168   415A      7.444848  
     416A      7.528266   417A      7.581507   418A      7.662827  
     419A      7.695181   420A      7.715291   421A      7.762342  
     422A      7.770178   423A      7.848224   424A      7.850855  
     425A      7.896013   426A      7.976440   427A      7.998050  
     428A      8.118266   429A      8.161807   430A      8.275400  
     431A      8.456774   432A      8.580133   433A      9.381273  
     434A      9.435156   435A      9.645770   436A      9.782470  
     437A      9.870777   438A      9.928492   439A      9.959832  
     440A     10.259013   441A     10.975434   442A     11.558610  
     443A     11.960657   444A     12.135924   445A     13.656488  
     446A     13.852038   447A     14.357435   448A     14.703295  
     449A     43.758009   450A     44.839772   451A     45.760670  
     452A     60.639751  

    Final Occupation by Irrep:
              A 
    DOCC [    16 ]

  @DF-RHF Final Energy:  -227.90311459470578

   => Energetics <=

    Nuclear Repulsion Energy =            121.1319471984072607
    One-Electron Energy =                -551.6975270155805902
    Two-Electron Energy =                 202.6624652224675458
    Total Energy =                       -227.9031145947057837

Computation Completed


Properties will be evaluated at   0.000000,   0.000000,   0.000000 [a0]

Properties computed using the SCF density matrix

  Nuclear Dipole Moment: [e a0]
     X:  -141.1958      Y:     0.5403      Z:     0.0038

  Electronic Dipole Moment: [e a0]
     X:   140.8007      Y:    -1.2818      Z:    -0.0039

  Dipole Moment: [e a0]
     X:    -0.3951      Y:    -0.7415      Z:    -0.0000     Total:     0.8402

  Dipole Moment: [D]
     X:    -1.0042      Y:    -1.8848      Z:    -0.0001     Total:     2.1356


*** tstop() called on r282 at Fri Sep 10 13:20:30 2021
Module time:
	user time   =      24.76 seconds =       0.41 minutes
	system time =       0.52 seconds =       0.01 minutes
	total time  =         25 seconds =       0.42 minutes
Total time:
	user time   =      70.76 seconds =       1.18 minutes
	system time =       1.58 seconds =       0.03 minutes
	total time  =         72 seconds =       1.20 minutes

  //>>>>>>>>>>>>>>>>>>>>>>>>>>>>>>>>>>>//
  //            Monomer B HF           //
  //<<<<<<<<<<<<<<<<<<<<<<<<<<<<<<<<<<<//


*** tstart() called on r282
*** at Fri Sep 10 13:20:30 2021

   => Loading Basis Set <=

    Name: JUN-CC-PVTZ
    Role: ORBITAL
    Keyword: BASIS
    atoms 1, 5, 10-11, 14   entry C          line   217 file /home/r08543048/miniconda3/share/psi4/basis/jun-cc-pvtz.gbs 
    atoms 2-3, 12           entry O          line   305 file /home/r08543048/miniconda3/share/psi4/basis/jun-cc-pvtz.gbs 
    atoms 4, 6-9, 13, 15-18 entry H          line    36 file /home/r08543048/miniconda3/share/psi4/basis/jun-cc-pvtz.gbs 


         ---------------------------------------------------------
                                   SCF
               by Justin Turney, Rob Parrish, Andy Simmonett
                          and Daniel G. A. Smith
                              RHF Reference
                        1 Threads,  20980 MiB Core
         ---------------------------------------------------------

  ==> Geometry <==

    Molecular point group: c1
    Full point group: C1

    Geometry (in Angstrom), charge = 0, multiplicity = 1:

       Center              X                  Y                   Z               Mass       
    ------------   -----------------  -----------------  -----------------  -----------------
      Gh(C)          -2.229710962105     0.115116812193     0.000055962974    12.000000000000
      Gh(O)          -1.608535962105     1.162858812193     0.000191962974    15.994914619570
      Gh(O)          -1.647451962105    -1.090284187807    -0.000065037026    15.994914619570
      Gh(H)          -0.667045962105    -0.958436187807    -0.000003037026     1.007825032230
      Gh(C)          -3.726454962105     0.010255812193     0.000061962974    12.000000000000
      Gh(H)          -4.163581962105     1.002184812193    -0.000374037026     1.007825032230
      Gh(H)          -4.051041962105    -0.545763187807    -0.877372037026     1.007825032230
      Gh(H)          -4.051017962105    -0.544912187807     0.878049962974     1.007825032230
         H            0.765471037895     1.225279812193    -0.000369037026     1.007825032230
         C            2.943426037895     0.758718812193    -0.000158037026    12.000000000000
         C            1.491816037895     0.399824812193    -0.000238037026    12.000000000000
         O            1.086357037895    -0.755373187807    -0.000008037026    15.994914619570
         H            3.105342037895     1.405894812193     0.867845962974     1.007825032230
         C            3.877336037895    -0.437699187807     0.000119962974    12.000000000000
         H            3.708473037895    -1.058326187807     0.877806962974     1.007825032230
         H            3.708625037895    -1.058613187807    -0.877393037026     1.007825032230
         H            4.915512037895    -0.112163187807     0.000156962974     1.007825032230
         H            3.105485037895     1.405601812193    -0.868352037026     1.007825032230

  Running in c1 symmetry.

  Rotational constants: A =      0.22188  B =      0.02193  C =      0.02018 [cm^-1]
  Rotational constants: A =   6651.74532  B =    657.38050  C =    604.87815 [MHz]
  Nuclear repulsion =  118.739765934154519

  Charge       = 0
  Multiplicity = 1
  Electrons    = 32
  Nalpha       = 16
  Nbeta        = 16

  ==> Algorithm <==

  SCF Algorithm Type is DF.
  DIIS enabled.
  MOM disabled.
  Fractional occupation disabled.
  Guess Type is SAD.
  Energy threshold   = 1.00e-08
  Density threshold  = 1.00e-08
  Integral threshold = 0.00e+00

  ==> Primary Basis <==

  Basis Set: JUN-CC-PVTZ
    Blend: JUN-CC-PVTZ
    Number of shells: 164
    Number of basis function: 452
    Number of Cartesian functions: 510
    Spherical Harmonics?: true
    Max angular momentum: 3

   => Loading Basis Set <=

    Name: (JUN-CC-PVTZ AUX)
    Role: JKFIT
    Keyword: DF_BASIS_SCF
    atoms 1, 5, 10-11, 14   entry C          line   152 file /home/r08543048/miniconda3/share/psi4/basis/jun-cc-pvtz-jkfit.gbs 
    atoms 2-3, 12           entry O          line   272 file /home/r08543048/miniconda3/share/psi4/basis/jun-cc-pvtz-jkfit.gbs 
    atoms 4, 6-9, 13, 15-18 entry H          line    70 file /home/r08543048/miniconda3/share/psi4/basis/jun-cc-pvtz-jkfit.gbs 

  ==> Pre-Iterations <==

   -------------------------------------------------------
    Irrep   Nso     Nmo     Nalpha   Nbeta   Ndocc  Nsocc
   -------------------------------------------------------
     A        452     452       0       0       0       0
   -------------------------------------------------------
    Total     452     452      16      16      16       0
   -------------------------------------------------------

  ==> Integral Setup <==

  ==> DiskDFJK: Density-Fitted J/K Matrices <==

    J tasked:                  Yes
    K tasked:                  Yes
    wK tasked:                  No
    OpenMP threads:              1
    Integrals threads:           1
    Memory [MiB]:            15735
    Algorithm:                Core
    Integral Cache:           LOAD
    Schwarz Cutoff:          1E-12
    Fitting Condition:       1E-10

   => Auxiliary Basis Set <=

  Basis Set: (JUN-CC-PVTZ AUX)
    Blend: JUN-CC-PVTZ-JKFIT
    Number of shells: 332
    Number of basis function: 1060
    Number of Cartesian functions: 1278
    Spherical Harmonics?: true
    Max angular momentum: 4

  Minimum eigenvalue in the overlap matrix is 3.5518492288E-05.
  Using Symmetric Orthogonalization.

  SCF Guess: Superposition of Atomic Densities via on-the-fly atomic UHF.

  ==> Iterations <==

                           Total Energy        Delta E     RMS |[F,P]|

   @DF-RHF iter SAD:  -191.17299924104614   -1.91173e+02   0.00000e+00 
   @DF-RHF iter   1:  -191.85725825041422   -6.84259e-01   1.23382e-03 DIIS
   @DF-RHF iter   2:  -191.97237937328023   -1.15121e-01   8.00158e-04 DIIS
   @DF-RHF iter   3:  -192.01994838672033   -4.75690e-02   1.47523e-04 DIIS
   @DF-RHF iter   4:  -192.02278801001759   -2.83962e-03   6.26087e-05 DIIS
   @DF-RHF iter   5:  -192.02334843839952   -5.60428e-04   1.13485e-05 DIIS
   @DF-RHF iter   6:  -192.02338748676735   -3.90484e-05   4.36265e-06 DIIS
   @DF-RHF iter   7:  -192.02339293647748   -5.44971e-06   1.90136e-06 DIIS
   @DF-RHF iter   8:  -192.02339387509039   -9.38613e-07   6.02051e-07 DIIS
   @DF-RHF iter   9:  -192.02339399034076   -1.15250e-07   1.20301e-07 DIIS
   @DF-RHF iter  10:  -192.02339399471654   -4.37578e-09   2.49285e-08 DIIS
   @DF-RHF iter  11:  -192.02339399486050   -1.43956e-10   5.08430e-09 DIIS
  Energy and wave function converged.


  ==> Post-Iterations <==

    Orbital Energies [Eh]
    ---------------------

    Doubly Occupied:                                                      

       1A    -20.556517     2A    -11.332763     3A    -11.245459  
       4A    -11.221203     5A     -1.382931     6A     -1.064790  
       7A     -0.914145     8A     -0.775950     9A     -0.681635  
      10A     -0.635897    11A     -0.624552    12A     -0.541856  
      13A     -0.525842    14A     -0.520852    15A     -0.488557  
      16A     -0.424975  

    Virtual:                                                              

      17A      0.037601    18A      0.045312    19A      0.053896  
      20A      0.065502    21A      0.066271    22A      0.073148  
      23A      0.077713    24A      0.093958    25A      0.096888  
      26A      0.097124    27A      0.106803    28A      0.109074  
      29A      0.126085    30A      0.129600    31A      0.138043  
      32A      0.151902    33A      0.159291    34A      0.161436  
      35A      0.174994    36A      0.180523    37A      0.184222  
      38A      0.193892    39A      0.200247    40A      0.211497  
      41A      0.217615    42A      0.218623    43A      0.229021  
      44A      0.238523    45A      0.252530    46A      0.254363  
      47A      0.265245    48A      0.265536    49A      0.272671  
      50A      0.285461    51A      0.299276    52A      0.300196  
      53A      0.306373    54A      0.313674    55A      0.325529  
      56A      0.326805    57A      0.332812    58A      0.336028  
      59A      0.359865    60A      0.364829    61A      0.365246  
      62A      0.373746    63A      0.381500    64A      0.388803  
      65A      0.403222    66A      0.409130    67A      0.422296  
      68A      0.425296    69A      0.430234    70A      0.436999  
      71A      0.444996    72A      0.454381    73A      0.463448  
      74A      0.468087    75A      0.474834    76A      0.480086  
      77A      0.490655    78A      0.501519    79A      0.510273  
      80A      0.518013    81A      0.522371    82A      0.522607  
      83A      0.543938    84A      0.545155    85A      0.560137  
      86A      0.579116    87A      0.588248    88A      0.601135  
      89A      0.618152    90A      0.621672    91A      0.644719  
      92A      0.656515    93A      0.682550    94A      0.692947  
      95A      0.700651    96A      0.710802    97A      0.730481  
      98A      0.741160    99A      0.741478   100A      0.747776  
     101A      0.755404   102A      0.769135   103A      0.780977  
     104A      0.785052   105A      0.787843   106A      0.787941  
     107A      0.813958   108A      0.838392   109A      0.848273  
     110A      0.857104   111A      0.874891   112A      0.883220  
     113A      0.891671   114A      0.892886   115A      0.897118  
     116A      0.908450   117A      0.915990   118A      0.928318  
     119A      0.941908   120A      0.957291   121A      0.958556  
     122A      0.988686   123A      0.995148   124A      1.006906  
     125A      1.014220   126A      1.022083   127A      1.037898  
     128A      1.042856   129A      1.053513   130A      1.061750  
     131A      1.068175   132A      1.076865   133A      1.084727  
     134A      1.086303   135A      1.112314   136A      1.114052  
     137A      1.133560   138A      1.150944   139A      1.162360  
     140A      1.169321   141A      1.181061   142A      1.220990  
     143A      1.226806   144A      1.244112   145A      1.257520  
     146A      1.267021   147A      1.269421   148A      1.271875  
     149A      1.297302   150A      1.303790   151A      1.324955  
     152A      1.334662   153A      1.348807   154A      1.359862  
     155A      1.373985   156A      1.386974   157A      1.415841  
     158A      1.417628   159A      1.428987   160A      1.437559  
     161A      1.445993   162A      1.465898   163A      1.467208  
     164A      1.471790   165A      1.494250   166A      1.522998  
     167A      1.554410   168A      1.554837   169A      1.568981  
     170A      1.572265   171A      1.578355   172A      1.595018  
     173A      1.614037   174A      1.621083   175A      1.631914  
     176A      1.638204   177A      1.669706   178A      1.672619  
     179A      1.702861   180A      1.705520   181A      1.728579  
     182A      1.771193   183A      1.775531   184A      1.793836  
     185A      1.795558   186A      1.820562   187A      1.837769  
     188A      1.845926   189A      1.887750   190A      1.906275  
     191A      1.916790   192A      1.922318   193A      1.934096  
     194A      1.941988   195A      1.956637   196A      1.980927  
     197A      2.035153   198A      2.074934   199A      2.121974  
     200A      2.122854   201A      2.178840   202A      2.206534  
     203A      2.316881   204A      2.328705   205A      2.345807  
     206A      2.381993   207A      2.416299   208A      2.438255  
     209A      2.502743   210A      2.551163   211A      2.589612  
     212A      2.607070   213A      2.626538   214A      2.633959  
     215A      2.705026   216A      2.731712   217A      2.740869  
     218A      2.781351   219A      2.784893   220A      2.794158  
     221A      2.825213   222A      2.847358   223A      2.872974  
     224A      2.884920   225A      2.907015   226A      2.931309  
     227A      2.951771   228A      2.973849   229A      2.976115  
     230A      2.987016   231A      2.990121   232A      3.026328  
     233A      3.049085   234A      3.055527   235A      3.067451  
     236A      3.081426   237A      3.089442   238A      3.128617  
     239A      3.136938   240A      3.147545   241A      3.202060  
     242A      3.219568   243A      3.253462   244A      3.291317  
     245A      3.292375   246A      3.357590   247A      3.361660  
     248A      3.392156   249A      3.393780   250A      3.400933  
     251A      3.425155   252A      3.434315   253A      3.460721  
     254A      3.471336   255A      3.490232   256A      3.507335  
     257A      3.512595   258A      3.536322   259A      3.559064  
     260A      3.563734   261A      3.584203   262A      3.592525  
     263A      3.597252   264A      3.618264   265A      3.621394  
     266A      3.631231   267A      3.633761   268A      3.669472  
     269A      3.684980   270A      3.695625   271A      3.728702  
     272A      3.765824   273A      3.777614   274A      3.795916  
     275A      3.800890   276A      3.830901   277A      3.841516  
     278A      3.865342   279A      3.877288   280A      3.884553  
     281A      3.897772   282A      3.931485   283A      3.946038  
     284A      3.960845   285A      3.970558   286A      3.994248  
     287A      3.998121   288A      4.012983   289A      4.056567  
     290A      4.112717   291A      4.134670   292A      4.138321  
     293A      4.155262   294A      4.157732   295A      4.198936  
     296A      4.210505   297A      4.233104   298A      4.244655  
     299A      4.273713   300A      4.282648   301A      4.317191  
     302A      4.317758   303A      4.334753   304A      4.339143  
     305A      4.348495   306A      4.373802   307A      4.381090  
     308A      4.396456   309A      4.408194   310A      4.430537  
     311A      4.441686   312A      4.458396   313A      4.482965  
     314A      4.503415   315A      4.511629   316A      4.525258  
     317A      4.542855   318A      4.584827   319A      4.601564  
     320A      4.638009   321A      4.652246   322A      4.656680  
     323A      4.665427   324A      4.667589   325A      4.677150  
     326A      4.714543   327A      4.722457   328A      4.744025  
     329A      4.751620   330A      4.772223   331A      4.787203  
     332A      4.815042   333A      4.816336   334A      4.842629  
     335A      4.857271   336A      4.873240   337A      4.893474  
     338A      4.907148   339A      4.921101   340A      4.944529  
     341A      4.964741   342A      4.968410   343A      4.977810  
     344A      4.998241   345A      5.007968   346A      5.059627  
     347A      5.061016   348A      5.086824   349A      5.096239  
     350A      5.113503   351A      5.144550   352A      5.184000  
     353A      5.236129   354A      5.250645   355A      5.269843  
     356A      5.287693   357A      5.316256   358A      5.331097  
     359A      5.336283   360A      5.371325   361A      5.378218  
     362A      5.449076   363A      5.469670   364A      5.471063  
     365A      5.558219   366A      5.612190   367A      5.629986  
     368A      5.676602   369A      5.680913   370A      5.701951  
     371A      5.734027   372A      5.736631   373A      5.749901  
     374A      5.778037   375A      5.808418   376A      5.849139  
     377A      5.899751   378A      5.920838   379A      5.969936  
     380A      5.987684   381A      6.051496   382A      6.073106  
     383A      6.115673   384A      6.149555   385A      6.161527  
     386A      6.185148   387A      6.270145   388A      6.284747  
     389A      6.336846   390A      6.448369   391A      6.474936  
     392A      6.489385   393A      6.498341   394A      6.518987  
     395A      6.533390   396A      6.574374   397A      6.655745  
     398A      6.744293   399A      6.767446   400A      6.819460  
     401A      6.968715   402A      7.043188   403A      7.149240  
     404A      7.194358   405A      7.226911   406A      7.241014  
     407A      7.280947   408A      7.416682   409A      7.422646  
     410A      7.525422   411A      7.525842   412A      7.549586  
     413A      7.705473   414A      7.727709   415A      7.791010  
     416A      7.813875   417A      7.852583   418A      7.856889  
     419A      7.950572   420A      8.044161   421A      8.147170  
     422A      8.341109   423A      8.661852   424A      8.871704  
     425A      9.137781   426A      9.425210   427A      9.699166  
     428A      9.778346   429A      9.859620   430A      9.904758  
     431A      9.908109   432A      9.929077   433A      9.954595  
     434A     10.094617   435A     10.389857   436A     10.499127  
     437A     11.052843   438A     11.369168   439A     11.543818  
     440A     11.617667   441A     11.963325   442A     12.493695  
     443A     13.123055   444A     13.776205   445A     13.981842  
     446A     14.000176   447A     14.305891   448A     14.660210  
     449A     42.783879   450A     46.022409   451A     60.943468  
     452A     61.715304  

    Final Occupation by Irrep:
              A 
    DOCC [    16 ]

  @DF-RHF Final Energy:  -192.02339399486050

   => Energetics <=

    Nuclear Repulsion Energy =            118.7397659341545193
    One-Electron Energy =                -495.6504756842812753
    Two-Electron Energy =                 184.8873157552662860
    Total Energy =                       -192.0233939948604984

Computation Completed


Properties will be evaluated at   0.000000,   0.000000,   0.000000 [a0]

Properties computed using the SCF density matrix

  Nuclear Dipole Moment: [e a0]
     X:   147.1629      Y:     0.1696      Z:    -0.0038

  Electronic Dipole Moment: [e a0]
     X:  -146.5348      Y:     0.9221      Z:     0.0037

  Dipole Moment: [e a0]
     X:     0.6281      Y:     1.0917      Z:    -0.0002     Total:     1.2595

  Dipole Moment: [D]
     X:     1.5964      Y:     2.7748      Z:    -0.0004     Total:     3.2013


*** tstop() called on r282 at Fri Sep 10 13:20:56 2021
Module time:
	user time   =      24.89 seconds =       0.41 minutes
	system time =       0.49 seconds =       0.01 minutes
	total time  =         26 seconds =       0.43 minutes
Total time:
	user time   =      95.65 seconds =       1.59 minutes
	system time =       2.07 seconds =       0.03 minutes
	total time  =         98 seconds =       1.63 minutes
  Constructing Basis Sets for SAPT...

   => Loading Basis Set <=

    Name: (JUN-CC-PVTZ AUX)
    Role: RIFIT
    Keyword: DF_BASIS_SAPT
    atoms 1, 5, 10-11, 14   entry C          line   132 file /home/r08543048/miniconda3/share/psi4/basis/jun-cc-pvtz-ri.gbs 
    atoms 2-3, 12           entry O          line   244 file /home/r08543048/miniconda3/share/psi4/basis/jun-cc-pvtz-ri.gbs 
    atoms 4, 6-9, 13, 15-18 entry H          line    30 file /home/r08543048/miniconda3/share/psi4/basis/jun-cc-pvtz-ri.gbs 


  //>>>>>>>>>>>>>>>>>>>>>>>>>>>>>>>>>>>//
  //               SAPT0               //
  //<<<<<<<<<<<<<<<<<<<<<<<<<<<<<<<<<<<//


*** tstart() called on r282
*** at Fri Sep 10 13:20:56 2021

        SAPT0  
    Ed Hohenstein
     6 June 2009

      Orbital Information
  --------------------------
    NSO        =       452
    NMO        =       452
    NRI        =      1076
    NOCC A     =        16
    NOCC B     =        16
    FOCC A     =         0
    FOCC B     =         0
    NVIR A     =       436
    NVIR B     =       436

    Elst10,r            =    -0.027407567313 [Eh]
    Exch10              =     0.025025232787 [Eh]
    Exch10 (S^2)        =     0.024787900401 [Eh]

    Iter     Energy [mEh]          dE [mEh]         Residual      Time [s]
       1      -3.85131678       3.851316776      10.024148562             1
       2      -4.45666701       0.605350238       4.979922671             2
       3      -4.60410641       0.147439401       1.412857530             2
       4      -4.57880990      -0.025296519       0.583614560             3
       5      -4.57218456      -0.006625336       0.178379575             4
       6      -4.57483310       0.002648536       0.080262655             4
       7      -4.57568439       0.000851294       0.021781679             5
       8      -4.57544302      -0.000241367       0.006849765             6
       9      -4.57535790      -0.000085119       0.001628427             6
      10      -4.57538067       0.000022766       0.000404250             7
      11      -4.57538072       0.000000054       0.000075740             8
      12      -4.57537979      -0.000000932       0.000014781             8
      13      -4.57537993       0.000000140       0.000004038             9
      14      -4.57537995       0.000000017       0.000001123            10
      15      -4.57537994      -0.000000010       0.000000258            10

    CHF Iterations converged


    Iter     Energy [mEh]          dE [mEh]         Residual      Time [s]
       1      -7.13589740       7.135897397      21.364718663             1
       2      -8.31601276       1.180115359      11.937594538             2
       3      -9.28132520       0.965312440       2.742567244             3
       4      -9.21081999      -0.070505209       1.110870432             3
       5      -9.19811489      -0.012705092       0.353387544             4
       6      -9.20627933       0.008164438       0.122038805             5
       7      -9.20705363       0.000774294       0.023514528             5
       8      -9.20653812      -0.000515508       0.005364239             6
       9      -9.20655203       0.000013916       0.001601133             7
      10      -9.20658132       0.000029284       0.000338538             7
      11      -9.20657848      -0.000002841       0.000076143             8
      12      -9.20657789      -0.000000583       0.000022323             9
      13      -9.20657800       0.000000104       0.000005732             9
      14      -9.20657804       0.000000046       0.000001303            10
      15      -9.20657804      -0.000000009       0.000000333            11

    CHF Iterations converged

    Ind20,r (A<-B)      =    -0.004575379939 [Eh]
    Ind20,r (B<-A)      =    -0.009206578036 [Eh]
    Ind20,r             =    -0.013781957975 [Eh]
    Exch-Ind20,r (A<-B) =     0.003277460202 [Eh]
    Exch-Ind20,r (B<-A) =     0.003974062988 [Eh]
    Exch-Ind20,r        =     0.007251523189 [Eh]
    Disp20              =    -0.009860217110 [Eh]
    Disp20 (SS)         =    -0.004930108555 [Eh]
    Disp20 (OS)         =    -0.004930108555 [Eh]
    Exch-Disp20         =     0.001741068861 [Eh]
    Exch-Disp20 (SS)    =     0.001086990549 [Eh]
    Exch-Disp20 (OS)    =     0.000654078312 [Eh]

    SAPT Results 
  --------------------------------------------------------------------------------------------------------
    Electrostatics                -27.40756731 [mEh]     -17.19850814 [kcal/mol]     -71.95855807 [kJ/mol]
      Elst10,r                    -27.40756731 [mEh]     -17.19850814 [kcal/mol]     -71.95855807 [kJ/mol]

    Exchange                       25.02523279 [mEh]      15.70357066 [kcal/mol]      65.70373963 [kJ/mol]
      Exch10                       25.02523279 [mEh]      15.70357066 [kcal/mol]      65.70373963 [kJ/mol]
      Exch10(S^2)                  24.78790040 [mEh]      15.55464234 [kcal/mol]      65.08062354 [kJ/mol]

    Induction                     -11.03007766 [mEh]      -6.92147823 [kcal/mol]     -28.95946492 [kJ/mol]
      Ind20,r                     -13.78195797 [mEh]      -8.64830920 [kcal/mol]     -36.18452568 [kJ/mol]
      Exch-Ind20,r                  7.25152319 [mEh]       4.55039950 [kcal/mol]      19.03887151 [kJ/mol]
      delta HF,r (2)               -4.49964288 [mEh]      -2.82356854 [kcal/mol]     -11.81381075 [kJ/mol]

    Dispersion                     -8.11914825 [mEh]      -5.09484245 [kcal/mol]     -21.31682079 [kJ/mol]
      Disp20                       -9.86021711 [mEh]      -6.18737965 [kcal/mol]     -25.88799646 [kJ/mol]
      Exch-Disp20                   1.74106886 [mEh]       1.09253720 [kcal/mol]       4.57117566 [kJ/mol]
      Disp20 (SS)                  -4.93010855 [mEh]      -3.09368982 [kcal/mol]     -12.94399823 [kJ/mol]
      Disp20 (OS)                  -4.93010855 [mEh]      -3.09368982 [kcal/mol]     -12.94399823 [kJ/mol]
      Exch-Disp20 (SS)              1.08699055 [mEh]       0.68209687 [kcal/mol]       2.85389329 [kJ/mol]
      Exch-Disp20 (OS)              0.65407831 [mEh]       0.41044034 [kcal/mol]       1.71728237 [kJ/mol]

  Total HF                        -13.41241219 [mEh]      -8.41641572 [kcal/mol]     -35.21428335 [kJ/mol]
  Total SAPT0                     -21.53156044 [mEh]     -13.51125816 [kcal/mol]     -56.53110414 [kJ/mol]

  Special recipe for scaled SAPT0 (see Manual):
    Electrostatics sSAPT0         -27.40756731 [mEh]     -17.19850814 [kcal/mol]     -71.95855807 [kJ/mol]
    Exchange sSAPT0                25.02523279 [mEh]      15.70357066 [kcal/mol]      65.70373963 [kJ/mol]
    Induction sSAPT0              -10.81978734 [mEh]      -6.78951906 [kcal/mol]     -28.40734775 [kJ/mol]
    Dispersion sSAPT0              -8.06865818 [mEh]      -5.06315945 [kcal/mol]     -21.18425912 [kJ/mol]
  Total sSAPT0                    -21.27078004 [mEh]     -13.34761599 [kcal/mol]     -55.84642531 [kJ/mol]
  --------------------------------------------------------------------------------------------------------

*** tstop() called on r282 at Fri Sep 10 13:22:22 2021
Module time:
	user time   =      73.09 seconds =       1.22 minutes
	system time =      13.51 seconds =       0.23 minutes
	total time  =         86 seconds =       1.43 minutes
Total time:
	user time   =     168.86 seconds =       2.81 minutes
	system time =      15.58 seconds =       0.26 minutes
	total time  =        184 seconds =       3.07 minutes

    Psi4 stopped on: Friday, 10 September 2021 01:22PM
    Psi4 wall time for execution: 0:03:04.71

*** Psi4 exiting successfully. Buy a developer a beer!
