
    -----------------------------------------------------------------------
          Psi4: An Open-Source Ab Initio Electronic Structure Package
                               Psi4 1.3.2 release

                         Git: Rev {HEAD} ecbda83 


    R. M. Parrish, L. A. Burns, D. G. A. Smith, A. C. Simmonett,
    A. E. DePrince III, E. G. Hohenstein, U. Bozkaya, A. Yu. Sokolov,
    R. Di Remigio, R. M. Richard, J. F. Gonthier, A. M. James,
    H. R. McAlexander, A. Kumar, M. Saitow, X. Wang, B. P. Pritchard,
    P. Verma, H. F. Schaefer III, K. Patkowski, R. A. King, E. F. Valeev,
    F. A. Evangelista, J. M. Turney, T. D. Crawford, and C. D. Sherrill,
    J. Chem. Theory Comput. 13(7) pp 3185--3197 (2017).
    (doi: 10.1021/acs.jctc.7b00174)


                         Additional Contributions by
    P. Kraus, H. Kruse, M. H. Lechner, M. C. Schieber, R. A. Shaw,
    A. Alenaizan, R. Galvelis, Z. L. Glick, S. Lehtola, and J. P. Misiewicz

    -----------------------------------------------------------------------


    Psi4 started on: Friday, 10 September 2021 04:33PM

    Process ID: 56855
    Host:       r282
    PSIDATADIR: /home/r08543048/miniconda3/share/psi4
    Memory:     500.0 MiB
    Threads:    1
    
  ==> Input File <==

--------------------------------------------------------------------------
# Any line starting with the # character is a comment line
#! Sample  computation

memory 22 gb

molecule Dimer {
0 1
 C 2.710360    0.397720   -0.683045
 C 1.982910   -0.769488   -0.042629
 O 1.349528   -0.409175    1.180644
 H 2.008083    1.189014   -0.947703
 H 3.221853    0.079914   -1.592498
 H 3.445212    0.808295    0.007354
 H 1.253368   -1.191184   -0.742229
 H 2.685504   -1.560986    0.213977
 H 0.660104    0.233341    0.962724







    
    
 --
0 1
 C   -0.950863    1.885264    0.330365
 C   -1.355957    0.886596   -0.463221
 C   -2.365005   -0.150449   -0.084965
 C   -1.797324   -1.567350   -0.182834
 H   -0.218425    2.608670   -0.001014
 H   -1.359094    2.005040    1.326531
 H   -0.925618    0.802120   -1.458367
 H   -2.722126    0.044949    0.927920
 H   -3.227337   -0.064124   -0.751615
 H   -1.443197   -1.771016   -1.194244
 H   -0.960226   -1.696879    0.502577
 H   -2.559052   -2.307513    0.059404
   
   





units angstrom

no_reorient
symmetry c1
}

set globals{
  basis jun-cc-pvtz
}

energy('sapt0')


--------------------------------------------------------------------------

  Memory set to  20.489 GiB by Python driver.

  //>>>>>>>>>>>>>>>>>>>>>>>>>>>>>>>>>>>//
  //              Dimer HF             //
  //<<<<<<<<<<<<<<<<<<<<<<<<<<<<<<<<<<<//


*** tstart() called on r282
*** at Fri Sep 10 16:33:17 2021

   => Loading Basis Set <=

    Name: JUN-CC-PVTZ
    Role: ORBITAL
    Keyword: BASIS
    atoms 1-2, 10-13 entry C          line   217 file /home/r08543048/miniconda3/share/psi4/basis/jun-cc-pvtz.gbs 
    atoms 3          entry O          line   305 file /home/r08543048/miniconda3/share/psi4/basis/jun-cc-pvtz.gbs 
    atoms 4-9, 14-21 entry H          line    36 file /home/r08543048/miniconda3/share/psi4/basis/jun-cc-pvtz.gbs 


         ---------------------------------------------------------
                                   SCF
               by Justin Turney, Rob Parrish, Andy Simmonett
                          and Daniel G. A. Smith
                              RHF Reference
                        1 Threads,  20980 MiB Core
         ---------------------------------------------------------

  ==> Geometry <==

    Molecular point group: c1
    Full point group: C1

    Geometry (in Angstrom), charge = 0, multiplicity = 1:

       Center              X                  Y                   Z               Mass       
    ------------   -----------------  -----------------  -----------------  -----------------
         C            2.709057577128     0.389728004015    -0.709098137644    12.000000000000
         C            1.981607577128    -0.777479995985    -0.068682137644    12.000000000000
         O            1.348225577128    -0.417166995985     1.154590862356    15.994914619570
         H            2.006780577128     1.181022004015    -0.973756137644     1.007825032230
         H            3.220550577128     0.071922004015    -1.618551137644     1.007825032230
         H            3.443909577128     0.800303004015    -0.018699137644     1.007825032230
         H            1.252065577128    -1.199175995985    -0.768282137644     1.007825032230
         H            2.684201577128    -1.568977995985     0.187923862356     1.007825032230
         H            0.658801577128     0.225349004015     0.936670862356     1.007825032230
         C           -0.952165422872     1.877272004015     0.304311862356    12.000000000000
         C           -1.357259422872     0.878604004015    -0.489274137644    12.000000000000
         C           -2.366307422872    -0.158440995985    -0.111018137644    12.000000000000
         C           -1.798626422872    -1.575341995985    -0.208887137644    12.000000000000
         H           -0.219727422872     2.600678004015    -0.027067137644     1.007825032230
         H           -1.360396422872     1.997048004015     1.300477862356     1.007825032230
         H           -0.926920422872     0.794128004015    -1.484420137644     1.007825032230
         H           -2.723428422872     0.036957004015     0.901866862356     1.007825032230
         H           -3.228639422872    -0.072115995985    -0.777668137644     1.007825032230
         H           -1.444499422872    -1.779007995985    -1.220297137644     1.007825032230
         H           -0.961528422872    -1.704870995985     0.476523862356     1.007825032230
         H           -2.560354422872    -2.315504995985     0.033350862356     1.007825032230

  Running in c1 symmetry.

  Rotational constants: A =      0.10123  B =      0.04074  C =      0.03426 [cm^-1]
  Rotational constants: A =   3034.66003  B =   1221.42180  C =   1026.95555 [MHz]
  Nuclear repulsion =  308.872947317645242

  Charge       = 0
  Multiplicity = 1
  Electrons    = 58
  Nalpha       = 29
  Nbeta        = 29

  ==> Algorithm <==

  SCF Algorithm Type is DF.
  DIIS enabled.
  MOM disabled.
  Fractional occupation disabled.
  Guess Type is SAD.
  Energy threshold   = 1.00e-08
  Density threshold  = 1.00e-08
  Integral threshold = 0.00e+00

  ==> Primary Basis <==

  Basis Set: JUN-CC-PVTZ
    Blend: JUN-CC-PVTZ
    Number of shells: 175
    Number of basis function: 469
    Number of Cartesian functions: 525
    Spherical Harmonics?: true
    Max angular momentum: 3

   => Loading Basis Set <=

    Name: (JUN-CC-PVTZ AUX)
    Role: JKFIT
    Keyword: DF_BASIS_SCF
    atoms 1-2, 10-13 entry C          line   152 file /home/r08543048/miniconda3/share/psi4/basis/jun-cc-pvtz-jkfit.gbs 
    atoms 3          entry O          line   272 file /home/r08543048/miniconda3/share/psi4/basis/jun-cc-pvtz-jkfit.gbs 
    atoms 4-9, 14-21 entry H          line    70 file /home/r08543048/miniconda3/share/psi4/basis/jun-cc-pvtz-jkfit.gbs 

  ==> Pre-Iterations <==

   -------------------------------------------------------
    Irrep   Nso     Nmo     Nalpha   Nbeta   Ndocc  Nsocc
   -------------------------------------------------------
     A        469     469       0       0       0       0
   -------------------------------------------------------
    Total     469     469      29      29      29       0
   -------------------------------------------------------

  ==> Integral Setup <==

  ==> DiskDFJK: Density-Fitted J/K Matrices <==

    J tasked:                  Yes
    K tasked:                  Yes
    wK tasked:                  No
    OpenMP threads:              1
    Integrals threads:           1
    Memory [MiB]:            15735
    Algorithm:                Core
    Integral Cache:           SAVE
    Schwarz Cutoff:          1E-12
    Fitting Condition:       1E-10

   => Auxiliary Basis Set <=

  Basis Set: (JUN-CC-PVTZ AUX)
    Blend: JUN-CC-PVTZ-JKFIT
    Number of shells: 343
    Number of basis function: 1085
    Number of Cartesian functions: 1302
    Spherical Harmonics?: true
    Max angular momentum: 4

  Minimum eigenvalue in the overlap matrix is 3.4183196011E-05.
  Using Symmetric Orthogonalization.

  SCF Guess: Superposition of Atomic Densities via on-the-fly atomic UHF.

  ==> Iterations <==

                           Total Energy        Delta E     RMS |[F,P]|

   @DF-RHF iter SAD:  -308.98765529695333   -3.08988e+02   0.00000e+00 
   @DF-RHF iter   1:  -310.01784499335952   -1.03019e+00   1.51190e-03 DIIS
   @DF-RHF iter   2:  -310.25500225647232   -2.37157e-01   7.16993e-04 DIIS
   @DF-RHF iter   3:  -310.30421596159704   -4.92137e-02   1.41154e-04 DIIS
   @DF-RHF iter   4:  -310.30757607889359   -3.36012e-03   5.37196e-05 DIIS
   @DF-RHF iter   5:  -310.30793659548283   -3.60517e-04   9.88171e-06 DIIS
   @DF-RHF iter   6:  -310.30795569473315   -1.90993e-05   2.34638e-06 DIIS
   @DF-RHF iter   7:  -310.30795693413944   -1.23941e-06   6.77132e-07 DIIS
   @DF-RHF iter   8:  -310.30795704706225   -1.12923e-07   2.87040e-07 DIIS
   @DF-RHF iter   9:  -310.30795706389046   -1.68282e-08   8.27073e-08 DIIS
   @DF-RHF iter  10:  -310.30795706636167   -2.47121e-09   3.55194e-08 DIIS
   @DF-RHF iter  11:  -310.30795706667936   -3.17698e-10   9.91343e-09 DIIS
  Energy and wave function converged.


  ==> Post-Iterations <==

    Orbital Energies [Eh]
    ---------------------

    Doubly Occupied:                                                      

       1A    -20.540810     2A    -11.266399     3A    -11.245965  
       4A    -11.231981     5A    -11.229960     6A    -11.216593  
       7A    -11.211450     8A     -1.343959     9A     -1.091633  
      10A     -1.006236    11A     -0.997687    12A     -0.863405  
      13A     -0.839241    14A     -0.767404    15A     -0.679999  
      16A     -0.653338    17A     -0.616392    18A     -0.613264  
      19A     -0.597943    20A     -0.592067    21A     -0.543369  
      22A     -0.538884    23A     -0.523114    24A     -0.518527  
      25A     -0.492967    26A     -0.486537    27A     -0.474073  
      28A     -0.433243    29A     -0.371537  

    Virtual:                                                              

      30A      0.050105    31A      0.052494    32A      0.055768  
      33A      0.063964    34A      0.070711    35A      0.075503  
      36A      0.087857    37A      0.088255    38A      0.092426  
      39A      0.104625    40A      0.111716    41A      0.115635  
      42A      0.117045    43A      0.130212    44A      0.136317  
      45A      0.137755    46A      0.148004    47A      0.152050  
      48A      0.166587    49A      0.170898    50A      0.180818  
      51A      0.191646    52A      0.203040    53A      0.211211  
      54A      0.216680    55A      0.229428    56A      0.242937  
      57A      0.257830    58A      0.266599    59A      0.268603  
      60A      0.272410    61A      0.281259    62A      0.284104  
      63A      0.291256    64A      0.298904    65A      0.304454  
      66A      0.307919    67A      0.319976    68A      0.321654  
      69A      0.329636    70A      0.335873    71A      0.339863  
      72A      0.344211    73A      0.345454    74A      0.351001  
      75A      0.357022    76A      0.364632    77A      0.368201  
      78A      0.378594    79A      0.381730    80A      0.388812  
      81A      0.400915    82A      0.408454    83A      0.417008  
      84A      0.430462    85A      0.435610    86A      0.441872  
      87A      0.450152    88A      0.457728    89A      0.460611  
      90A      0.473596    91A      0.492316    92A      0.497581  
      93A      0.505795    94A      0.512135    95A      0.517291  
      96A      0.527818    97A      0.532790    98A      0.534350  
      99A      0.537866   100A      0.549919   101A      0.559164  
     102A      0.569583   103A      0.571296   104A      0.587646  
     105A      0.602401   106A      0.609183   107A      0.643515  
     108A      0.663735   109A      0.666283   110A      0.672726  
     111A      0.695377   112A      0.701401   113A      0.710766  
     114A      0.715911   115A      0.722391   116A      0.728784  
     117A      0.735345   118A      0.749469   119A      0.760268  
     120A      0.762993   121A      0.779316   122A      0.789192  
     123A      0.794276   124A      0.803440   125A      0.807709  
     126A      0.815867   127A      0.823571   128A      0.832282  
     129A      0.843681   130A      0.857091   131A      0.861884  
     132A      0.870247   133A      0.873283   134A      0.885126  
     135A      0.894040   136A      0.900261   137A      0.907173  
     138A      0.920284   139A      0.928279   140A      0.946309  
     141A      0.955055   142A      0.958106   143A      0.976310  
     144A      0.997119   145A      1.011668   146A      1.031714  
     147A      1.040203   148A      1.048254   149A      1.058538  
     150A      1.076980   151A      1.095045   152A      1.100988  
     153A      1.108068   154A      1.118454   155A      1.126228  
     156A      1.150064   157A      1.175680   158A      1.180549  
     159A      1.195433   160A      1.208460   161A      1.215339  
     162A      1.231537   163A      1.247135   164A      1.264041  
     165A      1.285001   166A      1.298754   167A      1.316591  
     168A      1.323986   169A      1.336993   170A      1.355512  
     171A      1.365178   172A      1.372127   173A      1.379098  
     174A      1.384168   175A      1.387011   176A      1.394115  
     177A      1.423738   178A      1.440539   179A      1.443297  
     180A      1.454224   181A      1.460586   182A      1.472829  
     183A      1.486823   184A      1.490539   185A      1.518691  
     186A      1.524181   187A      1.528596   188A      1.539927  
     189A      1.549101   190A      1.558497   191A      1.563379  
     192A      1.582843   193A      1.598153   194A      1.607792  
     195A      1.621763   196A      1.631748   197A      1.640789  
     198A      1.648454   199A      1.669945   200A      1.678335  
     201A      1.683732   202A      1.699720   203A      1.700965  
     204A      1.724431   205A      1.738175   206A      1.754302  
     207A      1.778151   208A      1.781737   209A      1.794136  
     210A      1.804283   211A      1.830856   212A      1.837120  
     213A      1.844900   214A      1.871080   215A      1.872420  
     216A      1.898045   217A      1.916781   218A      1.944563  
     219A      1.962718   220A      1.983053   221A      2.000143  
     222A      2.016952   223A      2.076928   224A      2.128830  
     225A      2.185998   226A      2.249534   227A      2.393856  
     228A      2.419607   229A      2.442443   230A      2.571180  
     231A      2.613572   232A      2.718834   233A      2.727335  
     234A      2.764727   235A      2.791351   236A      2.801623  
     237A      2.812165   238A      2.828709   239A      2.832148  
     240A      2.849533   241A      2.858847   242A      2.866585  
     243A      2.890525   244A      2.895216   245A      2.901084  
     246A      2.916185   247A      2.931026   248A      2.958749  
     249A      2.976857   250A      2.987896   251A      3.006933  
     252A      3.020171   253A      3.038489   254A      3.054486  
     255A      3.072464   256A      3.090128   257A      3.120287  
     258A      3.123516   259A      3.141737   260A      3.154911  
     261A      3.164305   262A      3.177035   263A      3.188990  
     264A      3.205435   265A      3.221834   266A      3.228291  
     267A      3.239005   268A      3.253530   269A      3.265912  
     270A      3.288586   271A      3.297941   272A      3.308292  
     273A      3.322899   274A      3.326560   275A      3.342628  
     276A      3.356316   277A      3.367217   278A      3.373325  
     279A      3.382879   280A      3.388783   281A      3.399901  
     282A      3.419421   283A      3.432768   284A      3.441256  
     285A      3.450507   286A      3.467098   287A      3.482944  
     288A      3.484051   289A      3.488780   290A      3.491594  
     291A      3.508755   292A      3.513113   293A      3.518810  
     294A      3.525254   295A      3.530407   296A      3.551922  
     297A      3.555417   298A      3.570016   299A      3.574502  
     300A      3.599621   301A      3.602994   302A      3.620085  
     303A      3.632772   304A      3.644847   305A      3.663061  
     306A      3.678562   307A      3.690150   308A      3.704695  
     309A      3.713563   310A      3.733531   311A      3.753666  
     312A      3.763132   313A      3.778119   314A      3.805908  
     315A      3.821159   316A      3.829314   317A      3.841832  
     318A      3.851345   319A      3.856341   320A      3.881848  
     321A      3.899082   322A      3.911206   323A      3.917666  
     324A      3.926414   325A      3.960969   326A      3.979232  
     327A      3.987017   328A      3.996118   329A      4.005913  
     330A      4.037879   331A      4.052251   332A      4.063735  
     333A      4.080127   334A      4.088974   335A      4.109320  
     336A      4.138535   337A      4.161055   338A      4.172757  
     339A      4.203890   340A      4.224034   341A      4.239287  
     342A      4.247037   343A      4.254745   344A      4.267129  
     345A      4.271459   346A      4.278359   347A      4.302820  
     348A      4.315395   349A      4.320924   350A      4.336484  
     351A      4.346698   352A      4.349524   353A      4.364843  
     354A      4.384651   355A      4.395027   356A      4.408885  
     357A      4.419444   358A      4.427488   359A      4.445017  
     360A      4.447359   361A      4.454239   362A      4.460120  
     363A      4.473819   364A      4.476957   365A      4.492428  
     366A      4.494994   367A      4.519848   368A      4.538477  
     369A      4.542313   370A      4.564249   371A      4.581667  
     372A      4.591446   373A      4.603585   374A      4.624974  
     375A      4.638341   376A      4.660897   377A      4.675839  
     378A      4.680354   379A      4.713367   380A      4.725436  
     381A      4.747736   382A      4.762835   383A      4.783471  
     384A      4.797705   385A      4.821580   386A      4.837764  
     387A      4.841841   388A      4.866723   389A      4.887492  
     390A      4.906076   391A      4.942954   392A      4.947877  
     393A      4.966326   394A      5.013228   395A      5.034088  
     396A      5.063533   397A      5.087361   398A      5.135916  
     399A      5.192303   400A      5.200657   401A      5.216424  
     402A      5.221881   403A      5.235699   404A      5.244033  
     405A      5.263270   406A      5.275993   407A      5.281767  
     408A      5.294162   409A      5.296360   410A      5.306611  
     411A      5.312401   412A      5.362501   413A      5.390771  
     414A      5.394705   415A      5.410574   416A      5.423548  
     417A      5.474503   418A      5.508023   419A      5.557615  
     420A      5.580186   421A      5.590914   422A      5.597024  
     423A      5.632958   424A      5.682414   425A      5.723942  
     426A      5.741281   427A      5.744936   428A      5.755745  
     429A      5.765543   430A      5.769909   431A      5.781997  
     432A      5.818422   433A      5.848895   434A      5.903476  
     435A      5.918639   436A      5.923506   437A      5.940058  
     438A      5.956708   439A      5.977965   440A      6.023315  
     441A      6.106338   442A      6.166328   443A      6.314361  
     444A      6.396806   445A      6.398489   446A      6.474487  
     447A      6.492053   448A      6.501604   449A      6.505586  
     450A      6.525270   451A      6.546082   452A      6.579847  
     453A      6.699321   454A      6.942948   455A      7.075886  
     456A      7.248550   457A      7.336682   458A      7.416201  
     459A      7.521444   460A      7.664524   461A      7.880714  
     462A      8.144153   463A     12.473764   464A     13.787383  
     465A     13.869966   466A     14.024430   467A     14.572550  
     468A     14.677874   469A     15.354288  

    Final Occupation by Irrep:
              A 
    DOCC [    29 ]

  @DF-RHF Final Energy:  -310.30795706667936

   => Energetics <=

    Nuclear Repulsion Energy =            308.8729473176452416
    One-Electron Energy =               -1032.3858559542968578
    Two-Electron Energy =                 413.2049515699723088
    Total Energy =                       -310.3079570666793643

Computation Completed


Properties will be evaluated at   0.000000,   0.000000,   0.000000 [a0]

Properties computed using the SCF density matrix

  Nuclear Dipole Moment: [e a0]
     X:    -0.1428      Y:    -0.8760      Z:    -2.8555

  Electronic Dipole Moment: [e a0]
     X:    -0.2257      Y:     1.0183      Z:     2.1588

  Dipole Moment: [e a0]
     X:    -0.3685      Y:     0.1424      Z:    -0.6968     Total:     0.8009

  Dipole Moment: [D]
     X:    -0.9365      Y:     0.3619      Z:    -1.7710     Total:     2.0358


*** tstop() called on r282 at Fri Sep 10 16:34:06 2021
Module time:
	user time   =      47.03 seconds =       0.78 minutes
	system time =       1.18 seconds =       0.02 minutes
	total time  =         49 seconds =       0.82 minutes
Total time:
	user time   =      47.03 seconds =       0.78 minutes
	system time =       1.18 seconds =       0.02 minutes
	total time  =         49 seconds =       0.82 minutes

  //>>>>>>>>>>>>>>>>>>>>>>>>>>>>>>>>>>>//
  //            Monomer A HF           //
  //<<<<<<<<<<<<<<<<<<<<<<<<<<<<<<<<<<<//


*** tstart() called on r282
*** at Fri Sep 10 16:34:06 2021

   => Loading Basis Set <=

    Name: JUN-CC-PVTZ
    Role: ORBITAL
    Keyword: BASIS
    atoms 1-2, 10-13 entry C          line   217 file /home/r08543048/miniconda3/share/psi4/basis/jun-cc-pvtz.gbs 
    atoms 3          entry O          line   305 file /home/r08543048/miniconda3/share/psi4/basis/jun-cc-pvtz.gbs 
    atoms 4-9, 14-21 entry H          line    36 file /home/r08543048/miniconda3/share/psi4/basis/jun-cc-pvtz.gbs 


         ---------------------------------------------------------
                                   SCF
               by Justin Turney, Rob Parrish, Andy Simmonett
                          and Daniel G. A. Smith
                              RHF Reference
                        1 Threads,  20980 MiB Core
         ---------------------------------------------------------

  ==> Geometry <==

    Molecular point group: c1
    Full point group: C1

    Geometry (in Angstrom), charge = 0, multiplicity = 1:

       Center              X                  Y                   Z               Mass       
    ------------   -----------------  -----------------  -----------------  -----------------
         C            2.709057577128     0.389728004015    -0.709098137644    12.000000000000
         C            1.981607577128    -0.777479995985    -0.068682137644    12.000000000000
         O            1.348225577128    -0.417166995985     1.154590862356    15.994914619570
         H            2.006780577128     1.181022004015    -0.973756137644     1.007825032230
         H            3.220550577128     0.071922004015    -1.618551137644     1.007825032230
         H            3.443909577128     0.800303004015    -0.018699137644     1.007825032230
         H            1.252065577128    -1.199175995985    -0.768282137644     1.007825032230
         H            2.684201577128    -1.568977995985     0.187923862356     1.007825032230
         H            0.658801577128     0.225349004015     0.936670862356     1.007825032230
      Gh(C)          -0.952165422872     1.877272004015     0.304311862356    12.000000000000
      Gh(C)          -1.357259422872     0.878604004015    -0.489274137644    12.000000000000
      Gh(C)          -2.366307422872    -0.158440995985    -0.111018137644    12.000000000000
      Gh(C)          -1.798626422872    -1.575341995985    -0.208887137644    12.000000000000
      Gh(H)          -0.219727422872     2.600678004015    -0.027067137644     1.007825032230
      Gh(H)          -1.360396422872     1.997048004015     1.300477862356     1.007825032230
      Gh(H)          -0.926920422872     0.794128004015    -1.484420137644     1.007825032230
      Gh(H)          -2.723428422872     0.036957004015     0.901866862356     1.007825032230
      Gh(H)          -3.228639422872    -0.072115995985    -0.777668137644     1.007825032230
      Gh(H)          -1.444499422872    -1.779007995985    -1.220297137644     1.007825032230
      Gh(H)          -0.961528422872    -1.704870995985     0.476523862356     1.007825032230
      Gh(H)          -2.560354422872    -2.315504995985     0.033350862356     1.007825032230

  Running in c1 symmetry.

  Rotational constants: A =      0.10123  B =      0.04074  C =      0.03426 [cm^-1]
  Rotational constants: A =   3034.66003  B =   1221.42180  C =   1026.95555 [MHz]
  Nuclear repulsion =   81.773313270879427

  Charge       = 0
  Multiplicity = 1
  Electrons    = 26
  Nalpha       = 13
  Nbeta        = 13

  ==> Algorithm <==

  SCF Algorithm Type is DF.
  DIIS enabled.
  MOM disabled.
  Fractional occupation disabled.
  Guess Type is SAD.
  Energy threshold   = 1.00e-08
  Density threshold  = 1.00e-08
  Integral threshold = 0.00e+00

  ==> Primary Basis <==

  Basis Set: JUN-CC-PVTZ
    Blend: JUN-CC-PVTZ
    Number of shells: 175
    Number of basis function: 469
    Number of Cartesian functions: 525
    Spherical Harmonics?: true
    Max angular momentum: 3

   => Loading Basis Set <=

    Name: (JUN-CC-PVTZ AUX)
    Role: JKFIT
    Keyword: DF_BASIS_SCF
    atoms 1-2, 10-13 entry C          line   152 file /home/r08543048/miniconda3/share/psi4/basis/jun-cc-pvtz-jkfit.gbs 
    atoms 3          entry O          line   272 file /home/r08543048/miniconda3/share/psi4/basis/jun-cc-pvtz-jkfit.gbs 
    atoms 4-9, 14-21 entry H          line    70 file /home/r08543048/miniconda3/share/psi4/basis/jun-cc-pvtz-jkfit.gbs 

  ==> Pre-Iterations <==

   -------------------------------------------------------
    Irrep   Nso     Nmo     Nalpha   Nbeta   Ndocc  Nsocc
   -------------------------------------------------------
     A        469     469       0       0       0       0
   -------------------------------------------------------
    Total     469     469      13      13      13       0
   -------------------------------------------------------

  ==> Integral Setup <==

  ==> DiskDFJK: Density-Fitted J/K Matrices <==

    J tasked:                  Yes
    K tasked:                  Yes
    wK tasked:                  No
    OpenMP threads:              1
    Integrals threads:           1
    Memory [MiB]:            15735
    Algorithm:                Core
    Integral Cache:           LOAD
    Schwarz Cutoff:          1E-12
    Fitting Condition:       1E-10

   => Auxiliary Basis Set <=

  Basis Set: (JUN-CC-PVTZ AUX)
    Blend: JUN-CC-PVTZ-JKFIT
    Number of shells: 343
    Number of basis function: 1085
    Number of Cartesian functions: 1302
    Spherical Harmonics?: true
    Max angular momentum: 4

  Minimum eigenvalue in the overlap matrix is 3.4183196011E-05.
  Using Symmetric Orthogonalization.

  SCF Guess: Superposition of Atomic Densities via on-the-fly atomic UHF.

  ==> Iterations <==

                           Total Energy        Delta E     RMS |[F,P]|

   @DF-RHF iter SAD:  -153.43393135198036   -1.53434e+02   0.00000e+00 
   @DF-RHF iter   1:  -154.01184180195798   -5.77910e-01   1.07012e-03 DIIS
   @DF-RHF iter   2:  -154.11609005511718   -1.04248e-01   5.70950e-04 DIIS
   @DF-RHF iter   3:  -154.14246892706987   -2.63789e-02   9.85497e-05 DIIS
   @DF-RHF iter   4:  -154.14401228742540   -1.54336e-03   3.74318e-05 DIIS
   @DF-RHF iter   5:  -154.14419837827336   -1.86091e-04   7.14289e-06 DIIS
   @DF-RHF iter   6:  -154.14420839262652   -1.00144e-05   1.62830e-06 DIIS
   @DF-RHF iter   7:  -154.14420910122070   -7.08594e-07   4.60222e-07 DIIS
   @DF-RHF iter   8:  -154.14420915367774   -5.24570e-08   1.48195e-07 DIIS
   @DF-RHF iter   9:  -154.14420915957442   -5.89668e-09   3.84784e-08 DIIS
   @DF-RHF iter  10:  -154.14420916000500   -4.30589e-10   7.79029e-09 DIIS
  Energy and wave function converged.


  ==> Post-Iterations <==

    Orbital Energies [Eh]
    ---------------------

    Doubly Occupied:                                                      

       1A    -20.556397     2A    -11.274215     3A    -11.217502  
       4A     -1.356268     5A     -1.013216     6A     -0.846777  
       7A     -0.687725     8A     -0.623303     9A     -0.604144  
      10A     -0.546805    11A     -0.526232    12A     -0.482414  
      13A     -0.443865  

    Virtual:                                                              

      14A      0.028244    15A      0.042836    16A      0.051165  
      17A      0.058903    18A      0.066006    19A      0.072185  
      20A      0.082996    21A      0.086268    22A      0.088540  
      23A      0.102110    24A      0.107726    25A      0.109429  
      26A      0.115350    27A      0.118678    28A      0.127870  
      29A      0.136235    30A      0.138631    31A      0.147577  
      32A      0.152322    33A      0.154319    34A      0.170309  
      35A      0.172937    36A      0.183107    37A      0.194766  
      38A      0.216832    39A      0.224769    40A      0.238874  
      41A      0.244254    42A      0.254028    43A      0.260944  
      44A      0.271835    45A      0.274978    46A      0.283285  
      47A      0.285744    48A      0.295365    49A      0.300989  
      50A      0.306171    51A      0.318765    52A      0.323898  
      53A      0.331052    54A      0.337712    55A      0.339294  
      56A      0.341707    57A      0.353443    58A      0.356281  
      59A      0.366452    60A      0.379007    61A      0.379564  
      62A      0.387442    63A      0.391842    64A      0.403990  
      65A      0.409400    66A      0.411776    67A      0.416064  
      68A      0.433350    69A      0.443036    70A      0.445177  
      71A      0.458431    72A      0.460680    73A      0.470272  
      74A      0.487151    75A      0.493613    76A      0.495768  
      77A      0.505193    78A      0.515786    79A      0.520903  
      80A      0.529504    81A      0.534908    82A      0.541503  
      83A      0.546654    84A      0.561118    85A      0.571030  
      86A      0.575812    87A      0.588507    88A      0.597914  
      89A      0.605307    90A      0.618494    91A      0.623499  
      92A      0.636627    93A      0.647097    94A      0.658515  
      95A      0.664329    96A      0.675134    97A      0.682607  
      98A      0.694539    99A      0.706632   100A      0.711416  
     101A      0.717382   102A      0.729439   103A      0.739791  
     104A      0.757804   105A      0.770105   106A      0.782140  
     107A      0.790559   108A      0.793287   109A      0.804618  
     110A      0.812986   111A      0.830458   112A      0.838078  
     113A      0.847924   114A      0.867132   115A      0.885243  
     116A      0.898242   117A      0.904019   118A      0.930305  
     119A      0.938690   120A      0.977093   121A      1.011680  
     122A      1.018323   123A      1.051182   124A      1.057987  
     125A      1.074115   126A      1.088799   127A      1.099299  
     128A      1.107137   129A      1.119279   130A      1.135016  
     131A      1.143795   132A      1.154289   133A      1.161089  
     134A      1.171820   135A      1.181108   136A      1.195878  
     137A      1.215395   138A      1.235306   139A      1.237965  
     140A      1.246993   141A      1.262073   142A      1.265522  
     143A      1.274786   144A      1.299174   145A      1.305355  
     146A      1.315628   147A      1.322023   148A      1.329276  
     149A      1.341465   150A      1.345252   151A      1.357951  
     152A      1.371041   153A      1.381884   154A      1.386554  
     155A      1.393611   156A      1.399078   157A      1.415209  
     158A      1.417060   159A      1.425708   160A      1.432218  
     161A      1.449053   162A      1.450147   163A      1.466128  
     164A      1.486115   165A      1.496624   166A      1.499001  
     167A      1.514563   168A      1.520380   169A      1.524301  
     170A      1.539643   171A      1.541187   172A      1.551695  
     173A      1.557387   174A      1.565112   175A      1.590126  
     176A      1.598624   177A      1.604286   178A      1.616239  
     179A      1.620243   180A      1.631179   181A      1.635214  
     182A      1.671808   183A      1.685189   184A      1.691350  
     185A      1.708405   186A      1.711453   187A      1.728260  
     188A      1.750628   189A      1.761027   190A      1.766762  
     191A      1.786898   192A      1.792966   193A      1.824007  
     194A      1.840960   195A      1.842839   196A      1.876679  
     197A      1.895779   198A      1.905803   199A      1.916255  
     200A      1.960200   201A      1.982537   202A      1.989457  
     203A      1.996929   204A      2.059811   205A      2.093766  
     206A      2.102454   207A      2.130022   208A      2.168866  
     209A      2.201254   210A      2.209735   211A      2.239476  
     212A      2.265827   213A      2.359817   214A      2.370878  
     215A      2.402361   216A      2.415987   217A      2.434563  
     218A      2.443044   219A      2.473367   220A      2.505298  
     221A      2.521965   222A      2.547545   223A      2.601200  
     224A      2.608780   225A      2.647821   226A      2.724761  
     227A      2.798595   228A      2.826703   229A      2.843371  
     230A      2.874163   231A      2.895936   232A      2.922086  
     233A      2.930450   234A      2.996884   235A      3.046668  
     236A      3.113155   237A      3.133785   238A      3.223894  
     239A      3.237263   240A      3.275169   241A      3.287936  
     242A      3.299993   243A      3.345693   244A      3.374165  
     245A      3.402512   246A      3.439595   247A      3.443762  
     248A      3.452629   249A      3.464053   250A      3.482553  
     251A      3.501143   252A      3.506841   253A      3.513385  
     254A      3.529496   255A      3.543701   256A      3.566438  
     257A      3.577586   258A      3.587628   259A      3.598481  
     260A      3.605398   261A      3.629745   262A      3.643305  
     263A      3.652948   264A      3.667502   265A      3.668547  
     266A      3.683085   267A      3.700926   268A      3.708160  
     269A      3.725611   270A      3.743698   271A      3.761643  
     272A      3.776991   273A      3.787452   274A      3.803824  
     275A      3.816260   276A      3.827894   277A      3.830091  
     278A      3.835731   279A      3.848558   280A      3.870503  
     281A      3.892220   282A      3.900929   283A      3.910699  
     284A      3.930313   285A      3.947002   286A      3.958688  
     287A      3.970020   288A      3.997365   289A      4.018577  
     290A      4.036099   291A      4.046456   292A      4.057726  
     293A      4.077242   294A      4.088997   295A      4.105264  
     296A      4.123201   297A      4.140070   298A      4.147784  
     299A      4.155083   300A      4.175025   301A      4.192594  
     302A      4.217486   303A      4.236236   304A      4.252900  
     305A      4.254923   306A      4.266949   307A      4.274118  
     308A      4.302680   309A      4.311974   310A      4.333277  
     311A      4.338647   312A      4.359911   313A      4.363660  
     314A      4.373101   315A      4.391969   316A      4.407098  
     317A      4.425810   318A      4.438322   319A      4.444189  
     320A      4.452583   321A      4.471010   322A      4.483441  
     323A      4.484844   324A      4.491028   325A      4.496071  
     326A      4.511422   327A      4.520006   328A      4.533488  
     329A      4.555375   330A      4.577955   331A      4.580797  
     332A      4.594526   333A      4.608029   334A      4.624446  
     335A      4.642808   336A      4.652459   337A      4.661384  
     338A      4.668515   339A      4.676425   340A      4.699429  
     341A      4.703005   342A      4.730939   343A      4.739192  
     344A      4.752215   345A      4.754334   346A      4.765298  
     347A      4.774040   348A      4.787638   349A      4.801878  
     350A      4.817250   351A      4.824834   352A      4.837969  
     353A      4.849808   354A      4.859312   355A      4.867921  
     356A      4.880007   357A      4.895687   358A      4.913853  
     359A      4.919512   360A      4.929794   361A      4.953337  
     362A      4.960095   363A      4.967411   364A      4.991328  
     365A      4.998510   366A      5.028043   367A      5.044449  
     368A      5.047974   369A      5.058811   370A      5.082292  
     371A      5.102147   372A      5.133007   373A      5.136112  
     374A      5.184111   375A      5.185980   376A      5.208781  
     377A      5.210715   378A      5.236780   379A      5.243534  
     380A      5.258752   381A      5.275276   382A      5.283789  
     383A      5.299327   384A      5.305105   385A      5.357757  
     386A      5.376166   387A      5.386572   388A      5.429061  
     389A      5.469383   390A      5.476049   391A      5.477730  
     392A      5.544929   393A      5.562746   394A      5.575740  
     395A      5.620944   396A      5.647731   397A      5.660486  
     398A      5.705289   399A      5.726991   400A      5.739635  
     401A      5.746180   402A      5.764075   403A      5.812164  
     404A      5.823347   405A      5.841674   406A      5.890793  
     407A      5.919856   408A      5.935052   409A      5.965625  
     410A      5.970453   411A      6.027149   412A      6.053756  
     413A      6.062976   414A      6.096069   415A      6.151896  
     416A      6.193418   417A      6.268769   418A      6.300562  
     419A      6.328991   420A      6.354083   421A      6.386769  
     422A      6.392302   423A      6.394350   424A      6.455819  
     425A      6.493204   426A      6.496365   427A      6.510909  
     428A      6.538935   429A      6.646378   430A      6.726465  
     431A      6.790044   432A      6.858533   433A      6.926258  
     434A      6.943655   435A      7.059611   436A      7.087480  
     437A      7.235663   438A      7.317311   439A      7.350781  
     440A      7.394901   441A      7.410068   442A      7.475591  
     443A      7.516139   444A      7.564071   445A      7.598496  
     446A      7.648840   447A      7.688778   448A      7.700615  
     449A      7.837361   450A      7.868497   451A      7.889059  
     452A      7.962049   453A      7.968987   454A      8.116547  
     455A      8.131321   456A      8.260642   457A      8.429607  
     458A      8.792158   459A      9.433438   460A      9.670065  
     461A      9.921473   462A     10.212002   463A     13.780133  
     464A     13.896827   465A     14.623990   466A     41.386648  
     467A     44.695473   468A     45.718193   469A     47.204495  

    Final Occupation by Irrep:
              A 
    DOCC [    13 ]

  @DF-RHF Final Energy:  -154.14420916000500

   => Energetics <=

    Nuclear Repulsion Energy =             81.7733132708794273
    One-Electron Energy =                -371.4773154245349929
    Two-Electron Energy =                 135.5597929936505466
    Total Energy =                       -154.1442091600050048

Computation Completed


Properties will be evaluated at   0.000000,   0.000000,   0.000000 [a0]

Properties computed using the SCF density matrix

  Nuclear Dipole Moment: [e a0]
     X:    98.6363      Y:   -11.6283      Z:     4.3754

  Electronic Dipole Moment: [e a0]
     X:   -98.7399      Y:    11.8772      Z:    -5.0512

  Dipole Moment: [e a0]
     X:    -0.1036      Y:     0.2489      Z:    -0.6758     Total:     0.7276

  Dipole Moment: [D]
     X:    -0.2633      Y:     0.6327      Z:    -1.7177     Total:     1.8494


*** tstop() called on r282 at Fri Sep 10 16:34:33 2021
Module time:
	user time   =      27.40 seconds =       0.46 minutes
	system time =       0.51 seconds =       0.01 minutes
	total time  =         27 seconds =       0.45 minutes
Total time:
	user time   =      74.43 seconds =       1.24 minutes
	system time =       1.69 seconds =       0.03 minutes
	total time  =         76 seconds =       1.27 minutes

  //>>>>>>>>>>>>>>>>>>>>>>>>>>>>>>>>>>>//
  //            Monomer B HF           //
  //<<<<<<<<<<<<<<<<<<<<<<<<<<<<<<<<<<<//


*** tstart() called on r282
*** at Fri Sep 10 16:34:33 2021

   => Loading Basis Set <=

    Name: JUN-CC-PVTZ
    Role: ORBITAL
    Keyword: BASIS
    atoms 1-2, 10-13 entry C          line   217 file /home/r08543048/miniconda3/share/psi4/basis/jun-cc-pvtz.gbs 
    atoms 3          entry O          line   305 file /home/r08543048/miniconda3/share/psi4/basis/jun-cc-pvtz.gbs 
    atoms 4-9, 14-21 entry H          line    36 file /home/r08543048/miniconda3/share/psi4/basis/jun-cc-pvtz.gbs 


         ---------------------------------------------------------
                                   SCF
               by Justin Turney, Rob Parrish, Andy Simmonett
                          and Daniel G. A. Smith
                              RHF Reference
                        1 Threads,  20980 MiB Core
         ---------------------------------------------------------

  ==> Geometry <==

    Molecular point group: c1
    Full point group: C1

    Geometry (in Angstrom), charge = 0, multiplicity = 1:

       Center              X                  Y                   Z               Mass       
    ------------   -----------------  -----------------  -----------------  -----------------
      Gh(C)           2.709057577128     0.389728004015    -0.709098137644    12.000000000000
      Gh(C)           1.981607577128    -0.777479995985    -0.068682137644    12.000000000000
      Gh(O)           1.348225577128    -0.417166995985     1.154590862356    15.994914619570
      Gh(H)           2.006780577128     1.181022004015    -0.973756137644     1.007825032230
      Gh(H)           3.220550577128     0.071922004015    -1.618551137644     1.007825032230
      Gh(H)           3.443909577128     0.800303004015    -0.018699137644     1.007825032230
      Gh(H)           1.252065577128    -1.199175995985    -0.768282137644     1.007825032230
      Gh(H)           2.684201577128    -1.568977995985     0.187923862356     1.007825032230
      Gh(H)           0.658801577128     0.225349004015     0.936670862356     1.007825032230
         C           -0.952165422872     1.877272004015     0.304311862356    12.000000000000
         C           -1.357259422872     0.878604004015    -0.489274137644    12.000000000000
         C           -2.366307422872    -0.158440995985    -0.111018137644    12.000000000000
         C           -1.798626422872    -1.575341995985    -0.208887137644    12.000000000000
         H           -0.219727422872     2.600678004015    -0.027067137644     1.007825032230
         H           -1.360396422872     1.997048004015     1.300477862356     1.007825032230
         H           -0.926920422872     0.794128004015    -1.484420137644     1.007825032230
         H           -2.723428422872     0.036957004015     0.901866862356     1.007825032230
         H           -3.228639422872    -0.072115995985    -0.777668137644     1.007825032230
         H           -1.444499422872    -1.779007995985    -1.220297137644     1.007825032230
         H           -0.961528422872    -1.704870995985     0.476523862356     1.007825032230
         H           -2.560354422872    -2.315504995985     0.033350862356     1.007825032230

  Running in c1 symmetry.

  Rotational constants: A =      0.10123  B =      0.04074  C =      0.03426 [cm^-1]
  Rotational constants: A =   3034.66003  B =   1221.42180  C =   1026.95555 [MHz]
  Nuclear repulsion =  117.330548222568765

  Charge       = 0
  Multiplicity = 1
  Electrons    = 32
  Nalpha       = 16
  Nbeta        = 16

  ==> Algorithm <==

  SCF Algorithm Type is DF.
  DIIS enabled.
  MOM disabled.
  Fractional occupation disabled.
  Guess Type is SAD.
  Energy threshold   = 1.00e-08
  Density threshold  = 1.00e-08
  Integral threshold = 0.00e+00

  ==> Primary Basis <==

  Basis Set: JUN-CC-PVTZ
    Blend: JUN-CC-PVTZ
    Number of shells: 175
    Number of basis function: 469
    Number of Cartesian functions: 525
    Spherical Harmonics?: true
    Max angular momentum: 3

   => Loading Basis Set <=

    Name: (JUN-CC-PVTZ AUX)
    Role: JKFIT
    Keyword: DF_BASIS_SCF
    atoms 1-2, 10-13 entry C          line   152 file /home/r08543048/miniconda3/share/psi4/basis/jun-cc-pvtz-jkfit.gbs 
    atoms 3          entry O          line   272 file /home/r08543048/miniconda3/share/psi4/basis/jun-cc-pvtz-jkfit.gbs 
    atoms 4-9, 14-21 entry H          line    70 file /home/r08543048/miniconda3/share/psi4/basis/jun-cc-pvtz-jkfit.gbs 

  ==> Pre-Iterations <==

   -------------------------------------------------------
    Irrep   Nso     Nmo     Nalpha   Nbeta   Ndocc  Nsocc
   -------------------------------------------------------
     A        469     469       0       0       0       0
   -------------------------------------------------------
    Total     469     469      16      16      16       0
   -------------------------------------------------------

  ==> Integral Setup <==

  ==> DiskDFJK: Density-Fitted J/K Matrices <==

    J tasked:                  Yes
    K tasked:                  Yes
    wK tasked:                  No
    OpenMP threads:              1
    Integrals threads:           1
    Memory [MiB]:            15735
    Algorithm:                Core
    Integral Cache:           LOAD
    Schwarz Cutoff:          1E-12
    Fitting Condition:       1E-10

   => Auxiliary Basis Set <=

  Basis Set: (JUN-CC-PVTZ AUX)
    Blend: JUN-CC-PVTZ-JKFIT
    Number of shells: 343
    Number of basis function: 1085
    Number of Cartesian functions: 1302
    Spherical Harmonics?: true
    Max angular momentum: 4

  Minimum eigenvalue in the overlap matrix is 3.4183196011E-05.
  Using Symmetric Orthogonalization.

  SCF Guess: Superposition of Atomic Densities via on-the-fly atomic UHF.

  ==> Iterations <==

                           Total Energy        Delta E     RMS |[F,P]|

   @DF-RHF iter SAD:  -155.37793084203801   -1.55378e+02   0.00000e+00 
   @DF-RHF iter   1:  -155.99505198168356   -6.17121e-01   1.11281e-03 DIIS
   @DF-RHF iter   2:  -156.13471360622930   -1.39662e-01   4.91250e-04 DIIS
   @DF-RHF iter   3:  -156.16240761502846   -2.76940e-02   9.50031e-05 DIIS
   @DF-RHF iter   4:  -156.16424389048564   -1.83628e-03   3.52237e-05 DIIS
   @DF-RHF iter   5:  -156.16441106517559   -1.67175e-04   6.59097e-06 DIIS
   @DF-RHF iter   6:  -156.16441990414924   -8.83897e-06   1.19247e-06 DIIS
   @DF-RHF iter   7:  -156.16442025452369   -3.50374e-07   3.30745e-07 DIIS
   @DF-RHF iter   8:  -156.16442028159076   -2.70671e-08   9.90182e-08 DIIS
   @DF-RHF iter   9:  -156.16442028438587   -2.79510e-09   4.26633e-08 DIIS
   @DF-RHF iter  10:  -156.16442028494959   -5.63716e-10   1.34438e-08 DIIS
   @DF-RHF iter  11:  -156.16442028500822   -5.86340e-11   3.37059e-09 DIIS
  Energy and wave function converged.


  ==> Post-Iterations <==

    Orbital Energies [Eh]
    ---------------------

    Doubly Occupied:                                                      

       1A    -11.231725     2A    -11.224958     3A    -11.217891  
       4A    -11.214801     5A     -1.080538     6A     -0.988070  
       7A     -0.856189     8A     -0.755640     9A     -0.642572  
      10A     -0.606443    11A     -0.586478    12A     -0.534498  
      13A     -0.517805    14A     -0.487452    15A     -0.476959  
      16A     -0.356712  

    Virtual:                                                              

      17A      0.038710    18A      0.050579    19A      0.054796  
      20A      0.059263    21A      0.070345    22A      0.073186  
      23A      0.078698    24A      0.086149    25A      0.092860  
      26A      0.102545    27A      0.110899    28A      0.114197  
      29A      0.116438    30A      0.119277    31A      0.129522  
      32A      0.136338    33A      0.142568    34A      0.152430  
      35A      0.163213    36A      0.169071    37A      0.173914  
      38A      0.184068    39A      0.184585    40A      0.193231  
      41A      0.212518    42A      0.216554    43A      0.226351  
      44A      0.229951    45A      0.245664    46A      0.250181  
      47A      0.271066    48A      0.277958    49A      0.282478  
      50A      0.294371    51A      0.299378    52A      0.304076  
      53A      0.310502    54A      0.323615    55A      0.325985  
      56A      0.335367    57A      0.339538    58A      0.342582  
      59A      0.347959    60A      0.354470    61A      0.357267  
      62A      0.363379    63A      0.371659    64A      0.374032  
      65A      0.381070    66A      0.392156    67A      0.403880  
      68A      0.408228    69A      0.409830    70A      0.418148  
      71A      0.437025    72A      0.443043    73A      0.448936  
      74A      0.450714    75A      0.457116    76A      0.471589  
      77A      0.481282    78A      0.486116    79A      0.493172  
      80A      0.503518    81A      0.509754    82A      0.515251  
      83A      0.528497    84A      0.530967    85A      0.540242  
      86A      0.545145    87A      0.549172    88A      0.560930  
      89A      0.574460    90A      0.577410    91A      0.585600  
      92A      0.587891    93A      0.609945    94A      0.625803  
      95A      0.642582    96A      0.650059    97A      0.663066  
      98A      0.674443    99A      0.680904   100A      0.687694  
     101A      0.713405   102A      0.723857   103A      0.735154  
     104A      0.746784   105A      0.757914   106A      0.767396  
     107A      0.770258   108A      0.783416   109A      0.795577  
     110A      0.807489   111A      0.810835   112A      0.821778  
     113A      0.833163   114A      0.835458   115A      0.863898  
     116A      0.873947   117A      0.882631   118A      0.902831  
     119A      0.911168   120A      0.917711   121A      0.929443  
     122A      0.942546   123A      0.956042   124A      0.976608  
     125A      0.987494   126A      0.996987   127A      1.018825  
     128A      1.023300   129A      1.032884   130A      1.047745  
     131A      1.050725   132A      1.060533   133A      1.067349  
     134A      1.083607   135A      1.092011   136A      1.118229  
     137A      1.119862   138A      1.144533   139A      1.150880  
     140A      1.158781   141A      1.168872   142A      1.177273  
     143A      1.183780   144A      1.196974   145A      1.202930  
     146A      1.225378   147A      1.233082   148A      1.247595  
     149A      1.261197   150A      1.272795   151A      1.284129  
     152A      1.299961   153A      1.304448   154A      1.315587  
     155A      1.338011   156A      1.348795   157A      1.357619  
     158A      1.366890   159A      1.380739   160A      1.389176  
     161A      1.399205   162A      1.408073   163A      1.408660  
     164A      1.424481   165A      1.443486   166A      1.471089  
     167A      1.477229   168A      1.486593   169A      1.496140  
     170A      1.510494   171A      1.522014   172A      1.537503  
     173A      1.557564   174A      1.565183   175A      1.575971  
     176A      1.580401   177A      1.582710   178A      1.588634  
     179A      1.598605   180A      1.621758   181A      1.640650  
     182A      1.649970   183A      1.656389   184A      1.662943  
     185A      1.674672   186A      1.682274   187A      1.685671  
     188A      1.703735   189A      1.726910   190A      1.738661  
     191A      1.747461   192A      1.768518   193A      1.768893  
     194A      1.805209   195A      1.811062   196A      1.817954  
     197A      1.840134   198A      1.860746   199A      1.861572  
     200A      1.894840   201A      1.922892   202A      1.955650  
     203A      1.956317   204A      1.981413   205A      1.991558  
     206A      2.007477   207A      2.030395   208A      2.054401  
     209A      2.091034   210A      2.116132   211A      2.143416  
     212A      2.153195   213A      2.260221   214A      2.263034  
     215A      2.349965   216A      2.371456   217A      2.432599  
     218A      2.506153   219A      2.543755   220A      2.642311  
     221A      2.671482   222A      2.735210   223A      2.759065  
     224A      2.778418   225A      2.782581   226A      2.809265  
     227A      2.822524   228A      2.866701   229A      2.868517  
     230A      2.888630   231A      2.906639   232A      2.917548  
     233A      2.923639   234A      2.955595   235A      2.974812  
     236A      2.984392   237A      2.994087   238A      3.018511  
     239A      3.051790   240A      3.062650   241A      3.073184  
     242A      3.092769   243A      3.115539   244A      3.139870  
     245A      3.144887   246A      3.170022   247A      3.184980  
     248A      3.196640   249A      3.217244   250A      3.229968  
     251A      3.261433   252A      3.288374   253A      3.307236  
     254A      3.334378   255A      3.339010   256A      3.361255  
     257A      3.369329   258A      3.396747   259A      3.403994  
     260A      3.418573   261A      3.422349   262A      3.450091  
     263A      3.462418   264A      3.466909   265A      3.495346  
     266A      3.507740   267A      3.520115   268A      3.520767  
     269A      3.527327   270A      3.546050   271A      3.562074  
     272A      3.567739   273A      3.578063   274A      3.589699  
     275A      3.601136   276A      3.611201   277A      3.623369  
     278A      3.640099   279A      3.653275   280A      3.656739  
     281A      3.686273   282A      3.707074   283A      3.717565  
     284A      3.728058   285A      3.746569   286A      3.757557  
     287A      3.784327   288A      3.801380   289A      3.819154  
     290A      3.826630   291A      3.834957   292A      3.848520  
     293A      3.861386   294A      3.871107   295A      3.889095  
     296A      3.903010   297A      3.914052   298A      3.936497  
     299A      3.945954   300A      3.966041   301A      3.978855  
     302A      3.999965   303A      4.009356   304A      4.032505  
     305A      4.051610   306A      4.068955   307A      4.074770  
     308A      4.109877   309A      4.119546   310A      4.136126  
     311A      4.139397   312A      4.179932   313A      4.192171  
     314A      4.215526   315A      4.223795   316A      4.250421  
     317A      4.269626   318A      4.276601   319A      4.283566  
     320A      4.298355   321A      4.318157   322A      4.334780  
     323A      4.343383   324A      4.352802   325A      4.360467  
     326A      4.369708   327A      4.385339   328A      4.398388  
     329A      4.420868   330A      4.425368   331A      4.438769  
     332A      4.448968   333A      4.460668   334A      4.478951  
     335A      4.490668   336A      4.494132   337A      4.502821  
     338A      4.518786   339A      4.527719   340A      4.551943  
     341A      4.560832   342A      4.565460   343A      4.590803  
     344A      4.616914   345A      4.621238   346A      4.635637  
     347A      4.646958   348A      4.653565   349A      4.678922  
     350A      4.693010   351A      4.716092   352A      4.741191  
     353A      4.749386   354A      4.757124   355A      4.768448  
     356A      4.772438   357A      4.786688   358A      4.797980  
     359A      4.813988   360A      4.816728   361A      4.830040  
     362A      4.835879   363A      4.842088   364A      4.857096  
     365A      4.879343   366A      4.904844   367A      4.912212  
     368A      4.917618   369A      4.933527   370A      4.950152  
     371A      4.957357   372A      4.969785   373A      4.984577  
     374A      5.002442   375A      5.029046   376A      5.046184  
     377A      5.069468   378A      5.092545   379A      5.093956  
     380A      5.107854   381A      5.119835   382A      5.159929  
     383A      5.186010   384A      5.211770   385A      5.228049  
     386A      5.244737   387A      5.266828   388A      5.278211  
     389A      5.286154   390A      5.296435   391A      5.307451  
     392A      5.340366   393A      5.348339   394A      5.381589  
     395A      5.403378   396A      5.417512   397A      5.432032  
     398A      5.453597   399A      5.520552   400A      5.556983  
     401A      5.598377   402A      5.606307   403A      5.631913  
     404A      5.683226   405A      5.718225   406A      5.731637  
     407A      5.750431   408A      5.765025   409A      5.770621  
     410A      5.779330   411A      5.816498   412A      5.832539  
     413A      5.901274   414A      5.911318   415A      5.923492  
     416A      5.957061   417A      6.024190   418A      6.032464  
     419A      6.078661   420A      6.157802   421A      6.169534  
     422A      6.203468   423A      6.288128   424A      6.329400  
     425A      6.355802   426A      6.408774   427A      6.451446  
     428A      6.474438   429A      6.487286   430A      6.504688  
     431A      6.522044   432A      6.589039   433A      6.711374  
     434A      6.741182   435A      6.856944   436A      7.001231  
     437A      7.154746   438A      7.328678   439A      7.399911  
     440A      7.471201   441A      7.574354   442A      7.605734  
     443A      7.667326   444A      7.704953   445A      7.809399  
     446A      7.866635   447A      7.975750   448A      8.005330  
     449A      8.301062   450A      8.364080   451A      8.556068  
     452A      9.523621   453A      9.704059   454A      9.838613  
     455A      9.900702   456A     10.022227   457A     10.172270  
     458A     10.343300   459A     11.269361   460A     11.688505  
     461A     12.480385   462A     12.801002   463A     13.636100  
     464A     14.004842   465A     14.620893   466A     15.369516  
     467A     44.245675   468A     45.566282   469A     61.432339  

    Final Occupation by Irrep:
              A 
    DOCC [    16 ]

  @DF-RHF Final Energy:  -156.16442028500822

   => Energetics <=

    Nuclear Repulsion Energy =            117.3305482225687655
    One-Electron Energy =                -441.4324726257722773
    Two-Electron Energy =                 167.9375041181952781
    Total Energy =                       -156.1644202850082195

Computation Completed


Properties will be evaluated at   0.000000,   0.000000,   0.000000 [a0]

Properties computed using the SCF density matrix

  Nuclear Dipole Moment: [e a0]
     X:   -98.7791      Y:    10.7523      Z:    -7.2309

  Electronic Dipole Moment: [e a0]
     X:    98.6823      Y:   -10.8932      Z:     7.1924

  Dipole Moment: [e a0]
     X:    -0.0968      Y:    -0.1409      Z:    -0.0385     Total:     0.1752

  Dipole Moment: [D]
     X:    -0.2459      Y:    -0.3581      Z:    -0.0979     Total:     0.4453


*** tstop() called on r282 at Fri Sep 10 16:35:04 2021
Module time:
	user time   =      30.14 seconds =       0.50 minutes
	system time =       0.58 seconds =       0.01 minutes
	total time  =         31 seconds =       0.52 minutes
Total time:
	user time   =     104.57 seconds =       1.74 minutes
	system time =       2.27 seconds =       0.04 minutes
	total time  =        107 seconds =       1.78 minutes
  Constructing Basis Sets for SAPT...

   => Loading Basis Set <=

    Name: (JUN-CC-PVTZ AUX)
    Role: RIFIT
    Keyword: DF_BASIS_SAPT
    atoms 1-2, 10-13 entry C          line   132 file /home/r08543048/miniconda3/share/psi4/basis/jun-cc-pvtz-ri.gbs 
    atoms 3          entry O          line   244 file /home/r08543048/miniconda3/share/psi4/basis/jun-cc-pvtz-ri.gbs 
    atoms 4-9, 14-21 entry H          line    30 file /home/r08543048/miniconda3/share/psi4/basis/jun-cc-pvtz-ri.gbs 


  //>>>>>>>>>>>>>>>>>>>>>>>>>>>>>>>>>>>//
  //               SAPT0               //
  //<<<<<<<<<<<<<<<<<<<<<<<<<<<<<<<<<<<//


*** tstart() called on r282
*** at Fri Sep 10 16:35:04 2021

        SAPT0  
    Ed Hohenstein
     6 June 2009

      Orbital Information
  --------------------------
    NSO        =       469
    NMO        =       469
    NRI        =      1099
    NOCC A     =        13
    NOCC B     =        16
    FOCC A     =         0
    FOCC B     =         0
    NVIR A     =       456
    NVIR B     =       453

    Elst10,r            =    -0.009113869135 [Eh]
    Exch10              =     0.012802383397 [Eh]
    Exch10 (S^2)        =     0.012714780001 [Eh]

    Iter     Energy [mEh]          dE [mEh]         Residual      Time [s]
       1      -0.67987312       0.679873118       3.745275021             0
       2      -0.78735552       0.107482405       1.120914165             1
       3      -0.80025874       0.012903212       0.256041997             2
       4      -0.79795876      -0.002299973       0.104140984             3
       5      -0.79730619      -0.000652573       0.019366578             3
       6      -0.79753671       0.000230522       0.004561831             4
       7      -0.79752514      -0.000011571       0.001896333             5
       8      -0.79751676      -0.000008378       0.000608900             6
       9      -0.79751746       0.000000697       0.000207363             6
      10      -0.79751826       0.000000798       0.000062042             7
      11      -0.79751824      -0.000000015       0.000015797             8
      12      -0.79751818      -0.000000067       0.000003531             9
      13      -0.79751819       0.000000010       0.000000835             9

    CHF Iterations converged


    Iter     Energy [mEh]          dE [mEh]         Residual      Time [s]
       1      -4.29260762       4.292607620      11.049789987             1
       2      -5.44912897       1.156521351       3.991543100             2
       3      -5.55016582       0.101036850       1.015520569             3
       4      -5.51921187      -0.030953950       0.314256084             4
       5      -5.51534422      -0.003867655       0.104842130             4
       6      -5.51721882       0.001874608       0.040954377             5
       7      -5.51766093       0.000442102       0.013912743             6
       8      -5.51737911      -0.000281816       0.003178439             7
       9      -5.51738541       0.000006301       0.000722040             8
      10      -5.51739448       0.000009072       0.000203094             8
      11      -5.51739359      -0.000000892       0.000060398             9
      12      -5.51739300      -0.000000595       0.000014951            10
      13      -5.51739305       0.000000050       0.000003739            11
      14      -5.51739308       0.000000036       0.000001000            11
      15      -5.51739307      -0.000000010       0.000000278            12

    CHF Iterations converged

    Ind20,r (A<-B)      =    -0.000797518185 [Eh]
    Ind20,r (B<-A)      =    -0.005517393072 [Eh]
    Ind20,r             =    -0.006314911258 [Eh]
    Exch-Ind20,r (A<-B) =     0.000606781807 [Eh]
    Exch-Ind20,r (B<-A) =     0.004117190006 [Eh]
    Exch-Ind20,r        =     0.004723971813 [Eh]
    Disp20              =    -0.009603941312 [Eh]
    Disp20 (SS)         =    -0.004801970656 [Eh]
    Disp20 (OS)         =    -0.004801970656 [Eh]
    Exch-Disp20         =     0.001327668878 [Eh]
    Exch-Disp20 (SS)    =     0.000860448657 [Eh]
    Exch-Disp20 (OS)    =     0.000467220221 [Eh]

    SAPT Results 
  --------------------------------------------------------------------------------------------------------
    Electrostatics                 -9.11386913 [mEh]      -5.71903922 [kcal/mol]     -23.92846012 [kJ/mol]
      Elst10,r                     -9.11386913 [mEh]      -5.71903922 [kcal/mol]     -23.92846012 [kJ/mol]

    Exchange                       12.80238340 [mEh]       8.03361687 [kcal/mol]      33.61265298 [kJ/mol]
      Exch10                       12.80238340 [mEh]       8.03361687 [kcal/mol]      33.61265298 [kJ/mol]
      Exch10(S^2)                  12.71478000 [mEh]       7.97864491 [kcal/mol]      33.38265029 [kJ/mol]

    Induction                      -3.01613593 [mEh]      -1.89265387 [kcal/mol]      -7.91886379 [kJ/mol]
      Ind20,r                      -6.31491126 [mEh]      -3.96266664 [kcal/mol]     -16.57979722 [kJ/mol]
      Exch-Ind20,r                  4.72397181 [mEh]       2.96433707 [kcal/mol]      12.40278629 [kJ/mol]
      delta HF,r (2)               -1.42519648 [mEh]      -0.89432430 [kcal/mol]      -3.74185285 [kJ/mol]

    Dispersion                     -8.27627243 [mEh]      -5.19343936 [kcal/mol]     -21.72935028 [kJ/mol]
      Disp20                       -9.60394131 [mEh]      -6.02656416 [kcal/mol]     -25.21514444 [kJ/mol]
      Exch-Disp20                   1.32766888 [mEh]       0.83312480 [kcal/mol]       3.48579416 [kJ/mol]
      Disp20 (SS)                  -4.80197066 [mEh]      -3.01328208 [kcal/mol]     -12.60757222 [kJ/mol]
      Disp20 (OS)                  -4.80197066 [mEh]      -3.01328208 [kcal/mol]     -12.60757222 [kJ/mol]
      Exch-Disp20 (SS)              0.86044866 [mEh]       0.53993968 [kcal/mol]       2.25910764 [kJ/mol]
      Exch-Disp20 (OS)              0.46722022 [mEh]       0.29318512 [kcal/mol]       1.22668652 [kJ/mol]

  Total HF                          0.67237833 [mEh]       0.42192377 [kcal/mol]       1.76532907 [kJ/mol]
  Total SAPT0                      -7.60389410 [mEh]      -4.77151559 [kcal/mol]     -19.96402121 [kJ/mol]

  Special recipe for scaled SAPT0 (see Manual):
    Electrostatics sSAPT0          -9.11386913 [mEh]      -5.71903922 [kcal/mol]     -23.92846012 [kJ/mol]
    Exchange sSAPT0                12.80238340 [mEh]       8.03361687 [kcal/mol]      33.61265298 [kJ/mol]
    Induction sSAPT0               -2.91781874 [mEh]      -1.83095890 [kcal/mol]      -7.66073205 [kJ/mol]
    Dispersion sSAPT0              -8.24864046 [mEh]      -5.17610003 [kcal/mol]     -21.65680254 [kJ/mol]
  Total sSAPT0                     -7.47794494 [mEh]      -4.69248129 [kcal/mol]     -19.63334173 [kJ/mol]
  --------------------------------------------------------------------------------------------------------

*** tstop() called on r282 at Fri Sep 10 16:36:38 2021
Module time:
	user time   =      77.78 seconds =       1.30 minutes
	system time =      14.28 seconds =       0.24 minutes
	total time  =         94 seconds =       1.57 minutes
Total time:
	user time   =     182.49 seconds =       3.04 minutes
	system time =      16.55 seconds =       0.28 minutes
	total time  =        201 seconds =       3.35 minutes

    Psi4 stopped on: Friday, 10 September 2021 04:36PM
    Psi4 wall time for execution: 0:03:20.40

*** Psi4 exiting successfully. Buy a developer a beer!
