
    -----------------------------------------------------------------------
          Psi4: An Open-Source Ab Initio Electronic Structure Package
                               Psi4 1.3.2 release

                         Git: Rev {HEAD} ecbda83 


    R. M. Parrish, L. A. Burns, D. G. A. Smith, A. C. Simmonett,
    A. E. DePrince III, E. G. Hohenstein, U. Bozkaya, A. Yu. Sokolov,
    R. Di Remigio, R. M. Richard, J. F. Gonthier, A. M. James,
    H. R. McAlexander, A. Kumar, M. Saitow, X. Wang, B. P. Pritchard,
    P. Verma, H. F. Schaefer III, K. Patkowski, R. A. King, E. F. Valeev,
    F. A. Evangelista, J. M. Turney, T. D. Crawford, and C. D. Sherrill,
    J. Chem. Theory Comput. 13(7) pp 3185--3197 (2017).
    (doi: 10.1021/acs.jctc.7b00174)


                         Additional Contributions by
    P. Kraus, H. Kruse, M. H. Lechner, M. C. Schieber, R. A. Shaw,
    A. Alenaizan, R. Galvelis, Z. L. Glick, S. Lehtola, and J. P. Misiewicz

    -----------------------------------------------------------------------


    Psi4 started on: Friday, 10 September 2021 04:20PM

    Process ID: 56842
    Host:       r282
    PSIDATADIR: /home/r08543048/miniconda3/share/psi4
    Memory:     500.0 MiB
    Threads:    1
    
  ==> Input File <==

--------------------------------------------------------------------------
# Any line starting with the # character is a comment line
#! Sample  computation

memory 22 gb

molecule Dimer {
0 1
 C -2.252448   -0.142485   -0.711092
 C -2.116278   -0.781791    0.661770
 H -1.448923   -0.513934   -1.353787
 H -3.191212   -0.482878   -1.156183
 O -0.897788   -0.433360    1.312681
 H -2.910877   -0.426688    1.319202
 H -2.211351   -1.869551    0.581864
 H -0.173756   -0.756510    0.757920
 C -2.215016    1.378784   -0.652814
 H -2.301834    1.816139   -1.646926
 H -3.036713    1.759399   -0.044591
 H -1.284005    1.722853   -0.205572




    
    
 --
0 1
 C   1.555588   -1.822020   -0.466532
 C   1.799183   -0.540940   -0.768490
 C   2.650706    0.383847    0.041607
 C   1.885926    1.635165    0.476926
 H   0.931313   -2.440643   -1.097192
 H   1.990451   -2.279624    0.413627
 H   1.345024   -0.119257   -1.661884
 H   3.036152   -0.148387    0.913344
 H   3.514038    0.684035   -0.558586
 H   1.501780    2.171746   -0.391615
 H   1.040087    1.373759    1.111996
 H   2.536165    2.313060    1.028684
   
   





units angstrom

no_reorient
symmetry c1
}

set globals{
  basis jun-cc-pvtz
}

energy('sapt0')


--------------------------------------------------------------------------

  Memory set to  20.489 GiB by Python driver.

  //>>>>>>>>>>>>>>>>>>>>>>>>>>>>>>>>>>>//
  //              Dimer HF             //
  //<<<<<<<<<<<<<<<<<<<<<<<<<<<<<<<<<<<//


*** tstart() called on r282
*** at Fri Sep 10 16:20:17 2021

   => Loading Basis Set <=

    Name: JUN-CC-PVTZ
    Role: ORBITAL
    Keyword: BASIS
    atoms 1-2, 9, 13-16          entry C          line   217 file /home/r08543048/miniconda3/share/psi4/basis/jun-cc-pvtz.gbs 
    atoms 3-4, 6-8, 10-12, 17-24 entry H          line    36 file /home/r08543048/miniconda3/share/psi4/basis/jun-cc-pvtz.gbs 
    atoms 5                      entry O          line   305 file /home/r08543048/miniconda3/share/psi4/basis/jun-cc-pvtz.gbs 


         ---------------------------------------------------------
                                   SCF
               by Justin Turney, Rob Parrish, Andy Simmonett
                          and Daniel G. A. Smith
                              RHF Reference
                        1 Threads,  20980 MiB Core
         ---------------------------------------------------------

  ==> Geometry <==

    Molecular point group: c1
    Full point group: C1

    Geometry (in Angstrom), charge = 0, multiplicity = 1:

       Center              X                  Y                   Z               Mass       
    ------------   -----------------  -----------------  -----------------  -----------------
         C           -2.258157910157    -0.118549615766    -0.728035249295    12.000000000000
         C           -2.121987910157    -0.757855615766     0.644826750705    12.000000000000
         H           -1.454632910157    -0.489998615766    -1.370730249295     1.007825032230
         H           -3.196921910157    -0.458942615766    -1.173126249295     1.007825032230
         O           -0.903497910157    -0.409424615766     1.295737750705    15.994914619570
         H           -2.916586910157    -0.402752615766     1.302258750705     1.007825032230
         H           -2.217060910157    -1.845615615766     0.564920750705     1.007825032230
         H           -0.179465910157    -0.732574615766     0.740976750705     1.007825032230
         C           -2.220725910157     1.402719384234    -0.669757249295    12.000000000000
         H           -2.307543910157     1.840074384234    -1.663869249295     1.007825032230
         H           -3.042422910157     1.783334384234    -0.061534249295     1.007825032230
         H           -1.289714910157     1.746788384234    -0.222515249295     1.007825032230
         C            1.549878089843    -1.798084615766    -0.483475249295    12.000000000000
         C            1.793473089843    -0.517004615766    -0.785433249295    12.000000000000
         C            2.644996089843     0.407782384234     0.024663750705    12.000000000000
         C            1.880216089843     1.659100384234     0.459982750705    12.000000000000
         H            0.925603089843    -2.416707615766    -1.114135249295     1.007825032230
         H            1.984741089843    -2.255688615766     0.396683750705     1.007825032230
         H            1.339314089843    -0.095321615766    -1.678827249295     1.007825032230
         H            3.030442089843    -0.124451615766     0.896400750705     1.007825032230
         H            3.508328089843     0.707970384234    -0.575529249295     1.007825032230
         H            1.496070089843     2.195681384234    -0.408558249295     1.007825032230
         H            1.034377089843     1.397694384234     1.095052750705     1.007825032230
         H            2.530455089843     2.336995384234     1.011740750705     1.007825032230

  Running in c1 symmetry.

  Rotational constants: A =      0.07618  B =      0.03153  C =      0.02762 [cm^-1]
  Rotational constants: A =   2283.74362  B =    945.38871  C =    828.01052 [MHz]
  Nuclear repulsion =  386.214403197021056

  Charge       = 0
  Multiplicity = 1
  Electrons    = 66
  Nalpha       = 33
  Nbeta        = 33

  ==> Algorithm <==

  SCF Algorithm Type is DF.
  DIIS enabled.
  MOM disabled.
  Fractional occupation disabled.
  Guess Type is SAD.
  Energy threshold   = 1.00e-08
  Density threshold  = 1.00e-08
  Integral threshold = 0.00e+00

  ==> Primary Basis <==

  Basis Set: JUN-CC-PVTZ
    Blend: JUN-CC-PVTZ
    Number of shells: 200
    Number of basis function: 536
    Number of Cartesian functions: 600
    Spherical Harmonics?: true
    Max angular momentum: 3

   => Loading Basis Set <=

    Name: (JUN-CC-PVTZ AUX)
    Role: JKFIT
    Keyword: DF_BASIS_SCF
    atoms 1-2, 9, 13-16          entry C          line   152 file /home/r08543048/miniconda3/share/psi4/basis/jun-cc-pvtz-jkfit.gbs 
    atoms 3-4, 6-8, 10-12, 17-24 entry H          line    70 file /home/r08543048/miniconda3/share/psi4/basis/jun-cc-pvtz-jkfit.gbs 
    atoms 5                      entry O          line   272 file /home/r08543048/miniconda3/share/psi4/basis/jun-cc-pvtz-jkfit.gbs 

  ==> Pre-Iterations <==

   -------------------------------------------------------
    Irrep   Nso     Nmo     Nalpha   Nbeta   Ndocc  Nsocc
   -------------------------------------------------------
     A        536     536       0       0       0       0
   -------------------------------------------------------
    Total     536     536      33      33      33       0
   -------------------------------------------------------

  ==> Integral Setup <==

  ==> DiskDFJK: Density-Fitted J/K Matrices <==

    J tasked:                  Yes
    K tasked:                  Yes
    wK tasked:                  No
    OpenMP threads:              1
    Integrals threads:           1
    Memory [MiB]:            15735
    Algorithm:                Core
    Integral Cache:           SAVE
    Schwarz Cutoff:          1E-12
    Fitting Condition:       1E-10

   => Auxiliary Basis Set <=

  Basis Set: (JUN-CC-PVTZ AUX)
    Blend: JUN-CC-PVTZ-JKFIT
    Number of shells: 392
    Number of basis function: 1240
    Number of Cartesian functions: 1488
    Spherical Harmonics?: true
    Max angular momentum: 4

  Minimum eigenvalue in the overlap matrix is 3.1684527452E-05.
  Using Symmetric Orthogonalization.

  SCF Guess: Superposition of Atomic Densities via on-the-fly atomic UHF.

  ==> Iterations <==

                           Total Energy        Delta E     RMS |[F,P]|

   @DF-RHF iter SAD:  -348.04949163710666   -3.48049e+02   0.00000e+00 
   @DF-RHF iter   1:  -349.01798331695437   -9.68492e-01   1.41723e-03 DIIS
   @DF-RHF iter   2:  -349.29029641319210   -2.72313e-01   6.84223e-04 DIIS
   @DF-RHF iter   3:  -349.35092623614730   -6.06298e-02   1.32134e-04 DIIS
   @DF-RHF iter   4:  -349.35491824978351   -3.99201e-03   4.83060e-05 DIIS
   @DF-RHF iter   5:  -349.35530210075694   -3.83851e-04   9.95658e-06 DIIS
   @DF-RHF iter   6:  -349.35532547163018   -2.33709e-05   2.43351e-06 DIIS
   @DF-RHF iter   7:  -349.35532713476050   -1.66313e-06   6.47679e-07 DIIS
   @DF-RHF iter   8:  -349.35532726594653   -1.31186e-07   2.34490e-07 DIIS
   @DF-RHF iter   9:  -349.35532728217237   -1.62258e-08   7.44577e-08 DIIS
   @DF-RHF iter  10:  -349.35532728443962   -2.26726e-09   3.47656e-08 DIIS
   @DF-RHF iter  11:  -349.35532728480121   -3.61581e-10   8.96793e-09 DIIS
  Energy and wave function converged.


  ==> Post-Iterations <==

    Orbital Energies [Eh]
    ---------------------

    Doubly Occupied:                                                      

       1A    -20.539814     2A    -11.263646     3A    -11.245119  
       4A    -11.230217     5A    -11.229046     6A    -11.216836  
       7A    -11.213323     8A    -11.205949     9A     -1.343495  
      10A     -1.090161    11A     -1.045579    12A     -0.995857  
      13A     -0.914119    14A     -0.861145    15A     -0.804991  
      16A     -0.766092    17A     -0.666513    18A     -0.652080  
      19A     -0.631019    20A     -0.619991    21A     -0.613667  
      22A     -0.592033    23A     -0.558159    24A     -0.540507  
      25A     -0.528412    26A     -0.520217    27A     -0.512432  
      28A     -0.490493    29A     -0.484391    30A     -0.480114  
      31A     -0.464814    32A     -0.427273    33A     -0.370198  

    Virtual:                                                              

      34A      0.049282    35A      0.051110    36A      0.056624  
      37A      0.060029    38A      0.068502    39A      0.071691  
      40A      0.075139    41A      0.088150    42A      0.089449  
      43A      0.102594    44A      0.108460    45A      0.108717  
      46A      0.113361    47A      0.116185    48A      0.128009  
      49A      0.131705    50A      0.139229    51A      0.143788  
      52A      0.148219    53A      0.155065    54A      0.160890  
      55A      0.167014    56A      0.175190    57A      0.185448  
      58A      0.187739    59A      0.201442    60A      0.210800  
      61A      0.217398    62A      0.228115    63A      0.234051  
      64A      0.240541    65A      0.260974    66A      0.266573  
      67A      0.275630    68A      0.281246    69A      0.286913  
      70A      0.291746    71A      0.294921    72A      0.297969  
      73A      0.306555    74A      0.308460    75A      0.317321  
      76A      0.321199    77A      0.330684    78A      0.333750  
      79A      0.335122    80A      0.338129    81A      0.343892  
      82A      0.346838    83A      0.354255    84A      0.357835  
      85A      0.361740    86A      0.369823    87A      0.375318  
      88A      0.380096    89A      0.388061    90A      0.389520  
      91A      0.399059    92A      0.401362    93A      0.413844  
      94A      0.418899    95A      0.427562    96A      0.435008  
      97A      0.444016    98A      0.449718    99A      0.457507  
     100A      0.465898   101A      0.478056   102A      0.485922  
     103A      0.497495   104A      0.504831   105A      0.509473  
     106A      0.511962   107A      0.516585   108A      0.523506  
     109A      0.531271   110A      0.536846   111A      0.540342  
     112A      0.548273   113A      0.553711   114A      0.557755  
     115A      0.561082   116A      0.574355   117A      0.577226  
     118A      0.582795   119A      0.592359   120A      0.598649  
     121A      0.626382   122A      0.629409   123A      0.653438  
     124A      0.663614   125A      0.668119   126A      0.681036  
     127A      0.693305   128A      0.703652   129A      0.714545  
     130A      0.718242   131A      0.724425   132A      0.737956  
     133A      0.744337   134A      0.746516   135A      0.752506  
     136A      0.763660   137A      0.768693   138A      0.777414  
     139A      0.792876   140A      0.795064   141A      0.802680  
     142A      0.806371   143A      0.811511   144A      0.825339  
     145A      0.828911   146A      0.830404   147A      0.840991  
     148A      0.855938   149A      0.863960   150A      0.865223  
     151A      0.870182   152A      0.882293   153A      0.889582  
     154A      0.893317   155A      0.905699   156A      0.912004  
     157A      0.916785   158A      0.925444   159A      0.944401  
     160A      0.959598   161A      0.968778   162A      0.983084  
     163A      0.983931   164A      1.000037   165A      1.020312  
     166A      1.022894   167A      1.029307   168A      1.052129  
     169A      1.059280   170A      1.067893   171A      1.080875  
     172A      1.092743   173A      1.102135   174A      1.126031  
     175A      1.135012   176A      1.141461   177A      1.158527  
     178A      1.177032   179A      1.178079   180A      1.197950  
     181A      1.206967   182A      1.215001   183A      1.232897  
     184A      1.236140   185A      1.249040   186A      1.254169  
     187A      1.276605   188A      1.299923   189A      1.307612  
     190A      1.323285   191A      1.340966   192A      1.341351  
     193A      1.348269   194A      1.349228   195A      1.359154  
     196A      1.378391   197A      1.382379   198A      1.386479  
     199A      1.401092   200A      1.409223   201A      1.412494  
     202A      1.416400   203A      1.440382   204A      1.448695  
     205A      1.465174   206A      1.474835   207A      1.478800  
     208A      1.489821   209A      1.499323   210A      1.502858  
     211A      1.527130   212A      1.539991   213A      1.548489  
     214A      1.550376   215A      1.558990   216A      1.571193  
     217A      1.574237   218A      1.583511   219A      1.591316  
     220A      1.602763   221A      1.615309   222A      1.626338  
     223A      1.640019   224A      1.644352   225A      1.649433  
     226A      1.664908   227A      1.676102   228A      1.690642  
     229A      1.694355   230A      1.703217   231A      1.703474  
     232A      1.715064   233A      1.716645   234A      1.740660  
     235A      1.763595   236A      1.773910   237A      1.787171  
     238A      1.799262   239A      1.805777   240A      1.808685  
     241A      1.836486   242A      1.843273   243A      1.854003  
     244A      1.873566   245A      1.883994   246A      1.904745  
     247A      1.916652   248A      1.941516   249A      1.953058  
     250A      1.973826   251A      1.977142   252A      1.993054  
     253A      2.007700   254A      2.050541   255A      2.085120  
     256A      2.088417   257A      2.142835   258A      2.249193  
     259A      2.256072   260A      2.407048   261A      2.450706  
     262A      2.493110   263A      2.515514   264A      2.655060  
     265A      2.727661   266A      2.743059   267A      2.771210  
     268A      2.798984   269A      2.804025   270A      2.822336  
     271A      2.831763   272A      2.843015   273A      2.850219  
     274A      2.852758   275A      2.868961   276A      2.885548  
     277A      2.889515   278A      2.900606   279A      2.914322  
     280A      2.921897   281A      2.944924   282A      2.950946  
     283A      2.967983   284A      2.977772   285A      3.000355  
     286A      3.018193   287A      3.023482   288A      3.041727  
     289A      3.051676   290A      3.060298   291A      3.074601  
     292A      3.087346   293A      3.107592   294A      3.126055  
     295A      3.132279   296A      3.138680   297A      3.160383  
     298A      3.174606   299A      3.181081   300A      3.189268  
     301A      3.194182   302A      3.201871   303A      3.211380  
     304A      3.223036   305A      3.233948   306A      3.257436  
     307A      3.281183   308A      3.287833   309A      3.296466  
     310A      3.313588   311A      3.322873   312A      3.333465  
     313A      3.341978   314A      3.348621   315A      3.363811  
     316A      3.377687   317A      3.385145   318A      3.388795  
     319A      3.399586   320A      3.409902   321A      3.424397  
     322A      3.432434   323A      3.436141   324A      3.447505  
     325A      3.448614   326A      3.457524   327A      3.474235  
     328A      3.482955   329A      3.483508   330A      3.493960  
     331A      3.505919   332A      3.510827   333A      3.515584  
     334A      3.523697   335A      3.534466   336A      3.546219  
     337A      3.549750   338A      3.556221   339A      3.564271  
     340A      3.571628   341A      3.584713   342A      3.592582  
     343A      3.605838   344A      3.620186   345A      3.636828  
     346A      3.643759   347A      3.651704   348A      3.676842  
     349A      3.692630   350A      3.696610   351A      3.710066  
     352A      3.723651   353A      3.736792   354A      3.744049  
     355A      3.754929   356A      3.771981   357A      3.782824  
     358A      3.792495   359A      3.811864   360A      3.825672  
     361A      3.833101   362A      3.842874   363A      3.853538  
     364A      3.866819   365A      3.890891   366A      3.892998  
     367A      3.894878   368A      3.918891   369A      3.931127  
     370A      3.936166   371A      3.961472   372A      3.974990  
     373A      3.982725   374A      3.993512   375A      4.007694  
     376A      4.013526   377A      4.032318   378A      4.052012  
     379A      4.066057   380A      4.089672   381A      4.104532  
     382A      4.119376   383A      4.126818   384A      4.139772  
     385A      4.159550   386A      4.175703   387A      4.184489  
     388A      4.207426   389A      4.225405   390A      4.242074  
     391A      4.257611   392A      4.263956   393A      4.265434  
     394A      4.271478   395A      4.287026   396A      4.312389  
     397A      4.326373   398A      4.331605   399A      4.344004  
     400A      4.348221   401A      4.354433   402A      4.356983  
     403A      4.361937   404A      4.379319   405A      4.387768  
     406A      4.403396   407A      4.408270   408A      4.420742  
     409A      4.427322   410A      4.433960   411A      4.458760  
     412A      4.461162   413A      4.474677   414A      4.480147  
     415A      4.491440   416A      4.495282   417A      4.500943  
     418A      4.520554   419A      4.530743   420A      4.533749  
     421A      4.544117   422A      4.555258   423A      4.563575  
     424A      4.585964   425A      4.596838   426A      4.617608  
     427A      4.625351   428A      4.643469   429A      4.653751  
     430A      4.666052   431A      4.681072   432A      4.684301  
     433A      4.712674   434A      4.734788   435A      4.737334  
     436A      4.752799   437A      4.773276   438A      4.786434  
     439A      4.804470   440A      4.824673   441A      4.827605  
     442A      4.839834   443A      4.849461   444A      4.872224  
     445A      4.892212   446A      4.904838   447A      4.937437  
     448A      4.948544   449A      4.962882   450A      5.000015  
     451A      5.012006   452A      5.049005   453A      5.068528  
     454A      5.083491   455A      5.097905   456A      5.164771  
     457A      5.169871   458A      5.198296   459A      5.203729  
     460A      5.220266   461A      5.227723   462A      5.246113  
     463A      5.259026   464A      5.265187   465A      5.284546  
     466A      5.288110   467A      5.300128   468A      5.311509  
     469A      5.313846   470A      5.344031   471A      5.363738  
     472A      5.395899   473A      5.408892   474A      5.415401  
     475A      5.416944   476A      5.429647   477A      5.484970  
     478A      5.503880   479A      5.518431   480A      5.531282  
     481A      5.587257   482A      5.593381   483A      5.608311  
     484A      5.625198   485A      5.669301   486A      5.691673  
     487A      5.724428   488A      5.750507   489A      5.760321  
     490A      5.764626   491A      5.783419   492A      5.784497  
     493A      5.795711   494A      5.830032   495A      5.837182  
     496A      5.844204   497A      5.904911   498A      5.906700  
     499A      5.924570   500A      5.929481   501A      5.962001  
     502A      5.965402   503A      5.997946   504A      6.019547  
     505A      6.101224   506A      6.134314   507A      6.166378  
     508A      6.312411   509A      6.402245   510A      6.459431  
     511A      6.476755   512A      6.488790   513A      6.510002  
     514A      6.523797   515A      6.543935   516A      6.561258  
     517A      6.582513   518A      6.605392   519A      6.701362  
     520A      6.958428   521A      7.084256   522A      7.253093  
     523A      7.343632   524A      7.428157   525A      7.569736  
     526A      7.689278   527A      7.900392   528A      8.187096  
     529A     12.543404   530A     13.718469   531A     13.968225  
     532A     13.997308   533A     14.201186   534A     14.598932  
     535A     14.700406   536A     15.356065  

    Final Occupation by Irrep:
              A 
    DOCC [    33 ]

  @DF-RHF Final Energy:  -349.35532728480121

   => Energetics <=

    Nuclear Repulsion Energy =            386.2144031970210563
    One-Electron Energy =               -1238.9040581484036920
    Two-Electron Energy =                 503.3343276665814301
    Total Energy =                       -349.3553272848012057

Computation Completed


Properties will be evaluated at   0.000000,   0.000000,   0.000000 [a0]

Properties computed using the SCF density matrix

  Nuclear Dipole Moment: [e a0]
     X:    -0.7121      Y:     2.9853      Z:    -2.1132

  Electronic Dipole Moment: [e a0]
     X:     0.8665      Y:    -3.1154      Z:     1.4920

  Dipole Moment: [e a0]
     X:     0.1544      Y:    -0.1301      Z:    -0.6212     Total:     0.6532

  Dipole Moment: [D]
     X:     0.3924      Y:    -0.3307      Z:    -1.5790     Total:     1.6603


*** tstop() called on r282 at Fri Sep 10 16:21:44 2021
Module time:
	user time   =      84.95 seconds =       1.42 minutes
	system time =       1.66 seconds =       0.03 minutes
	total time  =         87 seconds =       1.45 minutes
Total time:
	user time   =      84.95 seconds =       1.42 minutes
	system time =       1.66 seconds =       0.03 minutes
	total time  =         87 seconds =       1.45 minutes

  //>>>>>>>>>>>>>>>>>>>>>>>>>>>>>>>>>>>//
  //            Monomer A HF           //
  //<<<<<<<<<<<<<<<<<<<<<<<<<<<<<<<<<<<//


*** tstart() called on r282
*** at Fri Sep 10 16:21:44 2021

   => Loading Basis Set <=

    Name: JUN-CC-PVTZ
    Role: ORBITAL
    Keyword: BASIS
    atoms 1-2, 9, 13-16          entry C          line   217 file /home/r08543048/miniconda3/share/psi4/basis/jun-cc-pvtz.gbs 
    atoms 3-4, 6-8, 10-12, 17-24 entry H          line    36 file /home/r08543048/miniconda3/share/psi4/basis/jun-cc-pvtz.gbs 
    atoms 5                      entry O          line   305 file /home/r08543048/miniconda3/share/psi4/basis/jun-cc-pvtz.gbs 


         ---------------------------------------------------------
                                   SCF
               by Justin Turney, Rob Parrish, Andy Simmonett
                          and Daniel G. A. Smith
                              RHF Reference
                        1 Threads,  20980 MiB Core
         ---------------------------------------------------------

  ==> Geometry <==

    Molecular point group: c1
    Full point group: C1

    Geometry (in Angstrom), charge = 0, multiplicity = 1:

       Center              X                  Y                   Z               Mass       
    ------------   -----------------  -----------------  -----------------  -----------------
         C           -2.258157910157    -0.118549615766    -0.728035249295    12.000000000000
         C           -2.121987910157    -0.757855615766     0.644826750705    12.000000000000
         H           -1.454632910157    -0.489998615766    -1.370730249295     1.007825032230
         H           -3.196921910157    -0.458942615766    -1.173126249295     1.007825032230
         O           -0.903497910157    -0.409424615766     1.295737750705    15.994914619570
         H           -2.916586910157    -0.402752615766     1.302258750705     1.007825032230
         H           -2.217060910157    -1.845615615766     0.564920750705     1.007825032230
         H           -0.179465910157    -0.732574615766     0.740976750705     1.007825032230
         C           -2.220725910157     1.402719384234    -0.669757249295    12.000000000000
         H           -2.307543910157     1.840074384234    -1.663869249295     1.007825032230
         H           -3.042422910157     1.783334384234    -0.061534249295     1.007825032230
         H           -1.289714910157     1.746788384234    -0.222515249295     1.007825032230
      Gh(C)           1.549878089843    -1.798084615766    -0.483475249295    12.000000000000
      Gh(C)           1.793473089843    -0.517004615766    -0.785433249295    12.000000000000
      Gh(C)           2.644996089843     0.407782384234     0.024663750705    12.000000000000
      Gh(C)           1.880216089843     1.659100384234     0.459982750705    12.000000000000
      Gh(H)           0.925603089843    -2.416707615766    -1.114135249295     1.007825032230
      Gh(H)           1.984741089843    -2.255688615766     0.396683750705     1.007825032230
      Gh(H)           1.339314089843    -0.095321615766    -1.678827249295     1.007825032230
      Gh(H)           3.030442089843    -0.124451615766     0.896400750705     1.007825032230
      Gh(H)           3.508328089843     0.707970384234    -0.575529249295     1.007825032230
      Gh(H)           1.496070089843     2.195681384234    -0.408558249295     1.007825032230
      Gh(H)           1.034377089843     1.397694384234     1.095052750705     1.007825032230
      Gh(H)           2.530455089843     2.336995384234     1.011740750705     1.007825032230

  Running in c1 symmetry.

  Rotational constants: A =      0.07618  B =      0.03153  C =      0.02762 [cm^-1]
  Rotational constants: A =   2283.74362  B =    945.38871  C =    828.01052 [MHz]
  Nuclear repulsion =  132.850762963431492

  Charge       = 0
  Multiplicity = 1
  Electrons    = 34
  Nalpha       = 17
  Nbeta        = 17

  ==> Algorithm <==

  SCF Algorithm Type is DF.
  DIIS enabled.
  MOM disabled.
  Fractional occupation disabled.
  Guess Type is SAD.
  Energy threshold   = 1.00e-08
  Density threshold  = 1.00e-08
  Integral threshold = 0.00e+00

  ==> Primary Basis <==

  Basis Set: JUN-CC-PVTZ
    Blend: JUN-CC-PVTZ
    Number of shells: 200
    Number of basis function: 536
    Number of Cartesian functions: 600
    Spherical Harmonics?: true
    Max angular momentum: 3

   => Loading Basis Set <=

    Name: (JUN-CC-PVTZ AUX)
    Role: JKFIT
    Keyword: DF_BASIS_SCF
    atoms 1-2, 9, 13-16          entry C          line   152 file /home/r08543048/miniconda3/share/psi4/basis/jun-cc-pvtz-jkfit.gbs 
    atoms 3-4, 6-8, 10-12, 17-24 entry H          line    70 file /home/r08543048/miniconda3/share/psi4/basis/jun-cc-pvtz-jkfit.gbs 
    atoms 5                      entry O          line   272 file /home/r08543048/miniconda3/share/psi4/basis/jun-cc-pvtz-jkfit.gbs 

  ==> Pre-Iterations <==

   -------------------------------------------------------
    Irrep   Nso     Nmo     Nalpha   Nbeta   Ndocc  Nsocc
   -------------------------------------------------------
     A        536     536       0       0       0       0
   -------------------------------------------------------
    Total     536     536      17      17      17       0
   -------------------------------------------------------

  ==> Integral Setup <==

  ==> DiskDFJK: Density-Fitted J/K Matrices <==

    J tasked:                  Yes
    K tasked:                  Yes
    wK tasked:                  No
    OpenMP threads:              1
    Integrals threads:           1
    Memory [MiB]:            15735
    Algorithm:                Core
    Integral Cache:           LOAD
    Schwarz Cutoff:          1E-12
    Fitting Condition:       1E-10

   => Auxiliary Basis Set <=

  Basis Set: (JUN-CC-PVTZ AUX)
    Blend: JUN-CC-PVTZ-JKFIT
    Number of shells: 392
    Number of basis function: 1240
    Number of Cartesian functions: 1488
    Spherical Harmonics?: true
    Max angular momentum: 4

  Minimum eigenvalue in the overlap matrix is 3.1684527452E-05.
  Using Symmetric Orthogonalization.

  SCF Guess: Superposition of Atomic Densities via on-the-fly atomic UHF.

  ==> Iterations <==

                           Total Energy        Delta E     RMS |[F,P]|

   @DF-RHF iter SAD:  -192.50018631441034   -1.92500e+02   0.00000e+00 
   @DF-RHF iter   1:  -193.01134831817521   -5.11162e-01   1.06561e-03 DIIS
   @DF-RHF iter   2:  -193.15214508634662   -1.40797e-01   5.64074e-04 DIIS
   @DF-RHF iter   3:  -193.18919497272003   -3.70499e-02   9.59801e-05 DIIS
   @DF-RHF iter   4:  -193.19129996552755   -2.10499e-03   3.49110e-05 DIIS
   @DF-RHF iter   5:  -193.19149830134216   -1.98336e-04   7.96647e-06 DIIS
   @DF-RHF iter   6:  -193.19151277525913   -1.44739e-05   1.66209e-06 DIIS
   @DF-RHF iter   7:  -193.19151373905208   -9.63793e-07   4.18029e-07 DIIS
   @DF-RHF iter   8:  -193.19151379545275   -5.64007e-08   1.40381e-07 DIIS
   @DF-RHF iter   9:  -193.19151380172491   -6.27216e-09   3.76536e-08 DIIS
   @DF-RHF iter  10:  -193.19151380225671   -5.31799e-10   8.20968e-09 DIIS
  Energy and wave function converged.


  ==> Post-Iterations <==

    Orbital Energies [Eh]
    ---------------------

    Doubly Occupied:                                                      

       1A    -20.555697     2A    -11.271339     3A    -11.222680  
       4A    -11.209480     5A     -1.355759     6A     -1.051190  
       7A     -0.919918     8A     -0.811332     9A     -0.674588  
      10A     -0.638370    11A     -0.626680    12A     -0.565065  
      13A     -0.531926    14A     -0.520591    15A     -0.485275  
      16A     -0.471335    17A     -0.437227  

    Virtual:                                                              

      18A      0.028739    19A      0.043289    20A      0.051815  
      21A      0.055586    22A      0.065128    23A      0.068436  
      24A      0.071618    25A      0.083268    26A      0.086590  
      27A      0.099640    28A      0.100381    29A      0.107352  
      30A      0.111453    31A      0.112488    32A      0.118597  
      33A      0.128176    34A      0.132751    35A      0.136101  
      36A      0.141516    37A      0.148093    38A      0.151697  
      39A      0.158675    40A      0.162722    41A      0.175589  
      42A      0.180640    43A      0.185114    44A      0.199736  
      45A      0.202646    46A      0.215316    47A      0.226162  
      48A      0.239582    49A      0.252675    50A      0.258897  
      51A      0.270479    52A      0.276433    53A      0.279743  
      54A      0.287443    55A      0.288745    56A      0.292503  
      57A      0.300406    58A      0.314838    59A      0.319663  
      60A      0.325195    61A      0.330198    62A      0.331302  
      63A      0.340495    64A      0.346320    65A      0.350172  
      66A      0.354652    67A      0.355188    68A      0.362585  
      69A      0.373539    70A      0.374456    71A      0.376959  
      72A      0.386307    73A      0.393335    74A      0.394620  
      75A      0.406486    76A      0.410582    77A      0.413467  
      78A      0.422254    79A      0.434638    80A      0.441569  
      81A      0.452233    82A      0.460721    83A      0.464457  
      84A      0.467507    85A      0.474177    86A      0.488054  
      87A      0.494390    88A      0.501406    89A      0.508655  
      90A      0.513634    91A      0.518958    92A      0.529668  
      93A      0.538799    94A      0.544132    95A      0.550435  
      96A      0.555963    97A      0.561157    98A      0.562323  
      99A      0.574014   100A      0.576996   101A      0.582536  
     102A      0.595625   103A      0.599646   104A      0.609474  
     105A      0.613210   106A      0.636160   107A      0.637668  
     108A      0.650357   109A      0.659451   110A      0.661103  
     111A      0.666431   112A      0.682920   113A      0.690724  
     114A      0.694429   115A      0.705131   116A      0.712944  
     117A      0.719307   118A      0.730278   119A      0.742590  
     120A      0.755181   121A      0.766961   122A      0.769849  
     123A      0.772986   124A      0.793595   125A      0.801611  
     126A      0.805617   127A      0.817390   128A      0.828975  
     129A      0.830048   130A      0.839166   131A      0.850812  
     132A      0.859563   133A      0.868678   134A      0.883978  
     135A      0.886263   136A      0.910512   137A      0.916174  
     138A      0.959065   139A      0.968693   140A      0.978152  
     141A      1.009321   142A      1.019505   143A      1.038630  
     144A      1.047668   145A      1.055309   146A      1.065060  
     147A      1.095721   148A      1.111886   149A      1.113915  
     150A      1.131814   151A      1.139200   152A      1.156106  
     153A      1.165759   154A      1.174524   155A      1.181573  
     156A      1.189722   157A      1.197600   158A      1.212808  
     159A      1.219601   160A      1.236219   161A      1.247083  
     162A      1.250539   163A      1.259257   164A      1.271265  
     165A      1.277338   166A      1.282782   167A      1.292693  
     168A      1.300827   169A      1.319972   170A      1.326588  
     171A      1.337620   172A      1.343697   173A      1.347063  
     174A      1.356633   175A      1.361362   176A      1.363032  
     177A      1.385959   178A      1.391448   179A      1.402457  
     180A      1.410313   181A      1.413514   182A      1.415846  
     183A      1.426427   184A      1.431194   185A      1.449429  
     186A      1.459453   187A      1.472255   188A      1.476180  
     189A      1.485800   190A      1.494130   191A      1.521553  
     192A      1.523339   193A      1.528991   194A      1.530913  
     195A      1.538997   196A      1.547850   197A      1.548686  
     198A      1.552404   199A      1.570620   200A      1.583890  
     201A      1.590234   202A      1.594087   203A      1.601514  
     204A      1.607075   205A      1.613283   206A      1.622501  
     207A      1.637310   208A      1.651240   209A      1.654316  
     210A      1.660865   211A      1.685662   212A      1.696847  
     213A      1.700647   214A      1.712266   215A      1.732042  
     216A      1.736630   217A      1.744340   218A      1.767678  
     219A      1.781562   220A      1.791193   221A      1.797491  
     222A      1.806761   223A      1.836303   224A      1.846343  
     225A      1.863827   226A      1.874446   227A      1.891642  
     228A      1.910984   229A      1.922243   230A      1.945885  
     231A      1.956038   232A      1.972600   233A      1.985918  
     234A      2.009895   235A      2.015997   236A      2.053068  
     237A      2.087063   238A      2.115614   239A      2.130014  
     240A      2.138368   241A      2.192511   242A      2.215077  
     243A      2.224230   244A      2.261453   245A      2.281919  
     246A      2.366759   247A      2.378844   248A      2.410461  
     249A      2.423901   250A      2.456082   251A      2.470967  
     252A      2.498430   253A      2.508327   254A      2.526857  
     255A      2.544141   256A      2.576160   257A      2.610934  
     258A      2.682440   259A      2.736684   260A      2.816372  
     261A      2.831738   262A      2.842834   263A      2.860742  
     264A      2.891643   265A      2.902995   266A      2.926821  
     267A      2.937410   268A      2.973717   269A      2.980772  
     270A      3.024370   271A      3.062554   272A      3.105952  
     273A      3.123463   274A      3.152168   275A      3.182012  
     276A      3.195793   277A      3.239722   278A      3.270702  
     279A      3.299642   280A      3.316363   281A      3.337988  
     282A      3.369356   283A      3.388824   284A      3.405037  
     285A      3.411166   286A      3.439203   287A      3.449368  
     288A      3.459273   289A      3.469555   290A      3.472001  
     291A      3.492495   292A      3.499412   293A      3.514879  
     294A      3.525499   295A      3.532787   296A      3.547853  
     297A      3.548388   298A      3.569575   299A      3.578339  
     300A      3.587200   301A      3.610491   302A      3.622915  
     303A      3.632271   304A      3.640551   305A      3.643128  
     306A      3.654464   307A      3.661560   308A      3.680977  
     309A      3.691950   310A      3.702615   311A      3.712332  
     312A      3.726223   313A      3.741339   314A      3.752660  
     315A      3.763929   316A      3.771217   317A      3.788948  
     318A      3.796921   319A      3.808486   320A      3.825279  
     321A      3.834252   322A      3.841275   323A      3.852913  
     324A      3.858645   325A      3.871506   326A      3.882770  
     327A      3.901871   328A      3.911077   329A      3.920810  
     330A      3.938041   331A      3.943668   332A      3.963407  
     333A      3.974132   334A      3.984794   335A      3.995110  
     336A      4.019660   337A      4.029338   338A      4.052278  
     339A      4.082441   340A      4.092024   341A      4.096521  
     342A      4.103034   343A      4.111765   344A      4.125914  
     345A      4.142078   346A      4.144363   347A      4.161287  
     348A      4.168131   349A      4.195723   350A      4.213898  
     351A      4.226262   352A      4.239182   353A      4.252519  
     354A      4.258701   355A      4.265777   356A      4.278294  
     357A      4.296105   358A      4.319428   359A      4.326427  
     360A      4.342648   361A      4.349795   362A      4.360663  
     363A      4.372273   364A      4.375925   365A      4.391478  
     366A      4.410946   367A      4.415900   368A      4.430399  
     369A      4.448195   370A      4.453996   371A      4.465302  
     372A      4.475435   373A      4.480435   374A      4.493912  
     375A      4.496652   376A      4.503462   377A      4.506375  
     378A      4.525718   379A      4.530555   380A      4.535918  
     381A      4.550170   382A      4.569058   383A      4.576903  
     384A      4.589482   385A      4.602899   386A      4.613770  
     387A      4.618593   388A      4.637239   389A      4.649291  
     390A      4.652837   391A      4.655666   392A      4.666964  
     393A      4.682447   394A      4.703263   395A      4.710159  
     396A      4.730755   397A      4.732869   398A      4.750995  
     399A      4.756595   400A      4.764300   401A      4.772150  
     402A      4.789636   403A      4.804570   404A      4.808846  
     405A      4.821122   406A      4.834123   407A      4.845664  
     408A      4.848446   409A      4.856391   410A      4.866120  
     411A      4.871011   412A      4.876792   413A      4.887489  
     414A      4.917616   415A      4.923288   416A      4.935452  
     417A      4.950111   418A      4.969239   419A      4.975839  
     420A      4.992671   421A      4.999940   422A      5.015077  
     423A      5.032439   424A      5.036445   425A      5.062348  
     426A      5.064511   427A      5.071845   428A      5.086505  
     429A      5.110582   430A      5.130855   431A      5.161705  
     432A      5.181398   433A      5.183664   434A      5.195742  
     435A      5.201756   436A      5.218147   437A      5.248745  
     438A      5.255641   439A      5.263486   440A      5.285189  
     441A      5.296540   442A      5.314402   443A      5.338159  
     444A      5.359773   445A      5.376429   446A      5.407517  
     447A      5.415996   448A      5.427135   449A      5.466638  
     450A      5.478536   451A      5.482646   452A      5.509213  
     453A      5.524096   454A      5.566272   455A      5.585377  
     456A      5.621592   457A      5.644604   458A      5.667445  
     459A      5.676008   460A      5.707946   461A      5.737467  
     462A      5.755516   463A      5.774464   464A      5.791703  
     465A      5.816288   466A      5.824794   467A      5.832336  
     468A      5.839566   469A      5.888852   470A      5.905026  
     471A      5.925675   472A      5.955325   473A      5.969422  
     474A      5.992592   475A      6.026817   476A      6.057397  
     477A      6.063685   478A      6.100968   479A      6.126552  
     480A      6.158958   481A      6.196746   482A      6.265825  
     483A      6.299455   484A      6.329688   485A      6.360596  
     486A      6.402471   487A      6.408012   488A      6.452086  
     489A      6.456015   490A      6.486203   491A      6.507075  
     492A      6.543983   493A      6.559960   494A      6.596340  
     495A      6.648622   496A      6.730772   497A      6.800019  
     498A      6.861538   499A      6.931680   500A      6.955642  
     501A      7.068109   502A      7.090594   503A      7.237911  
     504A      7.324006   505A      7.355517   506A      7.395646  
     507A      7.423289   508A      7.484908   509A      7.555677  
     510A      7.569459   511A      7.600782   512A      7.673621  
     513A      7.695901   514A      7.712238   515A      7.840867  
     516A      7.882373   517A      7.898744   518A      7.965480  
     519A      7.970059   520A      8.123643   521A      8.173932  
     522A      8.268967   523A      8.440928   524A      8.795376  
     525A      9.445058   526A      9.678053   527A      9.918413  
     528A     10.212720   529A     13.712035   530A     13.967279  
     531A     14.184341   532A     14.670736   533A     41.558163  
     534A     44.733161   535A     45.746514   536A     47.197283  

    Final Occupation by Irrep:
              A 
    DOCC [    17 ]

  @DF-RHF Final Energy:  -193.19151380225671

   => Energetics <=

    Nuclear Repulsion Energy =            132.8507629634314924
    One-Electron Energy =                -525.3876475762193650
    Two-Electron Energy =                 199.3453708105311364
    Total Energy =                       -193.1915138022567078

Computation Completed


Properties will be evaluated at   0.000000,   0.000000,   0.000000 [a0]

Properties computed using the SCF density matrix

  Nuclear Dipole Moment: [e a0]
     X:  -119.8796      Y:     2.4997      Z:     7.4918

  Electronic Dipole Moment: [e a0]
     X:   119.7867      Y:    -2.8044      Z:    -8.1318

  Dipole Moment: [e a0]
     X:    -0.0929      Y:    -0.3046      Z:    -0.6400     Total:     0.7149

  Dipole Moment: [D]
     X:    -0.2362      Y:    -0.7743      Z:    -1.6268     Total:     1.8171


*** tstop() called on r282 at Fri Sep 10 16:22:28 2021
Module time:
	user time   =      42.97 seconds =       0.72 minutes
	system time =       0.73 seconds =       0.01 minutes
	total time  =         44 seconds =       0.73 minutes
Total time:
	user time   =     127.92 seconds =       2.13 minutes
	system time =       2.39 seconds =       0.04 minutes
	total time  =        131 seconds =       2.18 minutes

  //>>>>>>>>>>>>>>>>>>>>>>>>>>>>>>>>>>>//
  //            Monomer B HF           //
  //<<<<<<<<<<<<<<<<<<<<<<<<<<<<<<<<<<<//


*** tstart() called on r282
*** at Fri Sep 10 16:22:28 2021

   => Loading Basis Set <=

    Name: JUN-CC-PVTZ
    Role: ORBITAL
    Keyword: BASIS
    atoms 1-2, 9, 13-16          entry C          line   217 file /home/r08543048/miniconda3/share/psi4/basis/jun-cc-pvtz.gbs 
    atoms 3-4, 6-8, 10-12, 17-24 entry H          line    36 file /home/r08543048/miniconda3/share/psi4/basis/jun-cc-pvtz.gbs 
    atoms 5                      entry O          line   305 file /home/r08543048/miniconda3/share/psi4/basis/jun-cc-pvtz.gbs 


         ---------------------------------------------------------
                                   SCF
               by Justin Turney, Rob Parrish, Andy Simmonett
                          and Daniel G. A. Smith
                              RHF Reference
                        1 Threads,  20980 MiB Core
         ---------------------------------------------------------

  ==> Geometry <==

    Molecular point group: c1
    Full point group: C1

    Geometry (in Angstrom), charge = 0, multiplicity = 1:

       Center              X                  Y                   Z               Mass       
    ------------   -----------------  -----------------  -----------------  -----------------
      Gh(C)          -2.258157910157    -0.118549615766    -0.728035249295    12.000000000000
      Gh(C)          -2.121987910157    -0.757855615766     0.644826750705    12.000000000000
      Gh(H)          -1.454632910157    -0.489998615766    -1.370730249295     1.007825032230
      Gh(H)          -3.196921910157    -0.458942615766    -1.173126249295     1.007825032230
      Gh(O)          -0.903497910157    -0.409424615766     1.295737750705    15.994914619570
      Gh(H)          -2.916586910157    -0.402752615766     1.302258750705     1.007825032230
      Gh(H)          -2.217060910157    -1.845615615766     0.564920750705     1.007825032230
      Gh(H)          -0.179465910157    -0.732574615766     0.740976750705     1.007825032230
      Gh(C)          -2.220725910157     1.402719384234    -0.669757249295    12.000000000000
      Gh(H)          -2.307543910157     1.840074384234    -1.663869249295     1.007825032230
      Gh(H)          -3.042422910157     1.783334384234    -0.061534249295     1.007825032230
      Gh(H)          -1.289714910157     1.746788384234    -0.222515249295     1.007825032230
         C            1.549878089843    -1.798084615766    -0.483475249295    12.000000000000
         C            1.793473089843    -0.517004615766    -0.785433249295    12.000000000000
         C            2.644996089843     0.407782384234     0.024663750705    12.000000000000
         C            1.880216089843     1.659100384234     0.459982750705    12.000000000000
         H            0.925603089843    -2.416707615766    -1.114135249295     1.007825032230
         H            1.984741089843    -2.255688615766     0.396683750705     1.007825032230
         H            1.339314089843    -0.095321615766    -1.678827249295     1.007825032230
         H            3.030442089843    -0.124451615766     0.896400750705     1.007825032230
         H            3.508328089843     0.707970384234    -0.575529249295     1.007825032230
         H            1.496070089843     2.195681384234    -0.408558249295     1.007825032230
         H            1.034377089843     1.397694384234     1.095052750705     1.007825032230
         H            2.530455089843     2.336995384234     1.011740750705     1.007825032230

  Running in c1 symmetry.

  Rotational constants: A =      0.07618  B =      0.03153  C =      0.02762 [cm^-1]
  Rotational constants: A =   2283.74362  B =    945.38871  C =    828.01052 [MHz]
  Nuclear repulsion =  117.305978628973378

  Charge       = 0
  Multiplicity = 1
  Electrons    = 32
  Nalpha       = 16
  Nbeta        = 16

  ==> Algorithm <==

  SCF Algorithm Type is DF.
  DIIS enabled.
  MOM disabled.
  Fractional occupation disabled.
  Guess Type is SAD.
  Energy threshold   = 1.00e-08
  Density threshold  = 1.00e-08
  Integral threshold = 0.00e+00

  ==> Primary Basis <==

  Basis Set: JUN-CC-PVTZ
    Blend: JUN-CC-PVTZ
    Number of shells: 200
    Number of basis function: 536
    Number of Cartesian functions: 600
    Spherical Harmonics?: true
    Max angular momentum: 3

   => Loading Basis Set <=

    Name: (JUN-CC-PVTZ AUX)
    Role: JKFIT
    Keyword: DF_BASIS_SCF
    atoms 1-2, 9, 13-16          entry C          line   152 file /home/r08543048/miniconda3/share/psi4/basis/jun-cc-pvtz-jkfit.gbs 
    atoms 3-4, 6-8, 10-12, 17-24 entry H          line    70 file /home/r08543048/miniconda3/share/psi4/basis/jun-cc-pvtz-jkfit.gbs 
    atoms 5                      entry O          line   272 file /home/r08543048/miniconda3/share/psi4/basis/jun-cc-pvtz-jkfit.gbs 

  ==> Pre-Iterations <==

   -------------------------------------------------------
    Irrep   Nso     Nmo     Nalpha   Nbeta   Ndocc  Nsocc
   -------------------------------------------------------
     A        536     536       0       0       0       0
   -------------------------------------------------------
    Total     536     536      16      16      16       0
   -------------------------------------------------------

  ==> Integral Setup <==

  ==> DiskDFJK: Density-Fitted J/K Matrices <==

    J tasked:                  Yes
    K tasked:                  Yes
    wK tasked:                  No
    OpenMP threads:              1
    Integrals threads:           1
    Memory [MiB]:            15735
    Algorithm:                Core
    Integral Cache:           LOAD
    Schwarz Cutoff:          1E-12
    Fitting Condition:       1E-10

   => Auxiliary Basis Set <=

  Basis Set: (JUN-CC-PVTZ AUX)
    Blend: JUN-CC-PVTZ-JKFIT
    Number of shells: 392
    Number of basis function: 1240
    Number of Cartesian functions: 1488
    Spherical Harmonics?: true
    Max angular momentum: 4

  Minimum eigenvalue in the overlap matrix is 3.1684527452E-05.
  Using Symmetric Orthogonalization.

  SCF Guess: Superposition of Atomic Densities via on-the-fly atomic UHF.

  ==> Iterations <==

                           Total Energy        Delta E     RMS |[F,P]|

   @DF-RHF iter SAD:  -155.37721648384971   -1.55377e+02   0.00000e+00 
   @DF-RHF iter   1:  -155.99507976948999   -6.17863e-01   9.73432e-04 DIIS
   @DF-RHF iter   2:  -156.13475787840068   -1.39678e-01   4.29418e-04 DIIS
   @DF-RHF iter   3:  -156.16240212598188   -2.76442e-02   8.31003e-05 DIIS
   @DF-RHF iter   4:  -156.16423797654880   -1.83585e-03   3.08455e-05 DIIS
   @DF-RHF iter   5:  -156.16440538601734   -1.67409e-04   5.76289e-06 DIIS
   @DF-RHF iter   6:  -156.16441422496305   -8.83895e-06   1.03896e-06 DIIS
   @DF-RHF iter   7:  -156.16441457356575   -3.48603e-07   2.90551e-07 DIIS
   @DF-RHF iter   8:  -156.16441460081055   -2.72448e-08   8.71425e-08 DIIS
   @DF-RHF iter   9:  -156.16441460365095   -2.84041e-09   3.76370e-08 DIIS
   @DF-RHF iter  10:  -156.16441460422547   -5.74516e-10   1.18320e-08 DIIS
   @DF-RHF iter  11:  -156.16441460428504   -5.95719e-11   2.95774e-09 DIIS
  Energy and wave function converged.


  ==> Post-Iterations <==

    Orbital Energies [Eh]
    ---------------------

    Doubly Occupied:                                                      

       1A    -11.231723     2A    -11.225031     3A    -11.217911  
       4A    -11.214877     5A     -1.080471     6A     -0.988080  
       7A     -0.856236     8A     -0.755729     9A     -0.642175  
      10A     -0.606581    11A     -0.586698    12A     -0.534260  
      13A     -0.517967    14A     -0.487519    15A     -0.477033  
      16A     -0.356615  

    Virtual:                                                              

      17A      0.034221    18A      0.046592    19A      0.052357  
      20A      0.056455    21A      0.066907    22A      0.069632  
      23A      0.073992    24A      0.082912    25A      0.085106  
      26A      0.101986    27A      0.104236    28A      0.107618  
      29A      0.107841    30A      0.114581    31A      0.116924  
      32A      0.126446    33A      0.129478    34A      0.142188  
      35A      0.145095    36A      0.149986    37A      0.153539  
      38A      0.160491    39A      0.162569    40A      0.171474  
      41A      0.178628    42A      0.184140    43A      0.199871  
      44A      0.205825    45A      0.215361    46A      0.217987  
      47A      0.223960    48A      0.233935    49A      0.244657  
      50A      0.264553    51A      0.269841    52A      0.278687  
      53A      0.285980    54A      0.288328    55A      0.294145  
      56A      0.304774    57A      0.311049    58A      0.314091  
      59A      0.326213    60A      0.327896    61A      0.332779  
      62A      0.338249    63A      0.344289    64A      0.349689  
      65A      0.355966    66A      0.359691    67A      0.365560  
      68A      0.366478    69A      0.373704    70A      0.376233  
      71A      0.380920    72A      0.388536    73A      0.396519  
      74A      0.401040    75A      0.409973    76A      0.418995  
      77A      0.428651    78A      0.437237    79A      0.439076  
      80A      0.447189    81A      0.454341    82A      0.464096  
      83A      0.471515    84A      0.474081    85A      0.482950  
      86A      0.491690    87A      0.505212    88A      0.509835  
      89A      0.512680    90A      0.518927    91A      0.525320  
      92A      0.529784    93A      0.542296    94A      0.547517  
      95A      0.551620    96A      0.554465    97A      0.558201  
      98A      0.576104    99A      0.581615   100A      0.585744  
     101A      0.589706   102A      0.599017   103A      0.611930  
     104A      0.618134   105A      0.627836   106A      0.636077  
     107A      0.645251   108A      0.651786   109A      0.670314  
     110A      0.678546   111A      0.686289   112A      0.698650  
     113A      0.706392   114A      0.711888   115A      0.726129  
     116A      0.741427   117A      0.746980   118A      0.755706  
     119A      0.768778   120A      0.773934   121A      0.780572  
     122A      0.792736   123A      0.799252   124A      0.803640  
     125A      0.818930   126A      0.825291   127A      0.838058  
     128A      0.849617   129A      0.854754   130A      0.861646  
     131A      0.879858   132A      0.886854   133A      0.907054  
     134A      0.913491   135A      0.929040   136A      0.936038  
     137A      0.953817   138A      0.972088   139A      0.976210  
     140A      0.988512   141A      1.004587   142A      1.022641  
     143A      1.023822   144A      1.050901   145A      1.058833  
     146A      1.062443   147A      1.066019   148A      1.077763  
     149A      1.084139   150A      1.099131   151A      1.117558  
     152A      1.137895   153A      1.141850   154A      1.147680  
     155A      1.160519   156A      1.167476   157A      1.175385  
     158A      1.176046   159A      1.194326   160A      1.207986  
     161A      1.222642   162A      1.223635   163A      1.241692  
     164A      1.257152   165A      1.260416   166A      1.270331  
     167A      1.279740   168A      1.290816   169A      1.308156  
     170A      1.311491   171A      1.317310   172A      1.331997  
     173A      1.343776   174A      1.350341   175A      1.358551  
     176A      1.366525   177A      1.377492   178A      1.385763  
     179A      1.395504   180A      1.398411   181A      1.412739  
     182A      1.416592   183A      1.423823   184A      1.428057  
     185A      1.440149   186A      1.456755   187A      1.462369  
     188A      1.478909   189A      1.488066   190A      1.499921  
     191A      1.511213   192A      1.523967   193A      1.525539  
     194A      1.546251   195A      1.551865   196A      1.568760  
     197A      1.573661   198A      1.579798   199A      1.589149  
     200A      1.601209   201A      1.610470   202A      1.620622  
     203A      1.624315   204A      1.629273   205A      1.641340  
     206A      1.663074   207A      1.671918   208A      1.677830  
     209A      1.691169   210A      1.698378   211A      1.703073  
     212A      1.716616   213A      1.728027   214A      1.736459  
     215A      1.746893   216A      1.779259   217A      1.787463  
     218A      1.796158   219A      1.806934   220A      1.811192  
     221A      1.838474   222A      1.849533   223A      1.866716  
     224A      1.874223   225A      1.877698   226A      1.896527  
     227A      1.921581   228A      1.944589   229A      1.955542  
     230A      1.974291   231A      1.990953   232A      2.001322  
     233A      2.033438   234A      2.059165   235A      2.093532  
     236A      2.107646   237A      2.133797   238A      2.143483  
     239A      2.169793   240A      2.214953   241A      2.233052  
     242A      2.250564   243A      2.277711   244A      2.357748  
     245A      2.405671   246A      2.415250   247A      2.456489  
     248A      2.488601   249A      2.542587   250A      2.587222  
     251A      2.619986   252A      2.682037   253A      2.698965  
     254A      2.742820   255A      2.756006   256A      2.781998  
     257A      2.810201   258A      2.829418   259A      2.839384  
     260A      2.866369   261A      2.881583   262A      2.891008  
     263A      2.902021   264A      2.930196   265A      2.943406  
     266A      2.980644   267A      2.990059   268A      2.994492  
     269A      3.007453   270A      3.036893   271A      3.065782  
     272A      3.067151   273A      3.071603   274A      3.104232  
     275A      3.123607   276A      3.137651   277A      3.150612  
     278A      3.169187   279A      3.188963   280A      3.199948  
     281A      3.217968   282A      3.240389   283A      3.256634  
     284A      3.288348   285A      3.311312   286A      3.329005  
     287A      3.342185   288A      3.362868   289A      3.376594  
     290A      3.392565   291A      3.407640   292A      3.422025  
     293A      3.434212   294A      3.448183   295A      3.472663  
     296A      3.477831   297A      3.497015   298A      3.498581  
     299A      3.515731   300A      3.523598   301A      3.535655  
     302A      3.548017   303A      3.557914   304A      3.572173  
     305A      3.575207   306A      3.589383   307A      3.594502  
     308A      3.599061   309A      3.621142   310A      3.626454  
     311A      3.643800   312A      3.647976   313A      3.656362  
     314A      3.674521   315A      3.696472   316A      3.717952  
     317A      3.729542   318A      3.737236   319A      3.744799  
     320A      3.759108   321A      3.764659   322A      3.774581  
     323A      3.789594   324A      3.812670   325A      3.828193  
     326A      3.839776   327A      3.845503   328A      3.853273  
     329A      3.861676   330A      3.869079   331A      3.892605  
     332A      3.899005   333A      3.910626   334A      3.924048  
     335A      3.933918   336A      3.958341   337A      3.963013  
     338A      3.981403   339A      3.990782   340A      4.009731  
     341A      4.017734   342A      4.042230   343A      4.055703  
     344A      4.073611   345A      4.080293   346A      4.110043  
     347A      4.122774   348A      4.135182   349A      4.147973  
     350A      4.174695   351A      4.179644   352A      4.195365  
     353A      4.220630   354A      4.233823   355A      4.244544  
     356A      4.264838   357A      4.272180   358A      4.277829  
     359A      4.280735   360A      4.290922   361A      4.329644  
     362A      4.343445   363A      4.354652   364A      4.362496  
     365A      4.365104   366A      4.373853   367A      4.390037  
     368A      4.401973   369A      4.421829   370A      4.428603  
     371A      4.437496   372A      4.443704   373A      4.455043  
     374A      4.466959   375A      4.471481   376A      4.483242  
     377A      4.489584   378A      4.501604   379A      4.513318  
     380A      4.524922   381A      4.530622   382A      4.548032  
     383A      4.555343   384A      4.576932   385A      4.590263  
     386A      4.598627   387A      4.614229   388A      4.628331  
     389A      4.641188   390A      4.654822   391A      4.660207  
     392A      4.668947   393A      4.683346   394A      4.693079  
     395A      4.713094   396A      4.729115   397A      4.740669  
     398A      4.747714   399A      4.770971   400A      4.775524  
     401A      4.781602   402A      4.790282   403A      4.792843  
     404A      4.806302   405A      4.812153   406A      4.829620  
     407A      4.837132   408A      4.847894   409A      4.851728  
     410A      4.866723   411A      4.881521   412A      4.907995  
     413A      4.916031   414A      4.924186   415A      4.936769  
     416A      4.938723   417A      4.944530   418A      4.955008  
     419A      4.958014   420A      4.973021   421A      4.980844  
     422A      4.995988   423A      5.001441   424A      5.039687  
     425A      5.049613   426A      5.067386   427A      5.075485  
     428A      5.082677   429A      5.101982   430A      5.111149  
     431A      5.123710   432A      5.146318   433A      5.173888  
     434A      5.185605   435A      5.207429   436A      5.210908  
     437A      5.236788   438A      5.254765   439A      5.265429  
     440A      5.279974   441A      5.292584   442A      5.305753  
     443A      5.311160   444A      5.320431   445A      5.336252  
     446A      5.381489   447A      5.385510   448A      5.404914  
     449A      5.420936   450A      5.427711   451A      5.436475  
     452A      5.509009   453A      5.535913   454A      5.569396  
     455A      5.593408   456A      5.596816   457A      5.611314  
     458A      5.623508   459A      5.692410   460A      5.713628  
     461A      5.728653   462A      5.740092   463A      5.767435  
     464A      5.772515   465A      5.786623   466A      5.813434  
     467A      5.830558   468A      5.875224   469A      5.897172  
     470A      5.910776   471A      5.928596   472A      5.962345  
     473A      5.966553   474A      6.019098   475A      6.030888  
     476A      6.116682   477A      6.166136   478A      6.178002  
     479A      6.209866   480A      6.238751   481A      6.303716  
     482A      6.348702   483A      6.367781   484A      6.412076  
     485A      6.423952   486A      6.460915   487A      6.476829  
     488A      6.492245   489A      6.510004   490A      6.535324  
     491A      6.589516   492A      6.609656   493A      6.685417  
     494A      6.712304   495A      6.871137   496A      6.953496  
     497A      7.015777   498A      7.154477   499A      7.295051  
     500A      7.402566   501A      7.493554   502A      7.524363  
     503A      7.580331   504A      7.610444   505A      7.688183  
     506A      7.727688   507A      7.744371   508A      7.817149  
     509A      7.869342   510A      7.941037   511A      7.995904  
     512A      8.054766   513A      8.223360   514A      8.366599  
     515A      8.498693   516A      8.613057   517A      9.551979  
     518A      9.624492   519A      9.792836   520A      9.884461  
     521A      9.939011   522A     10.068848   523A     10.169825  
     524A     10.401121   525A     11.283739   526A     11.701887  
     527A     12.545581   528A     12.808724   529A     13.664441  
     530A     14.025579   531A     14.617405   532A     15.365482  
     533A     43.975423   534A     44.973459   535A     45.739925  
     536A     61.722137  

    Final Occupation by Irrep:
              A 
    DOCC [    16 ]

  @DF-RHF Final Energy:  -156.16441460428504

   => Energetics <=

    Nuclear Repulsion Energy =            117.3059786289733779
    One-Electron Energy =                -441.3829754889147807
    Two-Electron Energy =                 167.9125822556563605
    Total Energy =                       -156.1644146042850423

Computation Completed


Properties will be evaluated at   0.000000,   0.000000,   0.000000 [a0]

Properties computed using the SCF density matrix

  Nuclear Dipole Moment: [e a0]
     X:   119.1675      Y:     0.4855      Z:    -9.6050

  Electronic Dipole Moment: [e a0]
     X:  -119.0930      Y:    -0.3282      Z:     9.6313

  Dipole Moment: [e a0]
     X:     0.0745      Y:     0.1574      Z:     0.0263     Total:     0.1761

  Dipole Moment: [D]
     X:     0.1893      Y:     0.4000      Z:     0.0668     Total:     0.4476


*** tstop() called on r282 at Fri Sep 10 16:23:20 2021
Module time:
	user time   =      51.36 seconds =       0.86 minutes
	system time =       0.75 seconds =       0.01 minutes
	total time  =         52 seconds =       0.87 minutes
Total time:
	user time   =     179.28 seconds =       2.99 minutes
	system time =       3.14 seconds =       0.05 minutes
	total time  =        183 seconds =       3.05 minutes
  Constructing Basis Sets for SAPT...

   => Loading Basis Set <=

    Name: (JUN-CC-PVTZ AUX)
    Role: RIFIT
    Keyword: DF_BASIS_SAPT
    atoms 1-2, 9, 13-16          entry C          line   132 file /home/r08543048/miniconda3/share/psi4/basis/jun-cc-pvtz-ri.gbs 
    atoms 3-4, 6-8, 10-12, 17-24 entry H          line    30 file /home/r08543048/miniconda3/share/psi4/basis/jun-cc-pvtz-ri.gbs 
    atoms 5                      entry O          line   244 file /home/r08543048/miniconda3/share/psi4/basis/jun-cc-pvtz-ri.gbs 


  //>>>>>>>>>>>>>>>>>>>>>>>>>>>>>>>>>>>//
  //               SAPT0               //
  //<<<<<<<<<<<<<<<<<<<<<<<<<<<<<<<<<<<//


*** tstart() called on r282
*** at Fri Sep 10 16:23:20 2021

        SAPT0  
    Ed Hohenstein
     6 June 2009

      Orbital Information
  --------------------------
    NSO        =       536
    NMO        =       536
    NRI        =      1256
    NOCC A     =        17
    NOCC B     =        16
    FOCC A     =         0
    FOCC B     =         0
    NVIR A     =       519
    NVIR B     =       520

    Elst10,r            =    -0.009580624590 [Eh]
    Exch10              =     0.013502941582 [Eh]
    Exch10 (S^2)        =     0.013402964785 [Eh]

    Iter     Energy [mEh]          dE [mEh]         Residual      Time [s]
       1      -0.80318284       0.803182842       4.009315206             1
       2      -0.93446345       0.131280611       1.217459985             3
       3      -0.94958066       0.015117205       0.271765867             4
       4      -0.94725706      -0.002323595       0.111312598             5
       5      -0.94646773      -0.000789334       0.025616395             6
       6      -0.94667954       0.000211812       0.010228798             8
       7      -0.94672446       0.000044920       0.002781640             9
       8      -0.94670836      -0.000016100       0.000864854            10
       9      -0.94670634      -0.000002020       0.000217886            11
      10      -0.94670751       0.000001168       0.000071138            13
      11      -0.94670764       0.000000132       0.000019857            14
      12      -0.94670753      -0.000000116       0.000004283            15
      13      -0.94670753       0.000000009       0.000001161            16
      14      -0.94670754       0.000000003       0.000000317            18

    CHF Iterations converged


    Iter     Energy [mEh]          dE [mEh]         Residual      Time [s]
       1      -4.38755363       4.387553631      11.359108214             1
       2      -5.57943809       1.191884457       4.192879067             2
       3      -5.68623158       0.106793493       1.205567390             3
       4      -5.65781006      -0.028421525       0.411067441             4
       5      -5.64975821      -0.008051851       0.124015918             5
       6      -5.65199910       0.002240897       0.050480850             7
       7      -5.65259061       0.000591509       0.014919402             8
       8      -5.65227791      -0.000312702       0.003333191             9
       9      -5.65228211       0.000004201       0.000742434            10
      10      -5.65229194       0.000009824       0.000209930            11
      11      -5.65229115      -0.000000788       0.000062797            12
      12      -5.65229047      -0.000000677       0.000014733            14
      13      -5.65229053       0.000000055       0.000003613            15
      14      -5.65229056       0.000000034       0.000000935            16

    CHF Iterations converged

    Ind20,r (A<-B)      =    -0.000946707537 [Eh]
    Ind20,r (B<-A)      =    -0.005652290560 [Eh]
    Ind20,r             =    -0.006598998097 [Eh]
    Exch-Ind20,r (A<-B) =     0.000749432303 [Eh]
    Exch-Ind20,r (B<-A) =     0.004078354419 [Eh]
    Exch-Ind20,r        =     0.004827786722 [Eh]
    Disp20              =    -0.010006946002 [Eh]
    Disp20 (SS)         =    -0.005003473001 [Eh]
    Disp20 (OS)         =    -0.005003473001 [Eh]
    Exch-Disp20         =     0.001379765527 [Eh]
    Exch-Disp20 (SS)    =     0.000897505467 [Eh]
    Exch-Disp20 (OS)    =     0.000482260060 [Eh]

    SAPT Results 
  --------------------------------------------------------------------------------------------------------
    Electrostatics                 -9.58062459 [mEh]      -6.01193269 [kcal/mol]     -25.15392640 [kJ/mol]
      Elst10,r                     -9.58062459 [mEh]      -6.01193269 [kcal/mol]     -25.15392640 [kJ/mol]

    Exchange                       13.50294158 [mEh]       8.47322377 [kcal/mol]      35.45196824 [kJ/mol]
      Exch10                       13.50294158 [mEh]       8.47322377 [kcal/mol]      35.45196824 [kJ/mol]
      Exch10(S^2)                  13.40296479 [mEh]       8.41048738 [kcal/mol]      35.18947920 [kJ/mol]

    Induction                      -3.32119525 [mEh]      -2.08408148 [kcal/mol]      -8.71979693 [kJ/mol]
      Ind20,r                      -6.59899810 [mEh]      -4.14093382 [kcal/mol]     -17.32566712 [kJ/mol]
      Exch-Ind20,r                  4.82778672 [mEh]       3.02948191 [kcal/mol]      12.67535229 [kJ/mol]
      delta HF,r (2)               -1.54998388 [mEh]      -0.97262957 [kcal/mol]      -4.06948211 [kJ/mol]

    Dispersion                     -8.62718048 [mEh]      -5.41363748 [kcal/mol]     -22.65065922 [kJ/mol]
      Disp20                      -10.00694600 [mEh]      -6.27945342 [kcal/mol]     -26.27323311 [kJ/mol]
      Exch-Disp20                   1.37976553 [mEh]       0.86581594 [kcal/mol]       3.62257389 [kJ/mol]
      Disp20 (SS)                  -5.00347300 [mEh]      -3.13972671 [kcal/mol]     -13.13661655 [kJ/mol]
      Disp20 (OS)                  -5.00347300 [mEh]      -3.13972671 [kcal/mol]     -13.13661655 [kJ/mol]
      Exch-Disp20 (SS)              0.89750547 [mEh]       0.56319318 [kcal/mol]       2.35640028 [kJ/mol]
      Exch-Disp20 (OS)              0.48226006 [mEh]       0.30262276 [kcal/mol]       1.26617361 [kJ/mol]

  Total HF                          0.60112174 [mEh]       0.37720959 [kcal/mol]       1.57824491 [kJ/mol]
  Total SAPT0                      -8.02605874 [mEh]      -5.03642789 [kcal/mol]     -21.07241431 [kJ/mol]

  Special recipe for scaled SAPT0 (see Manual):
    Electrostatics sSAPT0          -9.58062459 [mEh]      -6.01193269 [kcal/mol]     -25.15392640 [kJ/mol]
    Exchange sSAPT0                13.50294158 [mEh]       8.47322377 [kcal/mol]      35.45196824 [kJ/mol]
    Induction sSAPT0               -3.21235158 [mEh]      -2.01578105 [kcal/mol]      -8.43402791 [kJ/mol]
    Dispersion sSAPT0              -8.59607331 [mEh]      -5.39411744 [kcal/mol]     -22.56898738 [kJ/mol]
  Total sSAPT0                     -7.88610790 [mEh]      -4.94860742 [kcal/mol]     -20.70497345 [kJ/mol]
  --------------------------------------------------------------------------------------------------------

*** tstop() called on r282 at Fri Sep 10 16:25:55 2021
Module time:
	user time   =     132.21 seconds =       2.20 minutes
	system time =      21.31 seconds =       0.36 minutes
	total time  =        155 seconds =       2.58 minutes
Total time:
	user time   =     311.65 seconds =       5.19 minutes
	system time =      24.45 seconds =       0.41 minutes
	total time  =        338 seconds =       5.63 minutes

    Psi4 stopped on: Friday, 10 September 2021 04:25PM
    Psi4 wall time for execution: 0:05:38.15

*** Psi4 exiting successfully. Buy a developer a beer!
