
    -----------------------------------------------------------------------
          Psi4: An Open-Source Ab Initio Electronic Structure Package
                               Psi4 1.3.2 release

                         Git: Rev {HEAD} ecbda83 


    R. M. Parrish, L. A. Burns, D. G. A. Smith, A. C. Simmonett,
    A. E. DePrince III, E. G. Hohenstein, U. Bozkaya, A. Yu. Sokolov,
    R. Di Remigio, R. M. Richard, J. F. Gonthier, A. M. James,
    H. R. McAlexander, A. Kumar, M. Saitow, X. Wang, B. P. Pritchard,
    P. Verma, H. F. Schaefer III, K. Patkowski, R. A. King, E. F. Valeev,
    F. A. Evangelista, J. M. Turney, T. D. Crawford, and C. D. Sherrill,
    J. Chem. Theory Comput. 13(7) pp 3185--3197 (2017).
    (doi: 10.1021/acs.jctc.7b00174)


                         Additional Contributions by
    P. Kraus, H. Kruse, M. H. Lechner, M. C. Schieber, R. A. Shaw,
    A. Alenaizan, R. Galvelis, Z. L. Glick, S. Lehtola, and J. P. Misiewicz

    -----------------------------------------------------------------------


    Psi4 started on: Friday, 10 September 2021 03:54PM

    Process ID: 56820
    Host:       r282
    PSIDATADIR: /home/r08543048/miniconda3/share/psi4
    Memory:     500.0 MiB
    Threads:    1
    
  ==> Input File <==

--------------------------------------------------------------------------
# Any line starting with the # character is a comment line
#! Sample  computation

memory 22 gb

molecule Dimer {
0 1
 C -2.241798   -0.699003   -0.460903
 C -1.746733   -1.181311    0.894962
 H -1.459360   -0.868850   -1.208733
 H -3.081517   -1.342301   -0.741070
 O -0.534949   -0.566905    1.325426
 H -2.484553   -0.943853    1.662840
 H -1.631372   -2.270454    0.874769
 H  0.145745   -0.789013    0.674148
 C -2.693229    0.760191   -0.508660
 H -3.263475    0.914837   -1.427643
 H -3.387525    0.941043    0.316922
 C -1.556398    1.776676   -0.456272
 H -0.846830    1.595530   -1.266448
 H -1.938762    2.791294   -0.571009
 H -1.012378    1.712157    0.482492

    
    
 --
0 1
 C   1.751474   -1.741106   -0.788654
 C   2.030032   -0.435856   -0.891690
 C   2.975266    0.310117   -0.004721
 C   2.291439    1.475693    0.712503
 H   1.057998   -2.224457   -1.463733
 H   2.225930   -2.353880   -0.031935
 H   1.533510    0.144999   -1.664974
 H   3.411269   -0.378980    0.721135
 H   3.796982    0.697962   -0.612946
 H   1.848668    2.164994   -0.007238
 H   1.495980    1.119538    1.366242
 H   3.008958    2.032261    1.314384
   
   





units angstrom

no_reorient
symmetry c1
}

set globals{
  basis jun-cc-pvtz
}

energy('sapt0')


--------------------------------------------------------------------------

  Memory set to  20.489 GiB by Python driver.

  //>>>>>>>>>>>>>>>>>>>>>>>>>>>>>>>>>>>//
  //              Dimer HF             //
  //<<<<<<<<<<<<<<<<<<<<<<<<<<<<<<<<<<<//


*** tstart() called on r282
*** at Fri Sep 10 15:54:00 2021

   => Loading Basis Set <=

    Name: JUN-CC-PVTZ
    Role: ORBITAL
    Keyword: BASIS
    atoms 1-2, 9, 12, 16-19             entry C          line   217 file /home/r08543048/miniconda3/share/psi4/basis/jun-cc-pvtz.gbs 
    atoms 3-4, 6-8, 10-11, 13-15, 20-27 entry H          line    36 file /home/r08543048/miniconda3/share/psi4/basis/jun-cc-pvtz.gbs 
    atoms 5                             entry O          line   305 file /home/r08543048/miniconda3/share/psi4/basis/jun-cc-pvtz.gbs 


         ---------------------------------------------------------
                                   SCF
               by Justin Turney, Rob Parrish, Andy Simmonett
                          and Daniel G. A. Smith
                              RHF Reference
                        1 Threads,  20980 MiB Core
         ---------------------------------------------------------

  ==> Geometry <==

    Molecular point group: c1
    Full point group: C1

    Geometry (in Angstrom), charge = 0, multiplicity = 1:

       Center              X                  Y                   Z               Mass       
    ------------   -----------------  -----------------  -----------------  -----------------
         C           -2.246246401803    -0.676588482732    -0.472918707324    12.000000000000
         C           -1.751181401803    -1.158896482732     0.882946292676    12.000000000000
         H           -1.463808401803    -0.846435482732    -1.220748707324     1.007825032230
         H           -3.085965401803    -1.319886482732    -0.753085707324     1.007825032230
         O           -0.539397401803    -0.544490482732     1.313410292676    15.994914619570
         H           -2.489001401803    -0.921438482732     1.650824292676     1.007825032230
         H           -1.635820401803    -2.248039482732     0.862753292676     1.007825032230
         H            0.141296598197    -0.766598482732     0.662132292676     1.007825032230
         C           -2.697677401803     0.782605517268    -0.520675707324    12.000000000000
         H           -3.267923401803     0.937251517268    -1.439658707324     1.007825032230
         H           -3.391973401803     0.963457517268     0.304906292676     1.007825032230
         C           -1.560846401803     1.799090517268    -0.468287707324    12.000000000000
         H           -0.851278401803     1.617944517268    -1.278463707324     1.007825032230
         H           -1.943210401803     2.813708517268    -0.583024707324     1.007825032230
         H           -1.016826401803     1.734571517268     0.470476292676     1.007825032230
         C            1.747025598197    -1.718691482732    -0.800669707324    12.000000000000
         C            2.025583598197    -0.413441482732    -0.903705707324    12.000000000000
         C            2.970817598197     0.332531517268    -0.016736707324    12.000000000000
         C            2.286990598197     1.498107517268     0.700487292676    12.000000000000
         H            1.053549598197    -2.202042482732    -1.475748707324     1.007825032230
         H            2.221481598197    -2.331465482732    -0.043950707324     1.007825032230
         H            1.529061598197     0.167413517268    -1.676989707324     1.007825032230
         H            3.406820598197    -0.356565482732     0.709119292676     1.007825032230
         H            3.792533598197     0.720376517268    -0.624961707324     1.007825032230
         H            1.844219598197     2.187408517268    -0.019253707324     1.007825032230
         H            1.491531598197     1.141952517268     1.354226292676     1.007825032230
         H            3.004509598197     2.054675517268     1.302368292676     1.007825032230

  Running in c1 symmetry.

  Rotational constants: A =      0.06176  B =      0.02554  C =      0.02231 [cm^-1]
  Rotational constants: A =   1851.62920  B =    765.76091  C =    668.96764 [MHz]
  Nuclear repulsion =  471.213701373516471

  Charge       = 0
  Multiplicity = 1
  Electrons    = 74
  Nalpha       = 37
  Nbeta        = 37

  ==> Algorithm <==

  SCF Algorithm Type is DF.
  DIIS enabled.
  MOM disabled.
  Fractional occupation disabled.
  Guess Type is SAD.
  Energy threshold   = 1.00e-08
  Density threshold  = 1.00e-08
  Integral threshold = 0.00e+00

  ==> Primary Basis <==

  Basis Set: JUN-CC-PVTZ
    Blend: JUN-CC-PVTZ
    Number of shells: 225
    Number of basis function: 603
    Number of Cartesian functions: 675
    Spherical Harmonics?: true
    Max angular momentum: 3

   => Loading Basis Set <=

    Name: (JUN-CC-PVTZ AUX)
    Role: JKFIT
    Keyword: DF_BASIS_SCF
    atoms 1-2, 9, 12, 16-19             entry C          line   152 file /home/r08543048/miniconda3/share/psi4/basis/jun-cc-pvtz-jkfit.gbs 
    atoms 3-4, 6-8, 10-11, 13-15, 20-27 entry H          line    70 file /home/r08543048/miniconda3/share/psi4/basis/jun-cc-pvtz-jkfit.gbs 
    atoms 5                             entry O          line   272 file /home/r08543048/miniconda3/share/psi4/basis/jun-cc-pvtz-jkfit.gbs 

  ==> Pre-Iterations <==

   -------------------------------------------------------
    Irrep   Nso     Nmo     Nalpha   Nbeta   Ndocc  Nsocc
   -------------------------------------------------------
     A        603     603       0       0       0       0
   -------------------------------------------------------
    Total     603     603      37      37      37       0
   -------------------------------------------------------

  ==> Integral Setup <==

  ==> DiskDFJK: Density-Fitted J/K Matrices <==

    J tasked:                  Yes
    K tasked:                  Yes
    wK tasked:                  No
    OpenMP threads:              1
    Integrals threads:           1
    Memory [MiB]:            15735
    Algorithm:                Core
    Integral Cache:           SAVE
    Schwarz Cutoff:          1E-12
    Fitting Condition:       1E-10

   => Auxiliary Basis Set <=

  Basis Set: (JUN-CC-PVTZ AUX)
    Blend: JUN-CC-PVTZ-JKFIT
    Number of shells: 441
    Number of basis function: 1395
    Number of Cartesian functions: 1674
    Spherical Harmonics?: true
    Max angular momentum: 4

  Minimum eigenvalue in the overlap matrix is 3.1165293115E-05.
  Using Symmetric Orthogonalization.

  SCF Guess: Superposition of Atomic Densities via on-the-fly atomic UHF.

  ==> Iterations <==

                           Total Energy        Delta E     RMS |[F,P]|

   @DF-RHF iter SAD:  -387.12801236132640   -3.87128e+02   0.00000e+00 
   @DF-RHF iter   1:  -388.01406139560629   -8.86049e-01   1.33813e-03 DIIS
   @DF-RHF iter   2:  -388.32252138747253   -3.08460e-01   6.55684e-04 DIIS
   @DF-RHF iter   3:  -388.39447665808888   -7.19553e-02   1.25870e-04 DIIS
   @DF-RHF iter   4:  -388.39915551718656   -4.67886e-03   4.39605e-05 DIIS
   @DF-RHF iter   5:  -388.39956679133877   -4.11274e-04   9.72873e-06 DIIS
   @DF-RHF iter   6:  -388.39959283799686   -2.60467e-05   2.55776e-06 DIIS
   @DF-RHF iter   7:  -388.39959494195062   -2.10395e-06   6.15463e-07 DIIS
   @DF-RHF iter   8:  -388.39959509375444   -1.51804e-07   2.10281e-07 DIIS
   @DF-RHF iter   9:  -388.39959511079439   -1.70400e-08   6.58037e-08 DIIS
   @DF-RHF iter  10:  -388.39959511317204   -2.37765e-09   3.06203e-08 DIIS
   @DF-RHF iter  11:  -388.39959511351128   -3.39242e-10   8.24102e-09 DIIS
  Energy and wave function converged.


  ==> Post-Iterations <==

    Orbital Energies [Eh]
    ---------------------

    Doubly Occupied:                                                      

       1A    -20.539319     2A    -11.264186     3A    -11.244684  
       4A    -11.229664     5A    -11.228984     6A    -11.215432  
       7A    -11.213463     8A    -11.212280     9A    -11.199955  
      10A     -1.343448    11A     -1.089742    12A     -1.063751  
      13A     -0.995204    14A     -0.968051    15A     -0.861724  
      16A     -0.859715    17A     -0.786303    18A     -0.765480  
      19A     -0.669165    20A     -0.652333    21A     -0.632775  
      22A     -0.621006    23A     -0.613168    24A     -0.591167  
      25A     -0.574916    26A     -0.555744    27A     -0.540326  
      28A     -0.531152    29A     -0.521194    30A     -0.497354  
      31A     -0.490385    32A     -0.488823    33A     -0.483622  
      34A     -0.469309    35A     -0.454986    36A     -0.416782  
      37A     -0.370048  

    Virtual:                                                              

      38A      0.048805    39A      0.052168    40A      0.055976  
      41A      0.059105    42A      0.066768    43A      0.069783  
      44A      0.073082    45A      0.084572    46A      0.087001  
      47A      0.094612    48A      0.103100    49A      0.105119  
      50A      0.110866    51A      0.112051    52A      0.122264  
      53A      0.129138    54A      0.133927    55A      0.139782  
      56A      0.140118    57A      0.145932    58A      0.155345  
      59A      0.158651    60A      0.160647    61A      0.170883  
      62A      0.174437    63A      0.184234    64A      0.186827  
      65A      0.195613    66A      0.205108    67A      0.209082  
      68A      0.216389    69A      0.221238    70A      0.224686  
      71A      0.242341    72A      0.251776    73A      0.261246  
      74A      0.264530    75A      0.276328    76A      0.279860  
      77A      0.285257    78A      0.291584    79A      0.295271  
      80A      0.299102    81A      0.301682    82A      0.308927  
      83A      0.316927    84A      0.320333    85A      0.323090  
      86A      0.327768    87A      0.331430    88A      0.340190  
      89A      0.344379    90A      0.348921    91A      0.350480  
      92A      0.354245    93A      0.356699    94A      0.363419  
      95A      0.371827    96A      0.374619    97A      0.387857  
      98A      0.390102    99A      0.393753   100A      0.395670  
     101A      0.401234   102A      0.411596   103A      0.413881  
     104A      0.415498   105A      0.422227   106A      0.426685  
     107A      0.441963   108A      0.443285   109A      0.445312  
     110A      0.459751   111A      0.464690   112A      0.473894  
     113A      0.480271   114A      0.493658   115A      0.498035  
     116A      0.503632   117A      0.510446   118A      0.513138  
     119A      0.517411   120A      0.529056   121A      0.531290  
     122A      0.535792   123A      0.547205   124A      0.549409  
     125A      0.555970   126A      0.557566   127A      0.562127  
     128A      0.565136   129A      0.577991   130A      0.584065  
     131A      0.586899   132A      0.591364   133A      0.596773  
     134A      0.605350   135A      0.620408   136A      0.628793  
     137A      0.644193   138A      0.655877   139A      0.659702  
     140A      0.674120   141A      0.687175   142A      0.689733  
     143A      0.700354   144A      0.700851   145A      0.712349  
     146A      0.716587   147A      0.729705   148A      0.737225  
     149A      0.748201   150A      0.751430   151A      0.758856  
     152A      0.763929   153A      0.766041   154A      0.771125  
     155A      0.777147   156A      0.784947   157A      0.792479  
     158A      0.801334   159A      0.804775   160A      0.813019  
     161A      0.817279   162A      0.830771   163A      0.840119  
     164A      0.845766   165A      0.848804   166A      0.857965  
     167A      0.860477   168A      0.867573   169A      0.873793  
     170A      0.879829   171A      0.896629   172A      0.899709  
     173A      0.908306   174A      0.909361   175A      0.915459  
     176A      0.922010   177A      0.930650   178A      0.949373  
     179A      0.954991   180A      0.958612   181A      0.981830  
     182A      0.983374   183A      0.991184   184A      1.008698  
     185A      1.013457   186A      1.025826   187A      1.030637  
     188A      1.044680   189A      1.062153   190A      1.070278  
     191A      1.073047   192A      1.085365   193A      1.093422  
     194A      1.105466   195A      1.127512   196A      1.131608  
     197A      1.146277   198A      1.157162   199A      1.179112  
     200A      1.181931   201A      1.202025   202A      1.210544  
     203A      1.221106   204A      1.228866   205A      1.239475  
     206A      1.245874   207A      1.254672   208A      1.266769  
     209A      1.274191   210A      1.295053   211A      1.305128  
     212A      1.311431   213A      1.325070   214A      1.336142  
     215A      1.346958   216A      1.359367   217A      1.368112  
     218A      1.369106   219A      1.377124   220A      1.387474  
     221A      1.396909   222A      1.404560   223A      1.408728  
     224A      1.416369   225A      1.429114   226A      1.435080  
     227A      1.449798   228A      1.457929   229A      1.463404  
     230A      1.473001   231A      1.484864   232A      1.490872  
     233A      1.498055   234A      1.512850   235A      1.521217  
     236A      1.529604   237A      1.532901   238A      1.539832  
     239A      1.546577   240A      1.559187   241A      1.570846  
     242A      1.576942   243A      1.584239   244A      1.589930  
     245A      1.596566   246A      1.605026   247A      1.617839  
     248A      1.631579   249A      1.634847   250A      1.645656  
     251A      1.650686   252A      1.660611   253A      1.668923  
     254A      1.681373   255A      1.683445   256A      1.692289  
     257A      1.702094   258A      1.710545   259A      1.716892  
     260A      1.723470   261A      1.730452   262A      1.739949  
     263A      1.748012   264A      1.768479   265A      1.778883  
     266A      1.794013   267A      1.794423   268A      1.817944  
     269A      1.828467   270A      1.831134   271A      1.838004  
     272A      1.857977   273A      1.872956   274A      1.875210  
     275A      1.895348   276A      1.903730   277A      1.913031  
     278A      1.920494   279A      1.944254   280A      1.954845  
     281A      1.977853   282A      1.984830   283A      2.001525  
     284A      2.016306   285A      2.025758   286A      2.047947  
     287A      2.097403   288A      2.104376   289A      2.114648  
     290A      2.151364   291A      2.258720   292A      2.293297  
     293A      2.415577   294A      2.476055   295A      2.503514  
     296A      2.524938   297A      2.671446   298A      2.737085  
     299A      2.748545   300A      2.770060   301A      2.789736  
     302A      2.798381   303A      2.815806   304A      2.818785  
     305A      2.829102   306A      2.838214   307A      2.857931  
     308A      2.869040   309A      2.879896   310A      2.889549  
     311A      2.903729   312A      2.908995   313A      2.926755  
     314A      2.931415   315A      2.936025   316A      2.955733  
     317A      2.975846   318A      2.988941   319A      2.993002  
     320A      3.005873   321A      3.018427   322A      3.044720  
     323A      3.046065   324A      3.049125   325A      3.067444  
     326A      3.081931   327A      3.085792   328A      3.096415  
     329A      3.114629   330A      3.120867   331A      3.122548  
     332A      3.136843   333A      3.143420   334A      3.175285  
     335A      3.177878   336A      3.185786   337A      3.194675  
     338A      3.205255   339A      3.209951   340A      3.211701  
     341A      3.225755   342A      3.235541   343A      3.241059  
     344A      3.255792   345A      3.280664   346A      3.295725  
     347A      3.306283   348A      3.317306   349A      3.323194  
     350A      3.327586   351A      3.337261   352A      3.347896  
     353A      3.367279   354A      3.372854   355A      3.381326  
     356A      3.386584   357A      3.404699   358A      3.407844  
     359A      3.419356   360A      3.431320   361A      3.434096  
     362A      3.448326   363A      3.452916   364A      3.458714  
     365A      3.462125   366A      3.476170   367A      3.480605  
     368A      3.486807   369A      3.489969   370A      3.496994  
     371A      3.500522   372A      3.509837   373A      3.516103  
     374A      3.523141   375A      3.529483   376A      3.534657  
     377A      3.541145   378A      3.552220   379A      3.556706  
     380A      3.561812   381A      3.567893   382A      3.573972  
     383A      3.582615   384A      3.595083   385A      3.598986  
     386A      3.610994   387A      3.625590   388A      3.631295  
     389A      3.643730   390A      3.652760   391A      3.679796  
     392A      3.691356   393A      3.709082   394A      3.713549  
     395A      3.729080   396A      3.732548   397A      3.742519  
     398A      3.769199   399A      3.771567   400A      3.784546  
     401A      3.787356   402A      3.799452   403A      3.808502  
     404A      3.816990   405A      3.829344   406A      3.840101  
     407A      3.847253   408A      3.860769   409A      3.872741  
     410A      3.877929   411A      3.904894   412A      3.911578  
     413A      3.927672   414A      3.928422   415A      3.942652  
     416A      3.952200   417A      3.965734   418A      3.970639  
     419A      3.986646   420A      3.989903   421A      3.998145  
     422A      4.015655   423A      4.021240   424A      4.028862  
     425A      4.049341   426A      4.066692   427A      4.089153  
     428A      4.097835   429A      4.114073   430A      4.133075  
     431A      4.138965   432A      4.154881   433A      4.169121  
     434A      4.189293   435A      4.199014   436A      4.216885  
     437A      4.222489   438A      4.232795   439A      4.242149  
     440A      4.254336   441A      4.269484   442A      4.276451  
     443A      4.283838   444A      4.286776   445A      4.298733  
     446A      4.312735   447A      4.334426   448A      4.339033  
     449A      4.352845   450A      4.355858   451A      4.361470  
     452A      4.371798   453A      4.378748   454A      4.383639  
     455A      4.394716   456A      4.404139   457A      4.411598  
     458A      4.419812   459A      4.431952   460A      4.442728  
     461A      4.453505   462A      4.461912   463A      4.470494  
     464A      4.480623   465A      4.488832   466A      4.494696  
     467A      4.501580   468A      4.513748   469A      4.524664  
     470A      4.537501   471A      4.540856   472A      4.559129  
     473A      4.561501   474A      4.570744   475A      4.581959  
     476A      4.592689   477A      4.599857   478A      4.612438  
     479A      4.619095   480A      4.635091   481A      4.645313  
     482A      4.657800   483A      4.668828   484A      4.671355  
     485A      4.680576   486A      4.691002   487A      4.712676  
     488A      4.720016   489A      4.735711   490A      4.758315  
     491A      4.770998   492A      4.787801   493A      4.800053  
     494A      4.816792   495A      4.828192   496A      4.836190  
     497A      4.848274   498A      4.854968   499A      4.861570  
     500A      4.871814   501A      4.904698   502A      4.924092  
     503A      4.935643   504A      4.950699   505A      4.965353  
     506A      4.974047   507A      5.007686   508A      5.037797  
     509A      5.066314   510A      5.074724   511A      5.077225  
     512A      5.091345   513A      5.113895   514A      5.144841  
     515A      5.179827   516A      5.201150   517A      5.206628  
     518A      5.218959   519A      5.242470   520A      5.251928  
     521A      5.260471   522A      5.265429   523A      5.288119  
     524A      5.301998   525A      5.303074   526A      5.311051  
     527A      5.320624   528A      5.322951   529A      5.346012  
     530A      5.364098   531A      5.379030   532A      5.398196  
     533A      5.401940   534A      5.412745   535A      5.430429  
     536A      5.434476   537A      5.459110   538A      5.486179  
     539A      5.510620   540A      5.524226   541A      5.570589  
     542A      5.588075   543A      5.598466   544A      5.602907  
     545A      5.613357   546A      5.658383   547A      5.667567  
     548A      5.694300   549A      5.729180   550A      5.758941  
     551A      5.768450   552A      5.774418   553A      5.780924  
     554A      5.789433   555A      5.804371   556A      5.828190  
     557A      5.834503   558A      5.852406   559A      5.870189  
     560A      5.879387   561A      5.904802   562A      5.920008  
     563A      5.942961   564A      5.960285   565A      5.969478  
     566A      5.983755   567A      6.014479   568A      6.021561  
     569A      6.077641   570A      6.119845   571A      6.166127  
     572A      6.217719   573A      6.327436   574A      6.406309  
     575A      6.468536   576A      6.478246   577A      6.511301  
     578A      6.518001   579A      6.543897   580A      6.551705  
     581A      6.581752   582A      6.583833   583A      6.593989  
     584A      6.641341   585A      6.702609   586A      6.987110  
     587A      7.086508   588A      7.263384   589A      7.348698  
     590A      7.443037   591A      7.569762   592A      7.714455  
     593A      7.921622   594A      8.214172   595A     12.589627  
     596A     13.636128   597A     13.831517   598A     14.026339  
     599A     14.088298   600A     14.229129   601A     14.644601  
     602A     14.786493   603A     15.377776  

    Final Occupation by Irrep:
              A 
    DOCC [    37 ]

  @DF-RHF Final Energy:  -388.39959511351128

   => Energetics <=

    Nuclear Repulsion Energy =            471.2137013735164714
    One-Electron Energy =               -1460.7153158044311567
    Two-Electron Energy =                 601.1020193174034603
    Total Energy =                       -388.3995951135112819

Computation Completed


Properties will be evaluated at   0.000000,   0.000000,   0.000000 [a0]

Properties computed using the SCF density matrix

  Nuclear Dipole Moment: [e a0]
     X:    -0.6221      Y:     3.1344      Z:    -1.6803

  Electronic Dipole Moment: [e a0]
     X:     0.7313      Y:    -3.3188      Z:     1.1413

  Dipole Moment: [e a0]
     X:     0.1092      Y:    -0.1844      Z:    -0.5389     Total:     0.5800

  Dipole Moment: [D]
     X:     0.2776      Y:    -0.4686      Z:    -1.3698     Total:     1.4741


*** tstop() called on r282 at Fri Sep 10 15:56:14 2021
Module time:
	user time   =     130.87 seconds =       2.18 minutes
	system time =       2.25 seconds =       0.04 minutes
	total time  =        134 seconds =       2.23 minutes
Total time:
	user time   =     130.87 seconds =       2.18 minutes
	system time =       2.25 seconds =       0.04 minutes
	total time  =        134 seconds =       2.23 minutes

  //>>>>>>>>>>>>>>>>>>>>>>>>>>>>>>>>>>>//
  //            Monomer A HF           //
  //<<<<<<<<<<<<<<<<<<<<<<<<<<<<<<<<<<<//


*** tstart() called on r282
*** at Fri Sep 10 15:56:14 2021

   => Loading Basis Set <=

    Name: JUN-CC-PVTZ
    Role: ORBITAL
    Keyword: BASIS
    atoms 1-2, 9, 12, 16-19             entry C          line   217 file /home/r08543048/miniconda3/share/psi4/basis/jun-cc-pvtz.gbs 
    atoms 3-4, 6-8, 10-11, 13-15, 20-27 entry H          line    36 file /home/r08543048/miniconda3/share/psi4/basis/jun-cc-pvtz.gbs 
    atoms 5                             entry O          line   305 file /home/r08543048/miniconda3/share/psi4/basis/jun-cc-pvtz.gbs 


         ---------------------------------------------------------
                                   SCF
               by Justin Turney, Rob Parrish, Andy Simmonett
                          and Daniel G. A. Smith
                              RHF Reference
                        1 Threads,  20980 MiB Core
         ---------------------------------------------------------

  ==> Geometry <==

    Molecular point group: c1
    Full point group: C1

    Geometry (in Angstrom), charge = 0, multiplicity = 1:

       Center              X                  Y                   Z               Mass       
    ------------   -----------------  -----------------  -----------------  -----------------
         C           -2.246246401803    -0.676588482732    -0.472918707324    12.000000000000
         C           -1.751181401803    -1.158896482732     0.882946292676    12.000000000000
         H           -1.463808401803    -0.846435482732    -1.220748707324     1.007825032230
         H           -3.085965401803    -1.319886482732    -0.753085707324     1.007825032230
         O           -0.539397401803    -0.544490482732     1.313410292676    15.994914619570
         H           -2.489001401803    -0.921438482732     1.650824292676     1.007825032230
         H           -1.635820401803    -2.248039482732     0.862753292676     1.007825032230
         H            0.141296598197    -0.766598482732     0.662132292676     1.007825032230
         C           -2.697677401803     0.782605517268    -0.520675707324    12.000000000000
         H           -3.267923401803     0.937251517268    -1.439658707324     1.007825032230
         H           -3.391973401803     0.963457517268     0.304906292676     1.007825032230
         C           -1.560846401803     1.799090517268    -0.468287707324    12.000000000000
         H           -0.851278401803     1.617944517268    -1.278463707324     1.007825032230
         H           -1.943210401803     2.813708517268    -0.583024707324     1.007825032230
         H           -1.016826401803     1.734571517268     0.470476292676     1.007825032230
      Gh(C)           1.747025598197    -1.718691482732    -0.800669707324    12.000000000000
      Gh(C)           2.025583598197    -0.413441482732    -0.903705707324    12.000000000000
      Gh(C)           2.970817598197     0.332531517268    -0.016736707324    12.000000000000
      Gh(C)           2.286990598197     1.498107517268     0.700487292676    12.000000000000
      Gh(H)           1.053549598197    -2.202042482732    -1.475748707324     1.007825032230
      Gh(H)           2.221481598197    -2.331465482732    -0.043950707324     1.007825032230
      Gh(H)           1.529061598197     0.167413517268    -1.676989707324     1.007825032230
      Gh(H)           3.406820598197    -0.356565482732     0.709119292676     1.007825032230
      Gh(H)           3.792533598197     0.720376517268    -0.624961707324     1.007825032230
      Gh(H)           1.844219598197     2.187408517268    -0.019253707324     1.007825032230
      Gh(H)           1.491531598197     1.141952517268     1.354226292676     1.007825032230
      Gh(H)           3.004509598197     2.054675517268     1.302368292676     1.007825032230

  Running in c1 symmetry.

  Rotational constants: A =      0.06176  B =      0.02554  C =      0.02231 [cm^-1]
  Rotational constants: A =   1851.62920  B =    765.76091  C =    668.96764 [MHz]
  Nuclear repulsion =  192.240438957031301

  Charge       = 0
  Multiplicity = 1
  Electrons    = 42
  Nalpha       = 21
  Nbeta        = 21

  ==> Algorithm <==

  SCF Algorithm Type is DF.
  DIIS enabled.
  MOM disabled.
  Fractional occupation disabled.
  Guess Type is SAD.
  Energy threshold   = 1.00e-08
  Density threshold  = 1.00e-08
  Integral threshold = 0.00e+00

  ==> Primary Basis <==

  Basis Set: JUN-CC-PVTZ
    Blend: JUN-CC-PVTZ
    Number of shells: 225
    Number of basis function: 603
    Number of Cartesian functions: 675
    Spherical Harmonics?: true
    Max angular momentum: 3

   => Loading Basis Set <=

    Name: (JUN-CC-PVTZ AUX)
    Role: JKFIT
    Keyword: DF_BASIS_SCF
    atoms 1-2, 9, 12, 16-19             entry C          line   152 file /home/r08543048/miniconda3/share/psi4/basis/jun-cc-pvtz-jkfit.gbs 
    atoms 3-4, 6-8, 10-11, 13-15, 20-27 entry H          line    70 file /home/r08543048/miniconda3/share/psi4/basis/jun-cc-pvtz-jkfit.gbs 
    atoms 5                             entry O          line   272 file /home/r08543048/miniconda3/share/psi4/basis/jun-cc-pvtz-jkfit.gbs 

  ==> Pre-Iterations <==

   -------------------------------------------------------
    Irrep   Nso     Nmo     Nalpha   Nbeta   Ndocc  Nsocc
   -------------------------------------------------------
     A        603     603       0       0       0       0
   -------------------------------------------------------
    Total     603     603      21      21      21       0
   -------------------------------------------------------

  ==> Integral Setup <==

  ==> DiskDFJK: Density-Fitted J/K Matrices <==

    J tasked:                  Yes
    K tasked:                  Yes
    wK tasked:                  No
    OpenMP threads:              1
    Integrals threads:           1
    Memory [MiB]:            15735
    Algorithm:                Core
    Integral Cache:           LOAD
    Schwarz Cutoff:          1E-12
    Fitting Condition:       1E-10

   => Auxiliary Basis Set <=

  Basis Set: (JUN-CC-PVTZ AUX)
    Blend: JUN-CC-PVTZ-JKFIT
    Number of shells: 441
    Number of basis function: 1395
    Number of Cartesian functions: 1674
    Spherical Harmonics?: true
    Max angular momentum: 4

  Minimum eigenvalue in the overlap matrix is 3.1165293115E-05.
  Using Symmetric Orthogonalization.

  SCF Guess: Superposition of Atomic Densities via on-the-fly atomic UHF.

  ==> Iterations <==

                           Total Energy        Delta E     RMS |[F,P]|

   @DF-RHF iter SAD:  -231.56497442592078   -2.31565e+02   0.00000e+00 
   @DF-RHF iter   1:  -232.00807301489962   -4.43099e-01   1.04903e-03 DIIS
   @DF-RHF iter   2:  -232.18507521655729   -1.77002e-01   5.55685e-04 DIIS
   @DF-RHF iter   3:  -232.23310160336428   -4.80264e-02   9.53891e-05 DIIS
   @DF-RHF iter   4:  -232.23583802639541   -2.73642e-03   3.22362e-05 DIIS
   @DF-RHF iter   5:  -232.23605523683563   -2.17210e-04   8.22083e-06 DIIS
   @DF-RHF iter   6:  -232.23607274999020   -1.75132e-05   1.86913e-06 DIIS
   @DF-RHF iter   7:  -232.23607405315971   -1.30317e-06   4.55308e-07 DIIS
   @DF-RHF iter   8:  -232.23607413426882   -8.11091e-08   1.44806e-07 DIIS
   @DF-RHF iter   9:  -232.23607414285678   -8.58796e-09   4.01918e-08 DIIS
   @DF-RHF iter  10:  -232.23607414361493   -7.58149e-10   9.37981e-09 DIIS
  Energy and wave function converged.


  ==> Post-Iterations <==

    Orbital Energies [Eh]
    ---------------------

    Doubly Occupied:                                                      

       1A    -20.555191     2A    -11.271852     3A    -11.221081  
       4A    -11.216827     5A    -11.202067     6A     -1.355705  
       7A     -1.068344     8A     -0.972830     9A     -0.866042  
      10A     -0.791146    11A     -0.676875    12A     -0.639139  
      13A     -0.628192    14A     -0.580116    15A     -0.561078  
      16A     -0.536553    17A     -0.504164    18A     -0.494940  
      19A     -0.473645    20A     -0.460183    21A     -0.425206  

    Virtual:                                                              

      22A      0.029258    23A      0.044079    24A      0.051958  
      25A      0.054570    26A      0.063881    27A      0.067133  
      28A      0.069772    29A      0.081448    30A      0.082912  
      31A      0.092431    32A      0.097695    33A      0.100064  
      34A      0.108874    35A      0.110138    36A      0.116179  
      37A      0.123728    38A      0.129138    39A      0.130802  
      40A      0.136109    41A      0.140128    42A      0.147024  
      43A      0.148618    44A      0.156912    45A      0.161686  
      46A      0.169649    47A      0.174323    48A      0.180729  
      49A      0.183857    50A      0.189611    51A      0.198162  
      52A      0.210717    53A      0.212557    54A      0.220481  
      55A      0.229082    56A      0.243054    57A      0.250907  
      58A      0.263361    59A      0.269160    60A      0.278198  
      61A      0.279234    62A      0.285467    63A      0.290198  
      64A      0.294853    65A      0.303034    66A      0.307721  
      67A      0.315426    68A      0.323060    69A      0.325160  
      70A      0.332703    71A      0.335800    72A      0.340830  
      73A      0.346549    74A      0.349559    75A      0.355932  
      76A      0.360298    77A      0.370631    78A      0.373571  
      79A      0.374891    80A      0.378502    81A      0.384941  
      82A      0.390542    83A      0.395223    84A      0.401731  
      85A      0.405413    86A      0.412259    87A      0.420613  
      88A      0.427943    89A      0.432361    90A      0.435677  
      91A      0.439625    92A      0.452361    93A      0.456105  
      94A      0.458093    95A      0.472193    96A      0.477427  
      97A      0.483227    98A      0.490035    99A      0.493610  
     100A      0.506758   101A      0.509473   102A      0.522810  
     103A      0.528044   104A      0.532448   105A      0.533361  
     106A      0.542067   107A      0.549438   108A      0.551628  
     109A      0.556704   110A      0.563788   111A      0.574480  
     112A      0.577094   113A      0.579987   114A      0.586148  
     115A      0.592054   116A      0.593352   117A      0.605992  
     118A      0.613631   119A      0.624689   120A      0.628241  
     121A      0.631219   122A      0.641875   123A      0.650179  
     124A      0.661386   125A      0.673031   126A      0.675531  
     127A      0.682087   128A      0.685555   129A      0.697333  
     130A      0.703115   131A      0.710318   132A      0.713378  
     133A      0.724364   134A      0.738835   135A      0.742751  
     136A      0.745044   137A      0.756956   138A      0.766119  
     139A      0.774937   140A      0.782288   141A      0.786999  
     142A      0.797845   143A      0.809898   144A      0.813274  
     145A      0.826933   146A      0.829834   147A      0.838436  
     148A      0.848116   149A      0.853936   150A      0.862995  
     151A      0.871748   152A      0.882936   153A      0.897566  
     154A      0.910469   155A      0.917389   156A      0.920940  
     157A      0.935733   158A      0.970871   159A      0.977835  
     160A      0.989787   161A      1.003291   162A      1.019327  
     163A      1.031306   164A      1.041835   165A      1.056107  
     166A      1.062771   167A      1.084046   168A      1.101305  
     169A      1.106470   170A      1.113350   171A      1.125250  
     172A      1.143804   173A      1.152863   174A      1.162780  
     175A      1.173343   176A      1.174513   177A      1.190431  
     178A      1.199333   179A      1.205565   180A      1.220003  
     181A      1.227007   182A      1.241473   183A      1.249221  
     184A      1.254687   185A      1.265220   186A      1.273365  
     187A      1.275202   188A      1.290710   189A      1.301825  
     190A      1.313373   191A      1.317681   192A      1.324052  
     193A      1.330049   194A      1.341664   195A      1.344955  
     196A      1.345836   197A      1.369274   198A      1.372708  
     199A      1.374193   200A      1.389250   201A      1.398744  
     202A      1.400475   203A      1.410282   204A      1.416119  
     205A      1.426901   206A      1.433127   207A      1.435161  
     208A      1.452667   209A      1.455881   210A      1.467048  
     211A      1.473023   212A      1.484556   213A      1.487472  
     214A      1.496719   215A      1.504521   216A      1.515283  
     217A      1.524533   218A      1.531169   219A      1.541622  
     220A      1.544384   221A      1.547427   222A      1.558833  
     223A      1.560128   224A      1.572344   225A      1.577311  
     226A      1.578706   227A      1.586895   228A      1.590849  
     229A      1.595737   230A      1.609482   231A      1.625393  
     232A      1.627258   233A      1.636345   234A      1.655788  
     235A      1.662236   236A      1.668707   237A      1.688871  
     238A      1.691156   239A      1.704327   240A      1.710326  
     241A      1.718071   242A      1.720226   243A      1.728630  
     244A      1.738786   245A      1.746426   246A      1.753035  
     247A      1.771840   248A      1.778067   249A      1.785581  
     250A      1.813695   251A      1.824921   252A      1.831314  
     253A      1.849241   254A      1.865516   255A      1.871824  
     256A      1.887302   257A      1.891325   258A      1.907709  
     259A      1.916179   260A      1.922692   261A      1.948219  
     262A      1.970837   263A      1.976582   264A      1.989418  
     265A      1.996211   266A      2.011860   267A      2.026019  
     268A      2.055856   269A      2.100616   270A      2.102554  
     271A      2.126125   272A      2.135259   273A      2.152060  
     274A      2.201105   275A      2.215443   276A      2.236405  
     277A      2.272733   278A      2.311360   279A      2.372518  
     280A      2.384773   281A      2.424214   282A      2.425610  
     283A      2.460260   284A      2.481808   285A      2.509327  
     286A      2.515563   287A      2.532048   288A      2.546255  
     289A      2.580790   290A      2.611344   291A      2.702634  
     292A      2.742056   293A      2.793759   294A      2.812463  
     295A      2.824693   296A      2.853422   297A      2.888561  
     298A      2.899641   299A      2.925927   300A      2.934626  
     301A      2.939140   302A      2.961161   303A      2.994816  
     304A      3.026668   305A      3.045054   306A      3.063553  
     307A      3.079750   308A      3.094030   309A      3.114171  
     310A      3.138684   311A      3.169452   312A      3.185890  
     313A      3.199257   314A      3.220102   315A      3.251300  
     316A      3.272463   317A      3.277980   318A      3.321231  
     319A      3.326169   320A      3.368222   321A      3.398153  
     322A      3.400768   323A      3.411509   324A      3.434597  
     325A      3.442707   326A      3.448724   327A      3.452436  
     328A      3.465320   329A      3.470739   330A      3.480588  
     331A      3.486774   332A      3.495716   333A      3.512732  
     334A      3.518565   335A      3.527697   336A      3.538555  
     337A      3.542307   338A      3.551220   339A      3.566057  
     340A      3.569698   341A      3.587962   342A      3.591410  
     343A      3.595094   344A      3.608181   345A      3.617301  
     346A      3.633795   347A      3.644389   348A      3.654158  
     349A      3.661345   350A      3.667148   351A      3.682100  
     352A      3.699585   353A      3.703322   354A      3.705557  
     355A      3.735150   356A      3.741971   357A      3.757500  
     358A      3.762889   359A      3.777434   360A      3.779692  
     361A      3.791690   362A      3.797492   363A      3.802687  
     364A      3.817117   365A      3.826461   366A      3.837931  
     367A      3.847226   368A      3.850021   369A      3.864911  
     370A      3.870988   371A      3.875409   372A      3.900918  
     373A      3.919989   374A      3.928374   375A      3.936231  
     376A      3.944311   377A      3.961754   378A      3.969541  
     379A      3.974089   380A      3.981580   381A      3.992099  
     382A      4.000761   383A      4.019347   384A      4.030493  
     385A      4.055679   386A      4.075751   387A      4.098590  
     388A      4.101904   389A      4.107055   390A      4.111574  
     391A      4.129694   392A      4.139014   393A      4.145760  
     394A      4.163689   395A      4.176419   396A      4.184149  
     397A      4.196926   398A      4.210488   399A      4.228836  
     400A      4.246388   401A      4.251854   402A      4.257208  
     403A      4.264912   404A      4.271982   405A      4.291637  
     406A      4.300474   407A      4.308743   408A      4.325070  
     409A      4.347682   410A      4.350769   411A      4.359420  
     412A      4.371208   413A      4.377703   414A      4.386269  
     415A      4.394814   416A      4.411344   417A      4.424155  
     418A      4.429740   419A      4.445095   420A      4.455274  
     421A      4.457671   422A      4.467880   423A      4.483223  
     424A      4.489425   425A      4.501375   426A      4.506030  
     427A      4.514258   428A      4.519821   429A      4.530558  
     430A      4.538617   431A      4.540629   432A      4.557494  
     433A      4.565270   434A      4.569716   435A      4.581277  
     436A      4.586701   437A      4.601775   438A      4.616483  
     439A      4.624352   440A      4.628312   441A      4.639829  
     442A      4.645189   443A      4.649338   444A      4.662449  
     445A      4.666331   446A      4.675592   447A      4.695695  
     448A      4.711567   449A      4.718225   450A      4.719620  
     451A      4.737511   452A      4.746218   453A      4.758890  
     454A      4.764766   455A      4.772063   456A      4.780935  
     457A      4.801900   458A      4.814866   459A      4.822810  
     460A      4.832613   461A      4.833579   462A      4.845037  
     463A      4.847599   464A      4.855525   465A      4.856844  
     466A      4.873806   467A      4.884354   468A      4.896416  
     469A      4.917407   470A      4.918668   471A      4.934072  
     472A      4.939230   473A      4.949606   474A      4.962771  
     475A      4.971848   476A      4.984246   477A      4.994416  
     478A      5.018006   479A      5.033446   480A      5.036072  
     481A      5.060362   482A      5.066120   483A      5.070157  
     484A      5.078462   485A      5.085840   486A      5.098216  
     487A      5.111347   488A      5.138175   489A      5.160575  
     490A      5.185631   491A      5.188186   492A      5.200149  
     493A      5.208419   494A      5.236861   495A      5.242087  
     496A      5.256051   497A      5.270323   498A      5.298033  
     499A      5.307056   500A      5.318949   501A      5.321123  
     502A      5.337512   503A      5.365911   504A      5.372788  
     505A      5.386350   506A      5.398402   507A      5.426905  
     508A      5.430015   509A      5.455199   510A      5.471760  
     511A      5.478785   512A      5.487910   513A      5.507241  
     514A      5.563312   515A      5.568949   516A      5.587180  
     517A      5.609614   518A      5.645725   519A      5.656930  
     520A      5.662653   521A      5.680761   522A      5.715525  
     523A      5.737423   524A      5.774938   525A      5.778456  
     526A      5.796143   527A      5.814516   528A      5.822361  
     529A      5.830078   530A      5.848240   531A      5.865677  
     532A      5.874238   533A      5.896142   534A      5.938575  
     535A      5.951432   536A      5.975043   537A      5.975536  
     538A      6.012134   539A      6.032547   540A      6.052307  
     541A      6.068523   542A      6.079420   543A      6.111655  
     544A      6.156995   545A      6.197174   546A      6.211311  
     547A      6.265490   548A      6.317590   549A      6.339453  
     550A      6.366181   551A      6.409046   552A      6.414510  
     553A      6.458452   554A      6.461055   555A      6.503528  
     556A      6.541229   557A      6.546418   558A      6.578117  
     559A      6.590471   560A      6.636247   561A      6.651732  
     562A      6.731627   563A      6.797674   564A      6.862751  
     565A      6.939114   566A      6.978030   567A      7.071733  
     568A      7.089003   569A      7.248102   570A      7.328115  
     571A      7.359533   572A      7.400908   573A      7.433498  
     574A      7.486072   575A      7.556632   576A      7.572809  
     577A      7.601017   578A      7.680222   579A      7.703481  
     580A      7.724398   581A      7.842905   582A      7.894596  
     583A      7.910987   584A      7.968503   585A      7.974177  
     586A      8.131898   587A      8.201085   588A      8.267782  
     589A      8.443540   590A      8.800710   591A      9.452337  
     592A      9.683344   593A      9.933261   594A     10.218169  
     595A     13.629611   596A     13.828410   597A     14.082047  
     598A     14.219923   599A     14.767302   600A     41.676595  
     601A     44.794520   602A     45.808313   603A     47.228958  

    Final Occupation by Irrep:
              A 
    DOCC [    21 ]

  @DF-RHF Final Energy:  -232.23607414361493

   => Energetics <=

    Nuclear Repulsion Energy =            192.2404389570313015
    One-Electron Energy =                -695.9506724214126052
    Two-Electron Energy =                 271.4741593207663755
    Total Energy =                       -232.2360741436149283

Computation Completed


Properties will be evaluated at   0.000000,   0.000000,   0.000000 [a0]

Properties computed using the SCF density matrix

  Nuclear Dipole Moment: [e a0]
     X:  -137.6768      Y:     3.9417      Z:    10.7899

  Electronic Dipole Moment: [e a0]
     X:   137.5369      Y:    -4.3078      Z:   -11.3565

  Dipole Moment: [e a0]
     X:    -0.1399      Y:    -0.3661      Z:    -0.5666     Total:     0.6889

  Dipole Moment: [D]
     X:    -0.3555      Y:    -0.9306      Z:    -1.4401     Total:     1.7511


*** tstop() called on r282 at Fri Sep 10 15:57:31 2021
Module time:
	user time   =      76.28 seconds =       1.27 minutes
	system time =       1.11 seconds =       0.02 minutes
	total time  =         77 seconds =       1.28 minutes
Total time:
	user time   =     207.15 seconds =       3.45 minutes
	system time =       3.36 seconds =       0.06 minutes
	total time  =        211 seconds =       3.52 minutes

  //>>>>>>>>>>>>>>>>>>>>>>>>>>>>>>>>>>>//
  //            Monomer B HF           //
  //<<<<<<<<<<<<<<<<<<<<<<<<<<<<<<<<<<<//


*** tstart() called on r282
*** at Fri Sep 10 15:57:31 2021

   => Loading Basis Set <=

    Name: JUN-CC-PVTZ
    Role: ORBITAL
    Keyword: BASIS
    atoms 1-2, 9, 12, 16-19             entry C          line   217 file /home/r08543048/miniconda3/share/psi4/basis/jun-cc-pvtz.gbs 
    atoms 3-4, 6-8, 10-11, 13-15, 20-27 entry H          line    36 file /home/r08543048/miniconda3/share/psi4/basis/jun-cc-pvtz.gbs 
    atoms 5                             entry O          line   305 file /home/r08543048/miniconda3/share/psi4/basis/jun-cc-pvtz.gbs 


         ---------------------------------------------------------
                                   SCF
               by Justin Turney, Rob Parrish, Andy Simmonett
                          and Daniel G. A. Smith
                              RHF Reference
                        1 Threads,  20980 MiB Core
         ---------------------------------------------------------

  ==> Geometry <==

    Molecular point group: c1
    Full point group: C1

    Geometry (in Angstrom), charge = 0, multiplicity = 1:

       Center              X                  Y                   Z               Mass       
    ------------   -----------------  -----------------  -----------------  -----------------
      Gh(C)          -2.246246401803    -0.676588482732    -0.472918707324    12.000000000000
      Gh(C)          -1.751181401803    -1.158896482732     0.882946292676    12.000000000000
      Gh(H)          -1.463808401803    -0.846435482732    -1.220748707324     1.007825032230
      Gh(H)          -3.085965401803    -1.319886482732    -0.753085707324     1.007825032230
      Gh(O)          -0.539397401803    -0.544490482732     1.313410292676    15.994914619570
      Gh(H)          -2.489001401803    -0.921438482732     1.650824292676     1.007825032230
      Gh(H)          -1.635820401803    -2.248039482732     0.862753292676     1.007825032230
      Gh(H)           0.141296598197    -0.766598482732     0.662132292676     1.007825032230
      Gh(C)          -2.697677401803     0.782605517268    -0.520675707324    12.000000000000
      Gh(H)          -3.267923401803     0.937251517268    -1.439658707324     1.007825032230
      Gh(H)          -3.391973401803     0.963457517268     0.304906292676     1.007825032230
      Gh(C)          -1.560846401803     1.799090517268    -0.468287707324    12.000000000000
      Gh(H)          -0.851278401803     1.617944517268    -1.278463707324     1.007825032230
      Gh(H)          -1.943210401803     2.813708517268    -0.583024707324     1.007825032230
      Gh(H)          -1.016826401803     1.734571517268     0.470476292676     1.007825032230
         C            1.747025598197    -1.718691482732    -0.800669707324    12.000000000000
         C            2.025583598197    -0.413441482732    -0.903705707324    12.000000000000
         C            2.970817598197     0.332531517268    -0.016736707324    12.000000000000
         C            2.286990598197     1.498107517268     0.700487292676    12.000000000000
         H            1.053549598197    -2.202042482732    -1.475748707324     1.007825032230
         H            2.221481598197    -2.331465482732    -0.043950707324     1.007825032230
         H            1.529061598197     0.167413517268    -1.676989707324     1.007825032230
         H            3.406820598197    -0.356565482732     0.709119292676     1.007825032230
         H            3.792533598197     0.720376517268    -0.624961707324     1.007825032230
         H            1.844219598197     2.187408517268    -0.019253707324     1.007825032230
         H            1.491531598197     1.141952517268     1.354226292676     1.007825032230
         H            3.004509598197     2.054675517268     1.302368292676     1.007825032230

  Running in c1 symmetry.

  Rotational constants: A =      0.06176  B =      0.02554  C =      0.02231 [cm^-1]
  Rotational constants: A =   1851.62920  B =    765.76091  C =    668.96764 [MHz]
  Nuclear repulsion =  117.321567057537422

  Charge       = 0
  Multiplicity = 1
  Electrons    = 32
  Nalpha       = 16
  Nbeta        = 16

  ==> Algorithm <==

  SCF Algorithm Type is DF.
  DIIS enabled.
  MOM disabled.
  Fractional occupation disabled.
  Guess Type is SAD.
  Energy threshold   = 1.00e-08
  Density threshold  = 1.00e-08
  Integral threshold = 0.00e+00

  ==> Primary Basis <==

  Basis Set: JUN-CC-PVTZ
    Blend: JUN-CC-PVTZ
    Number of shells: 225
    Number of basis function: 603
    Number of Cartesian functions: 675
    Spherical Harmonics?: true
    Max angular momentum: 3

   => Loading Basis Set <=

    Name: (JUN-CC-PVTZ AUX)
    Role: JKFIT
    Keyword: DF_BASIS_SCF
    atoms 1-2, 9, 12, 16-19             entry C          line   152 file /home/r08543048/miniconda3/share/psi4/basis/jun-cc-pvtz-jkfit.gbs 
    atoms 3-4, 6-8, 10-11, 13-15, 20-27 entry H          line    70 file /home/r08543048/miniconda3/share/psi4/basis/jun-cc-pvtz-jkfit.gbs 
    atoms 5                             entry O          line   272 file /home/r08543048/miniconda3/share/psi4/basis/jun-cc-pvtz-jkfit.gbs 

  ==> Pre-Iterations <==

   -------------------------------------------------------
    Irrep   Nso     Nmo     Nalpha   Nbeta   Ndocc  Nsocc
   -------------------------------------------------------
     A        603     603       0       0       0       0
   -------------------------------------------------------
    Total     603     603      16      16      16       0
   -------------------------------------------------------

  ==> Integral Setup <==

  ==> DiskDFJK: Density-Fitted J/K Matrices <==

    J tasked:                  Yes
    K tasked:                  Yes
    wK tasked:                  No
    OpenMP threads:              1
    Integrals threads:           1
    Memory [MiB]:            15735
    Algorithm:                Core
    Integral Cache:           LOAD
    Schwarz Cutoff:          1E-12
    Fitting Condition:       1E-10

   => Auxiliary Basis Set <=

  Basis Set: (JUN-CC-PVTZ AUX)
    Blend: JUN-CC-PVTZ-JKFIT
    Number of shells: 441
    Number of basis function: 1395
    Number of Cartesian functions: 1674
    Spherical Harmonics?: true
    Max angular momentum: 4

  Minimum eigenvalue in the overlap matrix is 3.1165293115E-05.
  Using Symmetric Orthogonalization.

  SCF Guess: Superposition of Atomic Densities via on-the-fly atomic UHF.

  ==> Iterations <==

                           Total Energy        Delta E     RMS |[F,P]|

   @DF-RHF iter SAD:  -155.37693655916473   -1.55377e+02   0.00000e+00 
   @DF-RHF iter   1:  -155.99513241811147   -6.18196e-01   8.65267e-04 DIIS
   @DF-RHF iter   2:  -156.13473567486855   -1.39603e-01   3.81976e-04 DIIS
   @DF-RHF iter   3:  -156.16241642629589   -2.76808e-02   7.38682e-05 DIIS
   @DF-RHF iter   4:  -156.16425234413211   -1.83592e-03   2.73729e-05 DIIS
   @DF-RHF iter   5:  -156.16441921631710   -1.66872e-04   5.12743e-06 DIIS
   @DF-RHF iter   6:  -156.16442805292377   -8.83661e-06   9.27662e-07 DIIS
   @DF-RHF iter   7:  -156.16442840270813   -3.49784e-07   2.56457e-07 DIIS
   @DF-RHF iter   8:  -156.16442842955027   -2.68421e-08   7.65941e-08 DIIS
   @DF-RHF iter   9:  -156.16442843229791   -2.74764e-09   3.29049e-08 DIIS
   @DF-RHF iter  10:  -156.16442843285296   -5.55048e-10   1.04138e-08 DIIS
   @DF-RHF iter  11:  -156.16442843291037   -5.74119e-11   2.61960e-09 DIIS
  Energy and wave function converged.


  ==> Post-Iterations <==

    Orbital Energies [Eh]
    ---------------------

    Doubly Occupied:                                                      

       1A    -11.231715     2A    -11.225050     3A    -11.217934  
       4A    -11.214816     5A     -1.080462     6A     -0.987979  
       7A     -0.856355     8A     -0.755663     9A     -0.642460  
      10A     -0.606569    11A     -0.585941    12A     -0.534584  
      13A     -0.518316    14A     -0.487235    15A     -0.477043  
      16A     -0.356620  

    Virtual:                                                              

      17A      0.032324    18A      0.045050    19A      0.050605  
      20A      0.055281    21A      0.064377    22A      0.066660  
      23A      0.071573    24A      0.081007    25A      0.081628  
      26A      0.089485    27A      0.102596    28A      0.103609  
      29A      0.104842    30A      0.107801    31A      0.114126  
      32A      0.120973    33A      0.128485    34A      0.133284  
      35A      0.137148    36A      0.141248    37A      0.144978  
      38A      0.152579    39A      0.156412    40A      0.159370  
      41A      0.162266    42A      0.168554    43A      0.177716  
      44A      0.182529    45A      0.185889    46A      0.195219  
      47A      0.200029    48A      0.210831    49A      0.217831  
      50A      0.220210    51A      0.223885    52A      0.240335  
      53A      0.245485    54A      0.261426    55A      0.270616  
      56A      0.275540    57A      0.276497    58A      0.288193  
      59A      0.298934    60A      0.302620    61A      0.305483  
      62A      0.310021    63A      0.316823    64A      0.326821  
      65A      0.328328    66A      0.337952    67A      0.339433  
      68A      0.343607    69A      0.350591    70A      0.351174  
      71A      0.355486    72A      0.360295    73A      0.364013  
      74A      0.369536    75A      0.378537    76A      0.382242  
      77A      0.385144    78A      0.399372    79A      0.405517  
      80A      0.408402    81A      0.413195    82A      0.420483  
      83A      0.424829    84A      0.435953    85A      0.437799  
      86A      0.445799    87A      0.451515    88A      0.459166  
      89A      0.465311    90A      0.473707    91A      0.478296  
      92A      0.485556    93A      0.489734    94A      0.499629  
      95A      0.509252    96A      0.513879    97A      0.516826  
      98A      0.521533    99A      0.527759   100A      0.536459  
     101A      0.539467   102A      0.545307   103A      0.545865  
     104A      0.550804   105A      0.560352   106A      0.571789  
     107A      0.575945   108A      0.579888   109A      0.585543  
     110A      0.597235   111A      0.609170   112A      0.613641  
     113A      0.615307   114A      0.627289   115A      0.630129  
     116A      0.641389   117A      0.652426   118A      0.660314  
     119A      0.664328   120A      0.669055   121A      0.675349  
     122A      0.680144   123A      0.692098   124A      0.705370  
     125A      0.712505   126A      0.714263   127A      0.729642  
     128A      0.733284   129A      0.737822   130A      0.749108  
     131A      0.755940   132A      0.767955   133A      0.779342  
     134A      0.786513   135A      0.791106   136A      0.793497  
     137A      0.803190   138A      0.814414   139A      0.823795  
     140A      0.832414   141A      0.848843   142A      0.853917  
     143A      0.861434   144A      0.865031   145A      0.876570  
     146A      0.885431   147A      0.898918   148A      0.908444  
     149A      0.923221   150A      0.933235   151A      0.949578  
     152A      0.968095   153A      0.970898   154A      0.980716  
     155A      0.997749   156A      1.008782   157A      1.022082  
     158A      1.031594   159A      1.051321   160A      1.063335  
     161A      1.066899   162A      1.081400   163A      1.090184  
     164A      1.102311   165A      1.110392   166A      1.114017  
     167A      1.118597   168A      1.135028   169A      1.148276  
     170A      1.156053   171A      1.174382   172A      1.178184  
     173A      1.183172   174A      1.200381   175A      1.221673  
     176A      1.225100   177A      1.236259   178A      1.237712  
     179A      1.251395   180A      1.256679   181A      1.260079  
     182A      1.264146   183A      1.272233   184A      1.278696  
     185A      1.289849   186A      1.299453   187A      1.306521  
     188A      1.319205   189A      1.331422   190A      1.338533  
     191A      1.350464   192A      1.354915   193A      1.357966  
     194A      1.360044   195A      1.373173   196A      1.387038  
     197A      1.400772   198A      1.402072   199A      1.412165  
     200A      1.416078   201A      1.425226   202A      1.431165  
     203A      1.436644   204A      1.453440   205A      1.457377  
     206A      1.476062   207A      1.477490   208A      1.483423  
     209A      1.496734   210A      1.499278   211A      1.517730  
     212A      1.526189   213A      1.531477   214A      1.537322  
     215A      1.547868   216A      1.549787   217A      1.553563  
     218A      1.571009   219A      1.578379   220A      1.592508  
     221A      1.603676   222A      1.608940   223A      1.613784  
     224A      1.617398   225A      1.633223   226A      1.638529  
     227A      1.651792   228A      1.659640   229A      1.668473  
     230A      1.677731   231A      1.686060   232A      1.694818  
     233A      1.709371   234A      1.711653   235A      1.725892  
     236A      1.731940   237A      1.743659   238A      1.748666  
     239A      1.769228   240A      1.775314   241A      1.787620  
     242A      1.800709   243A      1.802142   244A      1.820970  
     245A      1.830647   246A      1.843304   247A      1.856071  
     248A      1.864263   249A      1.873320   250A      1.875808  
     251A      1.905368   252A      1.907657   253A      1.941148  
     254A      1.960507   255A      1.962360   256A      1.974516  
     257A      1.983392   258A      2.014158   259A      2.018934  
     260A      2.067905   261A      2.077372   262A      2.091195  
     263A      2.118157   264A      2.123254   265A      2.137795  
     266A      2.165931   267A      2.185484   268A      2.204293  
     269A      2.228170   270A      2.268277   271A      2.283847  
     272A      2.308921   273A      2.368848   274A      2.395159  
     275A      2.434822   276A      2.457601   277A      2.497681  
     278A      2.515658   279A      2.530378   280A      2.579681  
     281A      2.592644   282A      2.597712   283A      2.659278  
     284A      2.715746   285A      2.734486   286A      2.754727  
     287A      2.763039   288A      2.786117   289A      2.817673  
     290A      2.844813   291A      2.865560   292A      2.873862  
     293A      2.895358   294A      2.909490   295A      2.913877  
     296A      2.922427   297A      2.940509   298A      2.977790  
     299A      2.996275   300A      3.004618   301A      3.028663  
     302A      3.055019   303A      3.068439   304A      3.070252  
     305A      3.078069   306A      3.109313   307A      3.128909  
     308A      3.143099   309A      3.155430   310A      3.168427  
     311A      3.193813   312A      3.208277   313A      3.218792  
     314A      3.248094   315A      3.261995   316A      3.293870  
     317A      3.319662   318A      3.334955   319A      3.341258  
     320A      3.370109   321A      3.378812   322A      3.392389  
     323A      3.414281   324A      3.426192   325A      3.441152  
     326A      3.449039   327A      3.476937   328A      3.483232  
     329A      3.499412   330A      3.503113   331A      3.514744  
     332A      3.518159   333A      3.534162   334A      3.539026  
     335A      3.550131   336A      3.557265   337A      3.571183  
     338A      3.574202   339A      3.586225   340A      3.594246  
     341A      3.603848   342A      3.616852   343A      3.628420  
     344A      3.641252   345A      3.652123   346A      3.665853  
     347A      3.684872   348A      3.697960   349A      3.702827  
     350A      3.720193   351A      3.736588   352A      3.745790  
     353A      3.755287   354A      3.759767   355A      3.768580  
     356A      3.777061   357A      3.786952   358A      3.797103  
     359A      3.820592   360A      3.833066   361A      3.838118  
     362A      3.844803   363A      3.860888   364A      3.862205  
     365A      3.870138   366A      3.886619   367A      3.897581  
     368A      3.903176   369A      3.910535   370A      3.917174  
     371A      3.929795   372A      3.948560   373A      3.957817  
     374A      3.974985   375A      3.982305   376A      3.997242  
     377A      4.008206   378A      4.018889   379A      4.037842  
     380A      4.054271   381A      4.074364   382A      4.090486  
     383A      4.093001   384A      4.111215   385A      4.118766  
     386A      4.140584   387A      4.143997   388A      4.167212  
     389A      4.176455   390A      4.193800   391A      4.200840  
     392A      4.212101   393A      4.228108   394A      4.229846  
     395A      4.255583   396A      4.273550   397A      4.282588  
     398A      4.284515   399A      4.303422   400A      4.327607  
     401A      4.340777   402A      4.344914   403A      4.360240  
     404A      4.366411   405A      4.369790   406A      4.381957  
     407A      4.394469   408A      4.404489   409A      4.415830  
     410A      4.425879   411A      4.436169   412A      4.438988  
     413A      4.450545   414A      4.458629   415A      4.467584  
     416A      4.474765   417A      4.481141   418A      4.493282  
     419A      4.503479   420A      4.515979   421A      4.520063  
     422A      4.533053   423A      4.545974   424A      4.553467  
     425A      4.568191   426A      4.582188   427A      4.583627  
     428A      4.599301   429A      4.615636   430A      4.625722  
     431A      4.639088   432A      4.644808   433A      4.646998  
     434A      4.658257   435A      4.669598   436A      4.679408  
     437A      4.692302   438A      4.704423   439A      4.718380  
     440A      4.733297   441A      4.742253   442A      4.755784  
     443A      4.761662   444A      4.769155   445A      4.780584  
     446A      4.783369   447A      4.795483   448A      4.802228  
     449A      4.811810   450A      4.827330   451A      4.833123  
     452A      4.841792   453A      4.848312   454A      4.851907  
     455A      4.864446   456A      4.869284   457A      4.876409  
     458A      4.892710   459A      4.897104   460A      4.903546  
     461A      4.927889   462A      4.944349   463A      4.946889  
     464A      4.953005   465A      4.957205   466A      4.962671  
     467A      4.973918   468A      4.993086   469A      4.994882  
     470A      5.019404   471A      5.027582   472A      5.040954  
     473A      5.045621   474A      5.053379   475A      5.062508  
     476A      5.082412   477A      5.092725   478A      5.098353  
     479A      5.111680   480A      5.122445   481A      5.128394  
     482A      5.147486   483A      5.154187   484A      5.168403  
     485A      5.190316   486A      5.210192   487A      5.214324  
     488A      5.235977   489A      5.246984   490A      5.251083  
     491A      5.267410   492A      5.290929   493A      5.306741  
     494A      5.311133   495A      5.327728   496A      5.337590  
     497A      5.359991   498A      5.366599   499A      5.381628  
     500A      5.405191   501A      5.416595   502A      5.428759  
     503A      5.436389   504A      5.449190   505A      5.465620  
     506A      5.525772   507A      5.551570   508A      5.581171  
     509A      5.590561   510A      5.604432   511A      5.614150  
     512A      5.642267   513A      5.671231   514A      5.682582  
     515A      5.700374   516A      5.733473   517A      5.736357  
     518A      5.765782   519A      5.773694   520A      5.782650  
     521A      5.790382   522A      5.835380   523A      5.845083  
     524A      5.873931   525A      5.908549   526A      5.926184  
     527A      5.943624   528A      5.956032   529A      5.979106  
     530A      5.998584   531A      6.027522   532A      6.059812  
     533A      6.099604   534A      6.135596   535A      6.168638  
     536A      6.178098   537A      6.230653   538A      6.248762  
     539A      6.266581   540A      6.357226   541A      6.391564  
     542A      6.397293   543A      6.419562   544A      6.444540  
     545A      6.472706   546A      6.485976   547A      6.488400  
     548A      6.518495   549A      6.526670   550A      6.568616  
     551A      6.591665   552A      6.660724   553A      6.713083  
     554A      6.754063   555A      6.808458   556A      6.933200  
     557A      6.951587   558A      7.012000   559A      7.161216  
     560A      7.308051   561A      7.387710   562A      7.443342  
     563A      7.509700   564A      7.557901   565A      7.605431  
     566A      7.671597   567A      7.700191   568A      7.702830  
     569A      7.754030   570A      7.767571   571A      7.822414  
     572A      7.854205   573A      7.909197   574A      7.958933  
     575A      8.003311   576A      8.112685   577A      8.251348  
     578A      8.351587   579A      8.383498   580A      8.572339  
     581A      8.751576   582A      9.553333   583A      9.590488  
     584A      9.626156   585A      9.829598   586A      9.899709  
     587A      9.970315   588A     10.076123   589A     10.186541  
     590A     10.438773   591A     11.295402   592A     11.767885  
     593A     12.589095   594A     12.835961   595A     13.700014  
     596A     14.047294   597A     14.657393   598A     15.383224  
     599A     43.746573   600A     44.323027   601A     45.303877  
     602A     45.855798   603A     61.893636  

    Final Occupation by Irrep:
              A 
    DOCC [    16 ]

  @DF-RHF Final Energy:  -156.16442843291037

   => Energetics <=

    Nuclear Repulsion Energy =            117.3215670575374219
    One-Electron Energy =                -441.4145052222341974
    Two-Electron Energy =                 167.9285097317863915
    Total Energy =                       -156.1644284329103698

Computation Completed


Properties will be evaluated at   0.000000,   0.000000,   0.000000 [a0]

Properties computed using the SCF density matrix

  Nuclear Dipole Moment: [e a0]
     X:   137.0547      Y:    -0.8073      Z:   -12.4702

  Electronic Dipole Moment: [e a0]
     X:  -136.9733      Y:     0.9555      Z:    12.5172

  Dipole Moment: [e a0]
     X:     0.0814      Y:     0.1482      Z:     0.0470     Total:     0.1755

  Dipole Moment: [D]
     X:     0.2070      Y:     0.3768      Z:     0.1194     Total:     0.4462


*** tstop() called on r282 at Fri Sep 10 15:58:51 2021
Module time:
	user time   =      78.99 seconds =       1.32 minutes
	system time =       1.02 seconds =       0.02 minutes
	total time  =         80 seconds =       1.33 minutes
Total time:
	user time   =     286.14 seconds =       4.77 minutes
	system time =       4.38 seconds =       0.07 minutes
	total time  =        291 seconds =       4.85 minutes
  Constructing Basis Sets for SAPT...

   => Loading Basis Set <=

    Name: (JUN-CC-PVTZ AUX)
    Role: RIFIT
    Keyword: DF_BASIS_SAPT
    atoms 1-2, 9, 12, 16-19             entry C          line   132 file /home/r08543048/miniconda3/share/psi4/basis/jun-cc-pvtz-ri.gbs 
    atoms 3-4, 6-8, 10-11, 13-15, 20-27 entry H          line    30 file /home/r08543048/miniconda3/share/psi4/basis/jun-cc-pvtz-ri.gbs 
    atoms 5                             entry O          line   244 file /home/r08543048/miniconda3/share/psi4/basis/jun-cc-pvtz-ri.gbs 


  //>>>>>>>>>>>>>>>>>>>>>>>>>>>>>>>>>>>//
  //               SAPT0               //
  //<<<<<<<<<<<<<<<<<<<<<<<<<<<<<<<<<<<//


*** tstart() called on r282
*** at Fri Sep 10 15:58:51 2021

        SAPT0  
    Ed Hohenstein
     6 June 2009

      Orbital Information
  --------------------------
    NSO        =       603
    NMO        =       603
    NRI        =      1413
    NOCC A     =        21
    NOCC B     =        16
    FOCC A     =         0
    FOCC B     =         0
    NVIR A     =       582
    NVIR B     =       587

    Elst10,r            =    -0.009648767663 [Eh]
    Exch10              =     0.013978729245 [Eh]
    Exch10 (S^2)        =     0.013872321784 [Eh]

    Iter     Energy [mEh]          dE [mEh]         Residual      Time [s]
       1      -0.78796458       0.787964579       4.000691821             2
       2      -0.90835180       0.120387221       1.255267577             4
       3      -0.92592808       0.017576275       0.270228031             6
       4      -0.92429856      -0.001629513       0.105870409             8
       5      -0.92342771      -0.000870852       0.025662501            10
       6      -0.92355808       0.000130365       0.009557322            12
       7      -0.92362544       0.000067364       0.002200311            14
       8      -0.92361801      -0.000007433       0.000745998            16
       9      -0.92361430      -0.000003707       0.000205512            18
      10      -0.92361485       0.000000554       0.000063390            20
      11      -0.92361515       0.000000300       0.000016441            22
      12      -0.92361508      -0.000000074       0.000005425            24
      13      -0.92361507      -0.000000008       0.000001620            26
      14      -0.92361508       0.000000006       0.000000410            28

    CHF Iterations converged


    Iter     Energy [mEh]          dE [mEh]         Residual      Time [s]
       1      -4.53132911       4.531329108      11.530145838             1
       2      -5.75286921       1.221540101       4.266844591             3
       3      -5.86432342       0.111454212       1.231968996             5
       4      -5.83501022      -0.029313197       0.420455650             6
       5      -5.82654219      -0.008468031       0.126086450             8
       6      -5.82889515       0.002352953       0.051299685            10
       7      -5.82950294       0.000607796       0.015161037            12
       8      -5.82917622      -0.000326720       0.003375990            13
       9      -5.82918255       0.000006331       0.000761865            15
      10      -5.82919232       0.000009766       0.000221530            17
      11      -5.82919160      -0.000000715       0.000065343            18
      12      -5.82919086      -0.000000740       0.000014789            20
      13      -5.82919093       0.000000064       0.000003570            22
      14      -5.82919096       0.000000031       0.000000936            23

    CHF Iterations converged

    Ind20,r (A<-B)      =    -0.000923615077 [Eh]
    Ind20,r (B<-A)      =    -0.005829190959 [Eh]
    Ind20,r             =    -0.006752806036 [Eh]
    Exch-Ind20,r (A<-B) =     0.000721295338 [Eh]
    Exch-Ind20,r (B<-A) =     0.004216988858 [Eh]
    Exch-Ind20,r        =     0.004938284196 [Eh]
    Disp20              =    -0.010826979256 [Eh]
    Disp20 (SS)         =    -0.005413489628 [Eh]
    Disp20 (OS)         =    -0.005413489628 [Eh]
    Exch-Disp20         =     0.001435371104 [Eh]
    Exch-Disp20 (SS)    =     0.000934749920 [Eh]
    Exch-Disp20 (OS)    =     0.000500621183 [Eh]

    SAPT Results 
  --------------------------------------------------------------------------------------------------------
    Electrostatics                 -9.64876766 [mEh]      -6.05469312 [kcal/mol]     -25.33283601 [kJ/mol]
      Elst10,r                     -9.64876766 [mEh]      -6.05469312 [kcal/mol]     -25.33283601 [kJ/mol]

    Exchange                       13.97872925 [mEh]       8.77178503 [kcal/mol]      36.70114858 [kJ/mol]
      Exch10                       13.97872925 [mEh]       8.77178503 [kcal/mol]      36.70114858 [kJ/mol]
      Exch10(S^2)                  13.87232178 [mEh]       8.70501334 [kcal/mol]      36.42177582 [kJ/mol]

    Induction                      -3.42249857 [mEh]      -2.14765028 [kcal/mol]      -8.98576875 [kJ/mol]
      Ind20,r                      -6.75280604 [mEh]      -4.23744976 [kcal/mol]     -17.72948981 [kJ/mol]
      Exch-Ind20,r                  4.93828420 [mEh]       3.09882012 [kcal/mol]      12.96546337 [kJ/mol]
      delta HF,r (2)               -1.60797673 [mEh]      -1.00902063 [kcal/mol]      -4.22174232 [kJ/mol]

    Dispersion                     -9.39160815 [mEh]      -5.89332309 [kcal/mol]     -24.65766381 [kJ/mol]
      Disp20                      -10.82697926 [mEh]      -6.79403206 [kcal/mol]     -28.42623012 [kJ/mol]
      Exch-Disp20                   1.43537110 [mEh]       0.90070897 [kcal/mol]       3.76856631 [kJ/mol]
      Disp20 (SS)                  -5.41348963 [mEh]      -3.39701603 [kcal/mol]     -14.21311506 [kJ/mol]
      Disp20 (OS)                  -5.41348963 [mEh]      -3.39701603 [kcal/mol]     -14.21311506 [kJ/mol]
      Exch-Disp20 (SS)              0.93474992 [mEh]       0.58656443 [kcal/mol]       2.45418558 [kJ/mol]
      Exch-Disp20 (OS)              0.50062118 [mEh]       0.31414454 [kcal/mol]       1.31438074 [kJ/mol]

  Total HF                          0.90746301 [mEh]       0.56944164 [kcal/mol]       2.38254382 [kJ/mol]
  Total SAPT0                      -8.48414514 [mEh]      -5.32388145 [kcal/mol]     -22.27511999 [kJ/mol]

  Special recipe for scaled SAPT0 (see Manual):
    Electrostatics sSAPT0          -9.64876766 [mEh]      -6.05469312 [kcal/mol]     -25.33283601 [kJ/mol]
    Exchange sSAPT0                13.97872925 [mEh]       8.77178503 [kcal/mol]      36.70114858 [kJ/mol]
    Induction sSAPT0               -3.30798756 [mEh]      -2.07579353 [kcal/mol]      -8.68512013 [kJ/mol]
    Dispersion sSAPT0              -9.35832416 [mEh]      -5.87243707 [kcal/mol]     -24.57027671 [kJ/mol]
  Total sSAPT0                     -8.33635014 [mEh]      -5.23113869 [kcal/mol]     -21.88708427 [kJ/mol]
  --------------------------------------------------------------------------------------------------------

*** tstop() called on r282 at Fri Sep 10 16:02:48 2021
Module time:
	user time   =     204.22 seconds =       3.40 minutes
	system time =      31.06 seconds =       0.52 minutes
	total time  =        237 seconds =       3.95 minutes
Total time:
	user time   =     490.54 seconds =       8.18 minutes
	system time =      35.44 seconds =       0.59 minutes
	total time  =        528 seconds =       8.80 minutes

    Psi4 stopped on: Friday, 10 September 2021 04:02PM
    Psi4 wall time for execution: 0:08:47.41

*** Psi4 exiting successfully. Buy a developer a beer!
