
    -----------------------------------------------------------------------
          Psi4: An Open-Source Ab Initio Electronic Structure Package
                               Psi4 1.3.2 release

                         Git: Rev {HEAD} ecbda83 


    R. M. Parrish, L. A. Burns, D. G. A. Smith, A. C. Simmonett,
    A. E. DePrince III, E. G. Hohenstein, U. Bozkaya, A. Yu. Sokolov,
    R. Di Remigio, R. M. Richard, J. F. Gonthier, A. M. James,
    H. R. McAlexander, A. Kumar, M. Saitow, X. Wang, B. P. Pritchard,
    P. Verma, H. F. Schaefer III, K. Patkowski, R. A. King, E. F. Valeev,
    F. A. Evangelista, J. M. Turney, T. D. Crawford, and C. D. Sherrill,
    J. Chem. Theory Comput. 13(7) pp 3185--3197 (2017).
    (doi: 10.1021/acs.jctc.7b00174)


                         Additional Contributions by
    P. Kraus, H. Kruse, M. H. Lechner, M. C. Schieber, R. A. Shaw,
    A. Alenaizan, R. Galvelis, Z. L. Glick, S. Lehtola, and J. P. Misiewicz

    -----------------------------------------------------------------------


    Psi4 started on: Friday, 10 September 2021 04:39PM

    Process ID: 56863
    Host:       r282
    PSIDATADIR: /home/r08543048/miniconda3/share/psi4
    Memory:     500.0 MiB
    Threads:    1
    
  ==> Input File <==

--------------------------------------------------------------------------
# Any line starting with the # character is a comment line
#! Sample  computation

memory 22 gb

molecule Dimer {
0 1
 C -1.377979   -0.382524    0.704157
 C -0.915909    1.024600    0.359938
 H -0.502396   -1.034777    0.769205
 H -1.830364   -0.362772    1.699392
 O -0.251448    1.092396   -0.898161
 H -1.777745    1.687632    0.273169
 H -0.273655    1.417944    1.154771
 H  0.598730    0.646429   -0.790713
 C -2.365562   -0.933094   -0.315930
 H -2.665122   -1.951166   -0.070027
 H -3.264715   -0.316447   -0.349377
 H -1.925007   -0.933812   -1.311174




    
    
 --
0 1
 C   2.604702   -0.790079   -0.447526
 H   2.108388   -1.750542   -0.424290
 H   3.113345   -0.515539   -1.361356
 C   2.595389    0.022388    0.612269
 H   3.094649    0.981176    0.589983
 H   2.091627   -0.255043    1.528255
   
   
   
   
   
   
   
   





units angstrom

no_reorient
symmetry c1
}

set globals{
  basis jun-cc-pvtz
}

energy('sapt0')


--------------------------------------------------------------------------

  Memory set to  20.489 GiB by Python driver.

  //>>>>>>>>>>>>>>>>>>>>>>>>>>>>>>>>>>>//
  //              Dimer HF             //
  //<<<<<<<<<<<<<<<<<<<<<<<<<<<<<<<<<<<//


*** tstart() called on r282
*** at Fri Sep 10 16:39:29 2021

   => Loading Basis Set <=

    Name: JUN-CC-PVTZ
    Role: ORBITAL
    Keyword: BASIS
    atoms 1-2, 9, 13, 16                entry C          line   217 file /home/r08543048/miniconda3/share/psi4/basis/jun-cc-pvtz.gbs 
    atoms 3-4, 6-8, 10-12, 14-15, 17-18 entry H          line    36 file /home/r08543048/miniconda3/share/psi4/basis/jun-cc-pvtz.gbs 
    atoms 5                             entry O          line   305 file /home/r08543048/miniconda3/share/psi4/basis/jun-cc-pvtz.gbs 


         ---------------------------------------------------------
                                   SCF
               by Justin Turney, Rob Parrish, Andy Simmonett
                          and Daniel G. A. Smith
                              RHF Reference
                        1 Threads,  20980 MiB Core
         ---------------------------------------------------------

  ==> Geometry <==

    Molecular point group: c1
    Full point group: C1

    Geometry (in Angstrom), charge = 0, multiplicity = 1:

       Center              X                  Y                   Z               Mass       
    ------------   -----------------  -----------------  -----------------  -----------------
         C           -1.391872877393    -0.409345544235     0.723341167957    12.000000000000
         C           -0.929802877393     0.997778455765     0.379122167957    12.000000000000
         H           -0.516289877393    -1.061598544235     0.788389167957     1.007825032230
         H           -1.844257877393    -0.389593544235     1.718576167957     1.007825032230
         O           -0.265341877393     1.065574455765    -0.878976832043    15.994914619570
         H           -1.791638877393     1.660810455765     0.292353167957     1.007825032230
         H           -0.287548877393     1.391122455765     1.173955167957     1.007825032230
         H            0.584836122607     0.619607455765    -0.771528832043     1.007825032230
         C           -2.379455877393    -0.959915544235    -0.296745832043    12.000000000000
         H           -2.679015877393    -1.977987544235    -0.050842832043     1.007825032230
         H           -3.278608877393    -0.343268544235    -0.330192832043     1.007825032230
         H           -1.938900877393    -0.960633544235    -1.291989832043     1.007825032230
         C            2.590808122607    -0.816900544235    -0.428341832043    12.000000000000
         H            2.094494122607    -1.777363544235    -0.405105832043     1.007825032230
         H            3.099451122607    -0.542360544235    -1.342171832043     1.007825032230
         C            2.581495122607    -0.004433544235     0.631453167957    12.000000000000
         H            3.080755122607     0.954354455765     0.609167167957     1.007825032230
         H            2.077733122607    -0.281864544235     1.547439167957     1.007825032230

  Running in c1 symmetry.

  Rotational constants: A =      0.15659  B =      0.04673  C =      0.04346 [cm^-1]
  Rotational constants: A =   4694.42420  B =   1400.90260  C =   1302.90660 [MHz]
  Nuclear repulsion =  237.396143386832080

  Charge       = 0
  Multiplicity = 1
  Electrons    = 50
  Nalpha       = 25
  Nbeta        = 25

  ==> Algorithm <==

  SCF Algorithm Type is DF.
  DIIS enabled.
  MOM disabled.
  Fractional occupation disabled.
  Guess Type is SAD.
  Energy threshold   = 1.00e-08
  Density threshold  = 1.00e-08
  Integral threshold = 0.00e+00

  ==> Primary Basis <==

  Basis Set: JUN-CC-PVTZ
    Blend: JUN-CC-PVTZ
    Number of shells: 150
    Number of basis function: 402
    Number of Cartesian functions: 450
    Spherical Harmonics?: true
    Max angular momentum: 3

   => Loading Basis Set <=

    Name: (JUN-CC-PVTZ AUX)
    Role: JKFIT
    Keyword: DF_BASIS_SCF
    atoms 1-2, 9, 13, 16                entry C          line   152 file /home/r08543048/miniconda3/share/psi4/basis/jun-cc-pvtz-jkfit.gbs 
    atoms 3-4, 6-8, 10-12, 14-15, 17-18 entry H          line    70 file /home/r08543048/miniconda3/share/psi4/basis/jun-cc-pvtz-jkfit.gbs 
    atoms 5                             entry O          line   272 file /home/r08543048/miniconda3/share/psi4/basis/jun-cc-pvtz-jkfit.gbs 

  ==> Pre-Iterations <==

   -------------------------------------------------------
    Irrep   Nso     Nmo     Nalpha   Nbeta   Ndocc  Nsocc
   -------------------------------------------------------
     A        402     402       0       0       0       0
   -------------------------------------------------------
    Total     402     402      25      25      25       0
   -------------------------------------------------------

  ==> Integral Setup <==

  ==> DiskDFJK: Density-Fitted J/K Matrices <==

    J tasked:                  Yes
    K tasked:                  Yes
    wK tasked:                  No
    OpenMP threads:              1
    Integrals threads:           1
    Memory [MiB]:            15735
    Algorithm:                Core
    Integral Cache:           SAVE
    Schwarz Cutoff:          1E-12
    Fitting Condition:       1E-10

   => Auxiliary Basis Set <=

  Basis Set: (JUN-CC-PVTZ AUX)
    Blend: JUN-CC-PVTZ-JKFIT
    Number of shells: 294
    Number of basis function: 930
    Number of Cartesian functions: 1116
    Spherical Harmonics?: true
    Max angular momentum: 4

  Minimum eigenvalue in the overlap matrix is 4.6889157385E-05.
  Using Symmetric Orthogonalization.

  SCF Guess: Superposition of Atomic Densities via on-the-fly atomic UHF.

  ==> Iterations <==

                           Total Energy        Delta E     RMS |[F,P]|

   @DF-RHF iter SAD:  -269.90287217525935   -2.69903e+02   0.00000e+00 
   @DF-RHF iter   1:  -271.00876077200093   -1.10589e+00   1.65397e-03 DIIS
   @DF-RHF iter   2:  -271.20751488506323   -1.98754e-01   8.14247e-04 DIIS
   @DF-RHF iter   3:  -271.25286017258389   -4.53453e-02   1.47276e-04 DIIS
   @DF-RHF iter   4:  -271.25550992938327   -2.64976e-03   5.46813e-05 DIIS
   @DF-RHF iter   5:  -271.25576839434098   -2.58465e-04   1.10016e-05 DIIS
   @DF-RHF iter   6:  -271.25578389815746   -1.55038e-05   2.67747e-06 DIIS
   @DF-RHF iter   7:  -271.25578505109632   -1.15294e-06   7.44421e-07 DIIS
   @DF-RHF iter   8:  -271.25578513981191   -8.87156e-08   2.02924e-07 DIIS
   @DF-RHF iter   9:  -271.25578514855550   -8.74360e-09   5.13181e-08 DIIS
   @DF-RHF iter  10:  -271.25578514913565   -5.80144e-10   1.25945e-08 DIIS
   @DF-RHF iter  11:  -271.25578514916316   -2.75122e-11   3.30425e-09 DIIS
  Energy and wave function converged.


  ==> Post-Iterations <==

    Orbital Energies [Eh]
    ---------------------

    Doubly Occupied:                                                      

       1A    -20.541019     2A    -11.264436     3A    -11.246569  
       4A    -11.244767     5A    -11.216572     6A    -11.204673  
       7A     -1.344339     8A     -1.050708     9A     -1.045495  
      10A     -0.913269    11A     -0.808470    12A     -0.804050  
      13A     -0.671484    14A     -0.660184    15A     -0.631237  
      16A     -0.615426    17A     -0.601817    18A     -0.557387  
      19A     -0.525135    20A     -0.522229    21A     -0.515707  
      22A     -0.479877    23A     -0.465568    24A     -0.427671  
      25A     -0.393141  

    Virtual:                                                              

      26A      0.049608    27A      0.054107    28A      0.061639  
      29A      0.062921    30A      0.069346    31A      0.084934  
      32A      0.089433    33A      0.092501    34A      0.097756  
      35A      0.102796    36A      0.115913    37A      0.116138  
      38A      0.123978    39A      0.130375    40A      0.145392  
      41A      0.147316    42A      0.171370    43A      0.177989  
      44A      0.183357    45A      0.194895    46A      0.205823  
      47A      0.227327    48A      0.233374    49A      0.240676  
      50A      0.260234    51A      0.268208    52A      0.274236  
      53A      0.284900    54A      0.286682    55A      0.292960  
      56A      0.307604    57A      0.308774    58A      0.313732  
      59A      0.322192    60A      0.326785    61A      0.333886  
      62A      0.336004    63A      0.341324    64A      0.348012  
      65A      0.353682    66A      0.358087    67A      0.362170  
      68A      0.365576    69A      0.378690    70A      0.393510  
      71A      0.400949    72A      0.412900    73A      0.417060  
      74A      0.432505    75A      0.440249    76A      0.449431  
      77A      0.459145    78A      0.466308    79A      0.474711  
      80A      0.478727    81A      0.490665    82A      0.495367  
      83A      0.512920    84A      0.528916    85A      0.532540  
      86A      0.547296    87A      0.559207    88A      0.562374  
      89A      0.571562    90A      0.610172    91A      0.612868  
      92A      0.626927    93A      0.632674    94A      0.651242  
      95A      0.666520    96A      0.695427    97A      0.698930  
      98A      0.721734    99A      0.725732   100A      0.740106  
     101A      0.744240   102A      0.748753   103A      0.758070  
     104A      0.759906   105A      0.781649   106A      0.792202  
     107A      0.794325   108A      0.801989   109A      0.804445  
     110A      0.814580   111A      0.818514   112A      0.834936  
     113A      0.849030   114A      0.857331   115A      0.870704  
     116A      0.886835   117A      0.893196   118A      0.905573  
     119A      0.911254   120A      0.925960   121A      0.951358  
     122A      0.960012   123A      0.983327   124A      0.995319  
     125A      1.013942   126A      1.032771   127A      1.049168  
     128A      1.057739   129A      1.062745   130A      1.076163  
     131A      1.089149   132A      1.115112   133A      1.128367  
     134A      1.152000   135A      1.156294   136A      1.170533  
     137A      1.195148   138A      1.203375   139A      1.219792  
     140A      1.234126   141A      1.262227   142A      1.268696  
     143A      1.286326   144A      1.299790   145A      1.315716  
     146A      1.327682   147A      1.345801   148A      1.351439  
     149A      1.376893   150A      1.383596   151A      1.394668  
     152A      1.409239   153A      1.420134   154A      1.423958  
     155A      1.438821   156A      1.452070   157A      1.463586  
     158A      1.483458   159A      1.501333   160A      1.523306  
     161A      1.535488   162A      1.545078   163A      1.552305  
     164A      1.562929   165A      1.581592   166A      1.594634  
     167A      1.607325   168A      1.615017   169A      1.631690  
     170A      1.641159   171A      1.645533   172A      1.658494  
     173A      1.666716   174A      1.681094   175A      1.703118  
     176A      1.714474   177A      1.745580   178A      1.766225  
     179A      1.791481   180A      1.808766   181A      1.865343  
     182A      1.869082   183A      1.888591   184A      1.905450  
     185A      1.912546   186A      1.928717   187A      1.963263  
     188A      1.965853   189A      1.987475   190A      1.995097  
     191A      2.004846   192A      2.082817   193A      2.252911  
     194A      2.370312   195A      2.409895   196A      2.457343  
     197A      2.484457   198A      2.605180   199A      2.639584  
     200A      2.716298   201A      2.741854   202A      2.763402  
     203A      2.778108   204A      2.797292   205A      2.812451  
     206A      2.828734   207A      2.851025   208A      2.861467  
     209A      2.875463   210A      2.880701   211A      2.891034  
     212A      2.930710   213A      2.952602   214A      2.958254  
     215A      2.970485   216A      2.993924   217A      3.023499  
     218A      3.037793   219A      3.052016   220A      3.089904  
     221A      3.097444   222A      3.119388   223A      3.130697  
     224A      3.138668   225A      3.142977   226A      3.159391  
     227A      3.184356   228A      3.201251   229A      3.222117  
     230A      3.238439   231A      3.254355   232A      3.276037  
     233A      3.281282   234A      3.299023   235A      3.307309  
     236A      3.318694   237A      3.352958   238A      3.372196  
     239A      3.382136   240A      3.405575   241A      3.412026  
     242A      3.420026   243A      3.432434   244A      3.449814  
     245A      3.456820   246A      3.461825   247A      3.475906  
     248A      3.477232   249A      3.487415   250A      3.504410  
     251A      3.512793   252A      3.518182   253A      3.522604  
     254A      3.550409   255A      3.552115   256A      3.557697  
     257A      3.574032   258A      3.590003   259A      3.593608  
     260A      3.618588   261A      3.632756   262A      3.656557  
     263A      3.664706   264A      3.682425   265A      3.722390  
     266A      3.732831   267A      3.741804   268A      3.754592  
     269A      3.772810   270A      3.798179   271A      3.820054  
     272A      3.841364   273A      3.866370   274A      3.881923  
     275A      3.903749   276A      3.930141   277A      3.960132  
     278A      3.972135   279A      3.989800   280A      3.997516  
     281A      4.013233   282A      4.015592   283A      4.023522  
     284A      4.041807   285A      4.043527   286A      4.064739  
     287A      4.099598   288A      4.114197   289A      4.124869  
     290A      4.166036   291A      4.188202   292A      4.214754  
     293A      4.235328   294A      4.257653   295A      4.268282  
     296A      4.272591   297A      4.288941   298A      4.298645  
     299A      4.305248   300A      4.308363   301A      4.338379  
     302A      4.357041   303A      4.363068   304A      4.371605  
     305A      4.388292   306A      4.395485   307A      4.413522  
     308A      4.434184   309A      4.448191   310A      4.454334  
     311A      4.470091   312A      4.491574   313A      4.496491  
     314A      4.517480   315A      4.526715   316A      4.544640  
     317A      4.555172   318A      4.563738   319A      4.600106  
     320A      4.631970   321A      4.634111   322A      4.648264  
     323A      4.682909   324A      4.694675   325A      4.709303  
     326A      4.741517   327A      4.776194   328A      4.808635  
     329A      4.828471   330A      4.854285   331A      4.861258  
     332A      4.875092   333A      4.894441   334A      4.911731  
     335A      4.928544   336A      4.998952   337A      5.007834  
     338A      5.047489   339A      5.073039   340A      5.083787  
     341A      5.140770   342A      5.150372   343A      5.157254  
     344A      5.189990   345A      5.226332   346A      5.230086  
     347A      5.254793   348A      5.283911   349A      5.305902  
     350A      5.344108   351A      5.346624   352A      5.399485  
     353A      5.401970   354A      5.406643   355A      5.421361  
     356A      5.433462   357A      5.479856   358A      5.493752  
     359A      5.505742   360A      5.519313   361A      5.595504  
     362A      5.598687   363A      5.623930   364A      5.663446  
     365A      5.754287   366A      5.768381   367A      5.784921  
     368A      5.809133   369A      5.829248   370A      5.834292  
     371A      5.885343   372A      5.927922   373A      5.948243  
     374A      5.973154   375A      6.047836   376A      6.109490  
     377A      6.132184   378A      6.279397   379A      6.316088  
     380A      6.415987   381A      6.443675   382A      6.487613  
     383A      6.524263   384A      6.546976   385A      6.552729  
     386A      6.586834   387A      6.836421   388A      6.932699  
     389A      7.072178   390A      7.250689   391A      7.316738  
     392A      7.409176   393A      7.516863   394A      7.677676  
     395A      7.877190   396A      8.164224   397A     12.829196  
     398A     13.719499   399A     13.876267   400A     14.132891  
     401A     14.539715   402A     15.531622  

    Final Occupation by Irrep:
              A 
    DOCC [    25 ]

  @DF-RHF Final Energy:  -271.25578514916316

   => Energetics <=

    Nuclear Repulsion Energy =            237.3961433868320796
    One-Electron Energy =                -837.8013966550267924
    Two-Electron Energy =                 329.1494681190314964
    Total Energy =                       -271.2557851491631595

Computation Completed


Properties will be evaluated at   0.000000,   0.000000,   0.000000 [a0]

Properties computed using the SCF density matrix

  Nuclear Dipole Moment: [e a0]
     X:    -1.3128      Y:    -2.5343      Z:     1.8126

  Electronic Dipole Moment: [e a0]
     X:     1.7064      Y:     2.1578      Z:    -1.2222

  Dipole Moment: [e a0]
     X:     0.3936      Y:    -0.3765      Z:     0.5904     Total:     0.8032

  Dipole Moment: [D]
     X:     1.0003      Y:    -0.9569      Z:     1.5006     Total:     2.0416


*** tstop() called on r282 at Fri Sep 10 16:39:57 2021
Module time:
	user time   =      28.12 seconds =       0.47 minutes
	system time =       0.75 seconds =       0.01 minutes
	total time  =         28 seconds =       0.47 minutes
Total time:
	user time   =      28.12 seconds =       0.47 minutes
	system time =       0.75 seconds =       0.01 minutes
	total time  =         28 seconds =       0.47 minutes

  //>>>>>>>>>>>>>>>>>>>>>>>>>>>>>>>>>>>//
  //            Monomer A HF           //
  //<<<<<<<<<<<<<<<<<<<<<<<<<<<<<<<<<<<//


*** tstart() called on r282
*** at Fri Sep 10 16:39:57 2021

   => Loading Basis Set <=

    Name: JUN-CC-PVTZ
    Role: ORBITAL
    Keyword: BASIS
    atoms 1-2, 9, 13, 16                entry C          line   217 file /home/r08543048/miniconda3/share/psi4/basis/jun-cc-pvtz.gbs 
    atoms 3-4, 6-8, 10-12, 14-15, 17-18 entry H          line    36 file /home/r08543048/miniconda3/share/psi4/basis/jun-cc-pvtz.gbs 
    atoms 5                             entry O          line   305 file /home/r08543048/miniconda3/share/psi4/basis/jun-cc-pvtz.gbs 


         ---------------------------------------------------------
                                   SCF
               by Justin Turney, Rob Parrish, Andy Simmonett
                          and Daniel G. A. Smith
                              RHF Reference
                        1 Threads,  20980 MiB Core
         ---------------------------------------------------------

  ==> Geometry <==

    Molecular point group: c1
    Full point group: C1

    Geometry (in Angstrom), charge = 0, multiplicity = 1:

       Center              X                  Y                   Z               Mass       
    ------------   -----------------  -----------------  -----------------  -----------------
         C           -1.391872877393    -0.409345544235     0.723341167957    12.000000000000
         C           -0.929802877393     0.997778455765     0.379122167957    12.000000000000
         H           -0.516289877393    -1.061598544235     0.788389167957     1.007825032230
         H           -1.844257877393    -0.389593544235     1.718576167957     1.007825032230
         O           -0.265341877393     1.065574455765    -0.878976832043    15.994914619570
         H           -1.791638877393     1.660810455765     0.292353167957     1.007825032230
         H           -0.287548877393     1.391122455765     1.173955167957     1.007825032230
         H            0.584836122607     0.619607455765    -0.771528832043     1.007825032230
         C           -2.379455877393    -0.959915544235    -0.296745832043    12.000000000000
         H           -2.679015877393    -1.977987544235    -0.050842832043     1.007825032230
         H           -3.278608877393    -0.343268544235    -0.330192832043     1.007825032230
         H           -1.938900877393    -0.960633544235    -1.291989832043     1.007825032230
      Gh(C)           2.590808122607    -0.816900544235    -0.428341832043    12.000000000000
      Gh(H)           2.094494122607    -1.777363544235    -0.405105832043     1.007825032230
      Gh(H)           3.099451122607    -0.542360544235    -1.342171832043     1.007825032230
      Gh(C)           2.581495122607    -0.004433544235     0.631453167957    12.000000000000
      Gh(H)           3.080755122607     0.954354455765     0.609167167957     1.007825032230
      Gh(H)           2.077733122607    -0.281864544235     1.547439167957     1.007825032230

  Running in c1 symmetry.

  Rotational constants: A =      0.15659  B =      0.04673  C =      0.04346 [cm^-1]
  Rotational constants: A =   4694.42420  B =   1400.90260  C =   1302.90660 [MHz]
  Nuclear repulsion =  132.799520267775847

  Charge       = 0
  Multiplicity = 1
  Electrons    = 34
  Nalpha       = 17
  Nbeta        = 17

  ==> Algorithm <==

  SCF Algorithm Type is DF.
  DIIS enabled.
  MOM disabled.
  Fractional occupation disabled.
  Guess Type is SAD.
  Energy threshold   = 1.00e-08
  Density threshold  = 1.00e-08
  Integral threshold = 0.00e+00

  ==> Primary Basis <==

  Basis Set: JUN-CC-PVTZ
    Blend: JUN-CC-PVTZ
    Number of shells: 150
    Number of basis function: 402
    Number of Cartesian functions: 450
    Spherical Harmonics?: true
    Max angular momentum: 3

   => Loading Basis Set <=

    Name: (JUN-CC-PVTZ AUX)
    Role: JKFIT
    Keyword: DF_BASIS_SCF
    atoms 1-2, 9, 13, 16                entry C          line   152 file /home/r08543048/miniconda3/share/psi4/basis/jun-cc-pvtz-jkfit.gbs 
    atoms 3-4, 6-8, 10-12, 14-15, 17-18 entry H          line    70 file /home/r08543048/miniconda3/share/psi4/basis/jun-cc-pvtz-jkfit.gbs 
    atoms 5                             entry O          line   272 file /home/r08543048/miniconda3/share/psi4/basis/jun-cc-pvtz-jkfit.gbs 

  ==> Pre-Iterations <==

   -------------------------------------------------------
    Irrep   Nso     Nmo     Nalpha   Nbeta   Ndocc  Nsocc
   -------------------------------------------------------
     A        402     402       0       0       0       0
   -------------------------------------------------------
    Total     402     402      17      17      17       0
   -------------------------------------------------------

  ==> Integral Setup <==

  ==> DiskDFJK: Density-Fitted J/K Matrices <==

    J tasked:                  Yes
    K tasked:                  Yes
    wK tasked:                  No
    OpenMP threads:              1
    Integrals threads:           1
    Memory [MiB]:            15735
    Algorithm:                Core
    Integral Cache:           LOAD
    Schwarz Cutoff:          1E-12
    Fitting Condition:       1E-10

   => Auxiliary Basis Set <=

  Basis Set: (JUN-CC-PVTZ AUX)
    Blend: JUN-CC-PVTZ-JKFIT
    Number of shells: 294
    Number of basis function: 930
    Number of Cartesian functions: 1116
    Spherical Harmonics?: true
    Max angular momentum: 4

  Minimum eigenvalue in the overlap matrix is 4.6889157385E-05.
  Using Symmetric Orthogonalization.

  SCF Guess: Superposition of Atomic Densities via on-the-fly atomic UHF.

  ==> Iterations <==

                           Total Energy        Delta E     RMS |[F,P]|

   @DF-RHF iter SAD:  -192.49969542168856   -1.92500e+02   0.00000e+00 
   @DF-RHF iter   1:  -193.01053330554490   -5.10838e-01   1.42530e-03 DIIS
   @DF-RHF iter   2:  -193.15154440094668   -1.41011e-01   7.57669e-04 DIIS
   @DF-RHF iter   3:  -193.18921577724416   -3.76714e-02   1.28006e-04 DIIS
   @DF-RHF iter   4:  -193.19132202047467   -2.10624e-03   4.66381e-05 DIIS
   @DF-RHF iter   5:  -193.19152038753430   -1.98367e-04   1.05581e-05 DIIS
   @DF-RHF iter   6:  -193.19153479571585   -1.44082e-05   2.18321e-06 DIIS
   @DF-RHF iter   7:  -193.19153573225850   -9.36543e-07   5.52910e-07 DIIS
   @DF-RHF iter   8:  -193.19153578621973   -5.39612e-08   1.85901e-07 DIIS
   @DF-RHF iter   9:  -193.19153579240282   -6.18309e-09   4.94706e-08 DIIS
   @DF-RHF iter  10:  -193.19153579292870   -5.25887e-10   1.09402e-08 DIIS
   @DF-RHF iter  11:  -193.19153579295227   -2.35616e-11   2.96668e-09 DIIS
  Energy and wave function converged.


  ==> Post-Iterations <==

    Orbital Energies [Eh]
    ---------------------

    Doubly Occupied:                                                      

       1A    -20.555944     2A    -11.271395     3A    -11.221301  
       4A    -11.208093     5A     -1.356629     6A     -1.050531  
       7A     -0.918908     8A     -0.809889     9A     -0.679379  
      10A     -0.638230    11A     -0.621908    12A     -0.564501  
      13A     -0.529551    14A     -0.522417    15A     -0.484224  
      16A     -0.471191    17A     -0.436825  

    Virtual:                                                              

      18A      0.034035    19A      0.047389    20A      0.055705  
      21A      0.059927    22A      0.068094    23A      0.081497  
      24A      0.083153    25A      0.094275    26A      0.096537  
      27A      0.106189    28A      0.109980    29A      0.116274  
      30A      0.119312    31A      0.124943    32A      0.140403  
      33A      0.149323    34A      0.156566    35A      0.167040  
      36A      0.188640    37A      0.196330    38A      0.201545  
      39A      0.223099    40A      0.230616    41A      0.248096  
      42A      0.258451    43A      0.266574    44A      0.278926  
      45A      0.281195    46A      0.287592    47A      0.298759  
      48A      0.300402    49A      0.304430    50A      0.314056  
      51A      0.323227    52A      0.326363    53A      0.334537  
      54A      0.339122    55A      0.344538    56A      0.350577  
      57A      0.355939    58A      0.368739    59A      0.370535  
      60A      0.378041    61A      0.384128    62A      0.392600  
      63A      0.401586    64A      0.410542    65A      0.415928  
      66A      0.437145    67A      0.437388    68A      0.447562  
      69A      0.460386    70A      0.468991    71A      0.482320  
      72A      0.489669    73A      0.495330    74A      0.506520  
      75A      0.519082    76A      0.523840    77A      0.530065  
      78A      0.540997    79A      0.552384    80A      0.556939  
      81A      0.566550    82A      0.575863    83A      0.605157  
      84A      0.617494    85A      0.633922    86A      0.640948  
      87A      0.651337    88A      0.657524    89A      0.665267  
      90A      0.668230    91A      0.684271    92A      0.702373  
      93A      0.727173    94A      0.744205    95A      0.770499  
      96A      0.774152    97A      0.783222    98A      0.787343  
      99A      0.802867   100A      0.811001   101A      0.822154  
     102A      0.839785   103A      0.848730   104A      0.854976  
     105A      0.871801   106A      0.892042   107A      0.894917  
     108A      0.919370   109A      0.957899   110A      0.965115  
     111A      0.978575   112A      0.999481   113A      1.008332  
     114A      1.020480   115A      1.037614   116A      1.050282  
     117A      1.068084   118A      1.083358   119A      1.103599  
     120A      1.111823   121A      1.122903   122A      1.149666  
     123A      1.157935   124A      1.184912   125A      1.188987  
     126A      1.189994   127A      1.228451   128A      1.234567  
     129A      1.253185   130A      1.278022   131A      1.286562  
     132A      1.294562   133A      1.312707   134A      1.324703  
     135A      1.336908   136A      1.342359   137A      1.355521  
     138A      1.361778   139A      1.374564   140A      1.386945  
     141A      1.389664   142A      1.396716   143A      1.402795  
     144A      1.413460   145A      1.425545   146A      1.442402  
     147A      1.465964   148A      1.471488   149A      1.478609  
     150A      1.487891   151A      1.491954   152A      1.521836  
     153A      1.527748   154A      1.546182   155A      1.549355  
     156A      1.563062   157A      1.578421   158A      1.583986  
     159A      1.593927   160A      1.598814   161A      1.607339  
     162A      1.631470   163A      1.643155   164A      1.653697  
     165A      1.678751   166A      1.708103   167A      1.713619  
     168A      1.733763   169A      1.769390   170A      1.772917  
     171A      1.792521   172A      1.809349   173A      1.823785  
     174A      1.839045   175A      1.854513   176A      1.875081  
     177A      1.896405   178A      1.904971   179A      1.917946  
     180A      1.958987   181A      1.964423   182A      2.006597  
     183A      2.025941   184A      2.082849   185A      2.096078  
     186A      2.234007   187A      2.262781   188A      2.294603  
     189A      2.379649   190A      2.392202   191A      2.422204  
     192A      2.459013   193A      2.526694   194A      2.583750  
     195A      2.605166   196A      2.785634   197A      2.792911  
     198A      2.821016   199A      2.831053   200A      2.857640  
     201A      2.871343   202A      2.886368   203A      2.931996  
     204A      2.952621   205A      2.970342   206A      3.018043  
     207A      3.034165   208A      3.104157   209A      3.120504  
     210A      3.136806   211A      3.155227   212A      3.176141  
     213A      3.249384   214A      3.281182   215A      3.284075  
     216A      3.306744   217A      3.308297   218A      3.332003  
     219A      3.352879   220A      3.377532   221A      3.397700  
     222A      3.407855   223A      3.443893   224A      3.450138  
     225A      3.455936   226A      3.468719   227A      3.481307  
     228A      3.491945   229A      3.500451   230A      3.515086  
     231A      3.526201   232A      3.543300   233A      3.565130  
     234A      3.573173   235A      3.605043   236A      3.620067  
     237A      3.626186   238A      3.645799   239A      3.653491  
     240A      3.663156   241A      3.675786   242A      3.679548  
     243A      3.713319   244A      3.722703   245A      3.731795  
     246A      3.745122   247A      3.749413   248A      3.764218  
     249A      3.789702   250A      3.812485   251A      3.835445  
     252A      3.870520   253A      3.893808   254A      3.897831  
     255A      3.902766   256A      3.921150   257A      3.936183  
     258A      3.963322   259A      3.967013   260A      3.985412  
     261A      4.018091   262A      4.031919   263A      4.033508  
     264A      4.073136   265A      4.078050   266A      4.099686  
     267A      4.108760   268A      4.122369   269A      4.130638  
     270A      4.158699   271A      4.185033   272A      4.208649  
     273A      4.224611   274A      4.234030   275A      4.238099  
     276A      4.255633   277A      4.263210   278A      4.288950  
     279A      4.299469   280A      4.316711   281A      4.349377  
     282A      4.358071   283A      4.371185   284A      4.388126  
     285A      4.397987   286A      4.408488   287A      4.424103  
     288A      4.440768   289A      4.450098   290A      4.462128  
     291A      4.475572   292A      4.482033   293A      4.490891  
     294A      4.498356   295A      4.506418   296A      4.523468  
     297A      4.531434   298A      4.547246   299A      4.553525  
     300A      4.564080   301A      4.584753   302A      4.597377  
     303A      4.607144   304A      4.630408   305A      4.662564  
     306A      4.667758   307A      4.684627   308A      4.710998  
     309A      4.725697   310A      4.744368   311A      4.755663  
     312A      4.779522   313A      4.797894   314A      4.821492  
     315A      4.846982   316A      4.850981   317A      4.857028  
     318A      4.894261   319A      4.920919   320A      4.928902  
     321A      4.946198   322A      4.991588   323A      5.004056  
     324A      5.010929   325A      5.035037   326A      5.057899  
     327A      5.071582   328A      5.119531   329A      5.141945  
     330A      5.149185   331A      5.185879   332A      5.223259  
     333A      5.247720   334A      5.278256   335A      5.279571  
     336A      5.304058   337A      5.334108   338A      5.387894  
     339A      5.391595   340A      5.408910   341A      5.419052  
     342A      5.422689   343A      5.469602   344A      5.478207  
     345A      5.486873   346A      5.512176   347A      5.589248  
     348A      5.594949   349A      5.612316   350A      5.653822  
     351A      5.661137   352A      5.750815   353A      5.764606  
     354A      5.780677   355A      5.821995   356A      5.827196  
     357A      5.876448   358A      5.893181   359A      5.923146  
     360A      5.942716   361A      5.968972   362A      5.989601  
     363A      6.102613   364A      6.115504   365A      6.128145  
     366A      6.156742   367A      6.181445   368A      6.252576  
     369A      6.301217   370A      6.417426   371A      6.434455  
     372A      6.477430   373A      6.491755   374A      6.522298  
     375A      6.549698   376A      6.582431   377A      6.802223  
     378A      6.921594   379A      7.056993   380A      7.238592  
     381A      7.241452   382A      7.244067   383A      7.307020  
     384A      7.397085   385A      7.469879   386A      7.500794  
     387A      7.505064   388A      7.666921   389A      7.864150  
     390A      7.881681   391A      8.031566   392A      8.150387  
     393A      8.206071   394A      8.676586   395A      9.578470  
     396A     10.276066   397A     13.714867   398A     13.867215  
     399A     14.124273   400A     14.536471   401A     41.774457  
     402A     47.473926  

    Final Occupation by Irrep:
              A 
    DOCC [    17 ]

  @DF-RHF Final Energy:  -193.19153579295227

   => Energetics <=

    Nuclear Repulsion Energy =            132.7995202677758471
    One-Electron Energy =                -525.3002826469472666
    Two-Electron Energy =                 199.3092265862191539
    Total Energy =                       -193.1915357929522656

Computation Completed


Properties will be evaluated at   0.000000,   0.000000,   0.000000 [a0]

Properties computed using the SCF density matrix

  Nuclear Dipole Moment: [e a0]
     X:   -79.5215      Y:     9.8911      Z:    -1.2638

  Electronic Dipole Moment: [e a0]
     X:    79.7331      Y:   -10.2229      Z:     1.8535

  Dipole Moment: [e a0]
     X:     0.2116      Y:    -0.3318      Z:     0.5897     Total:     0.7090

  Dipole Moment: [D]
     X:     0.5379      Y:    -0.8433      Z:     1.4989     Total:     1.8020


*** tstop() called on r282 at Fri Sep 10 16:40:13 2021
Module time:
	user time   =      15.09 seconds =       0.25 minutes
	system time =       0.35 seconds =       0.01 minutes
	total time  =         16 seconds =       0.27 minutes
Total time:
	user time   =      43.21 seconds =       0.72 minutes
	system time =       1.10 seconds =       0.02 minutes
	total time  =         44 seconds =       0.73 minutes

  //>>>>>>>>>>>>>>>>>>>>>>>>>>>>>>>>>>>//
  //            Monomer B HF           //
  //<<<<<<<<<<<<<<<<<<<<<<<<<<<<<<<<<<<//


*** tstart() called on r282
*** at Fri Sep 10 16:40:13 2021

   => Loading Basis Set <=

    Name: JUN-CC-PVTZ
    Role: ORBITAL
    Keyword: BASIS
    atoms 1-2, 9, 13, 16                entry C          line   217 file /home/r08543048/miniconda3/share/psi4/basis/jun-cc-pvtz.gbs 
    atoms 3-4, 6-8, 10-12, 14-15, 17-18 entry H          line    36 file /home/r08543048/miniconda3/share/psi4/basis/jun-cc-pvtz.gbs 
    atoms 5                             entry O          line   305 file /home/r08543048/miniconda3/share/psi4/basis/jun-cc-pvtz.gbs 


         ---------------------------------------------------------
                                   SCF
               by Justin Turney, Rob Parrish, Andy Simmonett
                          and Daniel G. A. Smith
                              RHF Reference
                        1 Threads,  20980 MiB Core
         ---------------------------------------------------------

  ==> Geometry <==

    Molecular point group: c1
    Full point group: C1

    Geometry (in Angstrom), charge = 0, multiplicity = 1:

       Center              X                  Y                   Z               Mass       
    ------------   -----------------  -----------------  -----------------  -----------------
      Gh(C)          -1.391872877393    -0.409345544235     0.723341167957    12.000000000000
      Gh(C)          -0.929802877393     0.997778455765     0.379122167957    12.000000000000
      Gh(H)          -0.516289877393    -1.061598544235     0.788389167957     1.007825032230
      Gh(H)          -1.844257877393    -0.389593544235     1.718576167957     1.007825032230
      Gh(O)          -0.265341877393     1.065574455765    -0.878976832043    15.994914619570
      Gh(H)          -1.791638877393     1.660810455765     0.292353167957     1.007825032230
      Gh(H)          -0.287548877393     1.391122455765     1.173955167957     1.007825032230
      Gh(H)           0.584836122607     0.619607455765    -0.771528832043     1.007825032230
      Gh(C)          -2.379455877393    -0.959915544235    -0.296745832043    12.000000000000
      Gh(H)          -2.679015877393    -1.977987544235    -0.050842832043     1.007825032230
      Gh(H)          -3.278608877393    -0.343268544235    -0.330192832043     1.007825032230
      Gh(H)          -1.938900877393    -0.960633544235    -1.291989832043     1.007825032230
         C            2.590808122607    -0.816900544235    -0.428341832043    12.000000000000
         H            2.094494122607    -1.777363544235    -0.405105832043     1.007825032230
         H            3.099451122607    -0.542360544235    -1.342171832043     1.007825032230
         C            2.581495122607    -0.004433544235     0.631453167957    12.000000000000
         H            3.080755122607     0.954354455765     0.609167167957     1.007825032230
         H            2.077733122607    -0.281864544235     1.547439167957     1.007825032230

  Running in c1 symmetry.

  Rotational constants: A =      0.15659  B =      0.04673  C =      0.04346 [cm^-1]
  Rotational constants: A =   4694.42420  B =   1400.90260  C =   1302.90660 [MHz]
  Nuclear repulsion =   33.375332983834021

  Charge       = 0
  Multiplicity = 1
  Electrons    = 16
  Nalpha       = 8
  Nbeta        = 8

  ==> Algorithm <==

  SCF Algorithm Type is DF.
  DIIS enabled.
  MOM disabled.
  Fractional occupation disabled.
  Guess Type is SAD.
  Energy threshold   = 1.00e-08
  Density threshold  = 1.00e-08
  Integral threshold = 0.00e+00

  ==> Primary Basis <==

  Basis Set: JUN-CC-PVTZ
    Blend: JUN-CC-PVTZ
    Number of shells: 150
    Number of basis function: 402
    Number of Cartesian functions: 450
    Spherical Harmonics?: true
    Max angular momentum: 3

   => Loading Basis Set <=

    Name: (JUN-CC-PVTZ AUX)
    Role: JKFIT
    Keyword: DF_BASIS_SCF
    atoms 1-2, 9, 13, 16                entry C          line   152 file /home/r08543048/miniconda3/share/psi4/basis/jun-cc-pvtz-jkfit.gbs 
    atoms 3-4, 6-8, 10-12, 14-15, 17-18 entry H          line    70 file /home/r08543048/miniconda3/share/psi4/basis/jun-cc-pvtz-jkfit.gbs 
    atoms 5                             entry O          line   272 file /home/r08543048/miniconda3/share/psi4/basis/jun-cc-pvtz-jkfit.gbs 

  ==> Pre-Iterations <==

   -------------------------------------------------------
    Irrep   Nso     Nmo     Nalpha   Nbeta   Ndocc  Nsocc
   -------------------------------------------------------
     A        402     402       0       0       0       0
   -------------------------------------------------------
    Total     402     402       8       8       8       0
   -------------------------------------------------------

  ==> Integral Setup <==

  ==> DiskDFJK: Density-Fitted J/K Matrices <==

    J tasked:                  Yes
    K tasked:                  Yes
    wK tasked:                  No
    OpenMP threads:              1
    Integrals threads:           1
    Memory [MiB]:            15735
    Algorithm:                Core
    Integral Cache:           LOAD
    Schwarz Cutoff:          1E-12
    Fitting Condition:       1E-10

   => Auxiliary Basis Set <=

  Basis Set: (JUN-CC-PVTZ AUX)
    Blend: JUN-CC-PVTZ-JKFIT
    Number of shells: 294
    Number of basis function: 930
    Number of Cartesian functions: 1116
    Spherical Harmonics?: true
    Max angular momentum: 4

  Minimum eigenvalue in the overlap matrix is 4.6889157385E-05.
  Using Symmetric Orthogonalization.

  SCF Guess: Superposition of Atomic Densities via on-the-fly atomic UHF.

  ==> Iterations <==

                           Total Energy        Delta E     RMS |[F,P]|

   @DF-RHF iter SAD:   -77.28485353089150   -7.72849e+01   0.00000e+00 
   @DF-RHF iter   1:   -77.99010455555901   -7.05251e-01   8.91367e-04 DIIS
   @DF-RHF iter   2:   -78.05306681071281   -6.29623e-02   3.62425e-04 DIIS
   @DF-RHF iter   3:   -78.06379174530085   -1.07249e-02   5.63530e-05 DIIS
   @DF-RHF iter   4:   -78.06433756106870   -5.45816e-04   5.60064e-06 DIIS
   @DF-RHF iter   5:   -78.06434363632664   -6.07526e-06   6.38297e-07 DIIS
   @DF-RHF iter   6:   -78.06434372653665   -9.02100e-08   7.93148e-08 DIIS
   @DF-RHF iter   7:   -78.06434372777107   -1.23443e-09   1.46729e-08 DIIS
   @DF-RHF iter   8:   -78.06434372781966   -4.85869e-11   4.91117e-09 DIIS
  Energy and wave function converged.


  ==> Post-Iterations <==

    Orbital Energies [Eh]
    ---------------------

    Doubly Occupied:                                                      

       1A    -11.231887     2A    -11.230194     3A     -1.033738  
       4A     -0.793558     5A     -0.644544     6A     -0.587170  
       7A     -0.508988     8A     -0.376463  

    Virtual:                                                              

       9A      0.034062    10A      0.047263    11A      0.054475  
      12A      0.060692    13A      0.068678    14A      0.081380  
      15A      0.086988    16A      0.089358    17A      0.093782  
      18A      0.104681    19A      0.109319    20A      0.116356  
      21A      0.118728    22A      0.122867    23A      0.132758  
      24A      0.148097    25A      0.151739    26A      0.162897  
      27A      0.170191    28A      0.181300    29A      0.188284  
      30A      0.197917    31A      0.211812    32A      0.222173  
      33A      0.235651    34A      0.242386    35A      0.261619  
      36A      0.281960    37A      0.290698    38A      0.293674  
      39A      0.300597    40A      0.308614    41A      0.312359  
      42A      0.321782    43A      0.325656    44A      0.329035  
      45A      0.338192    46A      0.351570    47A      0.352999  
      48A      0.358911    49A      0.370117    50A      0.373822  
      51A      0.383903    52A      0.388708    53A      0.398921  
      54A      0.403307    55A      0.415257    56A      0.430531  
      57A      0.438359    58A      0.445622    59A      0.458902  
      60A      0.463507    61A      0.471825    62A      0.473625  
      63A      0.483225    64A      0.493084    65A      0.504897  
      66A      0.510152    67A      0.518012    68A      0.532944  
      69A      0.537662    70A      0.566017    71A      0.571881  
      72A      0.594965    73A      0.602603    74A      0.605225  
      75A      0.613433    76A      0.640059    77A      0.642861  
      78A      0.644668    79A      0.647175    80A      0.675282  
      81A      0.688113    82A      0.691706    83A      0.731190  
      84A      0.734308    85A      0.740135    86A      0.762570  
      87A      0.773057    88A      0.775181    89A      0.794227  
      90A      0.796529    91A      0.825285    92A      0.839592  
      93A      0.856999    94A      0.885738    95A      0.901446  
      96A      0.927949    97A      0.928951    98A      0.962915  
      99A      0.970157   100A      0.993806   101A      1.005524  
     102A      1.019936   103A      1.028268   104A      1.041332  
     105A      1.050723   106A      1.060128   107A      1.086981  
     108A      1.096419   109A      1.104646   110A      1.119204  
     111A      1.124522   112A      1.146428   113A      1.157931  
     114A      1.171791   115A      1.190006   116A      1.204385  
     117A      1.206218   118A      1.220690   119A      1.225785  
     120A      1.246907   121A      1.261651   122A      1.267457  
     123A      1.279736   124A      1.287662   125A      1.295493  
     126A      1.305120   127A      1.328857   128A      1.341215  
     129A      1.347258   130A      1.359774   131A      1.388860  
     132A      1.391061   133A      1.398032   134A      1.424530  
     135A      1.429225   136A      1.437500   137A      1.464498  
     138A      1.465625   139A      1.470873   140A      1.503145  
     141A      1.523631   142A      1.537098   143A      1.555201  
     144A      1.560591   145A      1.564905   146A      1.588442  
     147A      1.600057   148A      1.612195   149A      1.622796  
     150A      1.630792   151A      1.649108   152A      1.664440  
     153A      1.667870   154A      1.681393   155A      1.686694  
     156A      1.707306   157A      1.719841   158A      1.750762  
     159A      1.778674   160A      1.808691   161A      1.818763  
     162A      1.864781   163A      1.883592   164A      1.912359  
     165A      1.928987   166A      1.950723   167A      1.980239  
     168A      1.989447   169A      2.006276   170A      2.023962  
     171A      2.039405   172A      2.083730   173A      2.120952  
     174A      2.138585   175A      2.202972   176A      2.207680  
     177A      2.242232   178A      2.347582   179A      2.384134  
     180A      2.403256   181A      2.435854   182A      2.484041  
     183A      2.543086   184A      2.568727   185A      2.596156  
     186A      2.612068   187A      2.666590   188A      2.686880  
     189A      2.739438   190A      2.765448   191A      2.786693  
     192A      2.816938   193A      2.843413   194A      2.873946  
     195A      2.891288   196A      2.924039   197A      2.965953  
     198A      2.974048   199A      2.997656   200A      3.049016  
     201A      3.058172   202A      3.090120   203A      3.111623  
     204A      3.117694   205A      3.141580   206A      3.199761  
     207A      3.241760   208A      3.261372   209A      3.277520  
     210A      3.295382   211A      3.409520   212A      3.429479  
     213A      3.444087   214A      3.462192   215A      3.476150  
     216A      3.487836   217A      3.490012   218A      3.505362  
     219A      3.534482   220A      3.541029   221A      3.561602  
     222A      3.578305   223A      3.600042   224A      3.606036  
     225A      3.609204   226A      3.622396   227A      3.629355  
     228A      3.656038   229A      3.683532   230A      3.705333  
     231A      3.742626   232A      3.756899   233A      3.768078  
     234A      3.777716   235A      3.808764   236A      3.824962  
     237A      3.831295   238A      3.852847   239A      3.881021  
     240A      3.906652   241A      3.923312   242A      3.943618  
     243A      3.947516   244A      3.978143   245A      4.022951  
     246A      4.026391   247A      4.032698   248A      4.036917  
     249A      4.048582   250A      4.051899   251A      4.064559  
     252A      4.090831   253A      4.112105   254A      4.139168  
     255A      4.166425   256A      4.210362   257A      4.231199  
     258A      4.256620   259A      4.259606   260A      4.285407  
     261A      4.289428   262A      4.295001   263A      4.318763  
     264A      4.325299   265A      4.333622   266A      4.379882  
     267A      4.386700   268A      4.413958   269A      4.422388  
     270A      4.435101   271A      4.444256   272A      4.475197  
     273A      4.480106   274A      4.495581   275A      4.509534  
     276A      4.536951   277A      4.546551   278A      4.565212  
     279A      4.586842   280A      4.609956   281A      4.620369  
     282A      4.644929   283A      4.653331   284A      4.676200  
     285A      4.701521   286A      4.725926   287A      4.727760  
     288A      4.738747   289A      4.759188   290A      4.768912  
     291A      4.775619   292A      4.785306   293A      4.797608  
     294A      4.813659   295A      4.824103   296A      4.834467  
     297A      4.860543   298A      4.875843   299A      4.889360  
     300A      4.893141   301A      4.904990   302A      4.916294  
     303A      4.927384   304A      4.933539   305A      4.941127  
     306A      4.955511   307A      4.976648   308A      4.986981  
     309A      5.010055   310A      5.028607   311A      5.040350  
     312A      5.051375   313A      5.058457   314A      5.084144  
     315A      5.087218   316A      5.095640   317A      5.117776  
     318A      5.152990   319A      5.158107   320A      5.180098  
     321A      5.187736   322A      5.249714   323A      5.278488  
     324A      5.315115   325A      5.329382   326A      5.359485  
     327A      5.360430   328A      5.414304   329A      5.418680  
     330A      5.420379   331A      5.447235   332A      5.508668  
     333A      5.521429   334A      5.563320   335A      5.597215  
     336A      5.618098   337A      5.636392   338A      5.697694  
     339A      5.741539   340A      5.810714   341A      5.828143  
     342A      5.856571   343A      5.910016   344A      5.964810  
     345A      6.015377   346A      6.058675   347A      6.082017  
     348A      6.158519   349A      6.200648   350A      6.242878  
     351A      6.292824   352A      6.295291   353A      6.326035  
     354A      6.352767   355A      6.409794   356A      6.435609  
     357A      6.453008   358A      6.471199   359A      6.563027  
     360A      6.590177   361A      6.691030   362A      6.850853  
     363A      6.876406   364A      6.947267   365A      7.023709  
     366A      7.150135   367A      7.291616   368A      7.407736  
     369A      7.482364   370A      7.499693   371A      7.565296  
     372A      7.608432   373A      7.676228   374A      7.700905  
     375A      7.717737   376A      7.808977   377A      7.866945  
     378A      7.930315   379A      7.995548   380A      8.039428  
     381A      8.203053   382A      8.366496   383A      8.477700  
     384A      8.574862   385A      9.545333   386A      9.620492  
     387A      9.742958   388A      9.856088   389A      9.898088  
     390A     10.012366   391A     10.167481   392A     10.344083  
     393A     11.304528   394A     11.703742   395A     12.737192  
     396A     12.889616   397A     13.597654   398A     15.547480  
     399A     43.907569   400A     44.943512   401A     45.525457  
     402A     61.529508  

    Final Occupation by Irrep:
              A 
    DOCC [     8 ]

  @DF-RHF Final Energy:   -78.06434372781966

   => Energetics <=

    Nuclear Repulsion Energy =             33.3753329838340207
    One-Electron Energy =                -170.0662659210945549
    Two-Electron Energy =                  58.6265892094408656
    Total Energy =                        -78.0643437278196615

Computation Completed


Properties will be evaluated at   0.000000,   0.000000,   0.000000 [a0]

Properties computed using the SCF density matrix

  Nuclear Dipole Moment: [e a0]
     X:    78.2087      Y:   -12.4254      Z:     3.0765

  Electronic Dipole Moment: [e a0]
     X:   -78.2061      Y:    12.4243      Z:    -3.0758

  Dipole Moment: [e a0]
     X:     0.0026      Y:    -0.0011      Z:     0.0007     Total:     0.0029

  Dipole Moment: [D]
     X:     0.0066      Y:    -0.0028      Z:     0.0017     Total:     0.0074


*** tstop() called on r282 at Fri Sep 10 16:40:24 2021
Module time:
	user time   =      11.18 seconds =       0.19 minutes
	system time =       0.27 seconds =       0.00 minutes
	total time  =         11 seconds =       0.18 minutes
Total time:
	user time   =      54.39 seconds =       0.91 minutes
	system time =       1.37 seconds =       0.02 minutes
	total time  =         55 seconds =       0.92 minutes
  Constructing Basis Sets for SAPT...

   => Loading Basis Set <=

    Name: (JUN-CC-PVTZ AUX)
    Role: RIFIT
    Keyword: DF_BASIS_SAPT
    atoms 1-2, 9, 13, 16                entry C          line   132 file /home/r08543048/miniconda3/share/psi4/basis/jun-cc-pvtz-ri.gbs 
    atoms 3-4, 6-8, 10-12, 14-15, 17-18 entry H          line    30 file /home/r08543048/miniconda3/share/psi4/basis/jun-cc-pvtz-ri.gbs 
    atoms 5                             entry O          line   244 file /home/r08543048/miniconda3/share/psi4/basis/jun-cc-pvtz-ri.gbs 


  //>>>>>>>>>>>>>>>>>>>>>>>>>>>>>>>>>>>//
  //               SAPT0               //
  //<<<<<<<<<<<<<<<<<<<<<<<<<<<<<<<<<<<//


*** tstart() called on r282
*** at Fri Sep 10 16:40:24 2021

        SAPT0  
    Ed Hohenstein
     6 June 2009

      Orbital Information
  --------------------------
    NSO        =       402
    NMO        =       402
    NRI        =       942
    NOCC A     =        17
    NOCC B     =         8
    FOCC A     =         0
    FOCC B     =         0
    NVIR A     =       385
    NVIR B     =       394

    Elst10,r            =    -0.007084196963 [Eh]
    Exch10              =     0.009491701112 [Eh]
    Exch10 (S^2)        =     0.009418746348 [Eh]

    Iter     Energy [mEh]          dE [mEh]         Residual      Time [s]
       1      -0.49763354       0.497633543       3.193543825             0
       2      -0.57230199       0.074668450       0.975993709             1
       3      -0.58249274       0.010190746       0.229265064             1
       4      -0.58101373      -0.001479011       0.094998326             2
       5      -0.58043216      -0.000581568       0.021050263             2
       6      -0.58053657       0.000104414       0.008088278             3
       7      -0.58057564       0.000039063       0.001871421             3
       8      -0.58056961      -0.000006028       0.000573851             4
       9      -0.58056775      -0.000001861       0.000131761             4
      10      -0.58056827       0.000000523       0.000045944             5
      11      -0.58056839       0.000000117       0.000013268             5
      12      -0.58056833      -0.000000061       0.000003363             6
      13      -0.58056833       0.000000003       0.000000894             6

    CHF Iterations converged


    Iter     Energy [mEh]          dE [mEh]         Residual      Time [s]
       1      -3.31289086       3.312890857       9.423983394             1
       2      -4.20629826       0.893407404       2.907343150             1
       3      -4.25530019       0.049001927       0.605163398             2
       4      -4.23508023      -0.020219957       0.140149947             2
       5      -4.23489236      -0.000187877       0.034086524             3
       6      -4.23568789       0.000795536       0.006467695             3
       7      -4.23563715      -0.000050738       0.002306423             3
       8      -4.23561218      -0.000024974       0.000687820             4
       9      -4.23561982       0.000007638       0.000154916             4
      10      -4.23561904      -0.000000778       0.000042041             5
      11      -4.23561897      -0.000000073       0.000009636             5
      12      -4.23561903       0.000000064       0.000001774             6
      13      -4.23561902      -0.000000007       0.000000369             6

    CHF Iterations converged

    Ind20,r (A<-B)      =    -0.000580568330 [Eh]
    Ind20,r (B<-A)      =    -0.004235619024 [Eh]
    Ind20,r             =    -0.004816187354 [Eh]
    Exch-Ind20,r (A<-B) =     0.000439475263 [Eh]
    Exch-Ind20,r (B<-A) =     0.003160187347 [Eh]
    Exch-Ind20,r        =     0.003599662610 [Eh]
    Disp20              =    -0.006721930221 [Eh]
    Disp20 (SS)         =    -0.003360965111 [Eh]
    Disp20 (OS)         =    -0.003360965111 [Eh]
    Exch-Disp20         =     0.000973955080 [Eh]
    Exch-Disp20 (SS)    =     0.000633191444 [Eh]
    Exch-Disp20 (OS)    =     0.000340763636 [Eh]

    SAPT Results 
  --------------------------------------------------------------------------------------------------------
    Electrostatics                 -7.08419696 [mEh]      -4.44540071 [kcal/mol]     -18.59955656 [kJ/mol]
      Elst10,r                     -7.08419696 [mEh]      -4.44540071 [kcal/mol]     -18.59955656 [kJ/mol]

    Exchange                        9.49170111 [mEh]       5.95613237 [kcal/mol]      24.92045784 [kJ/mol]
      Exch10                        9.49170111 [mEh]       5.95613237 [kcal/mol]      24.92045784 [kJ/mol]
      Exch10(S^2)                   9.41874635 [mEh]       5.91035256 [kcal/mol]      24.72891513 [kJ/mol]

    Induction                      -2.31313254 [mEh]      -1.45151258 [kcal/mol]      -6.07312865 [kJ/mol]
      Ind20,r                      -4.81618735 [mEh]      -3.02220319 [kcal/mol]     -12.64489815 [kJ/mol]
      Exch-Ind20,r                  3.59966261 [mEh]       2.25882239 [kcal/mol]       9.45091288 [kJ/mol]
      delta HF,r (2)               -1.09660780 [mEh]      -0.68813178 [kcal/mol]      -2.87914337 [kJ/mol]

    Dispersion                     -5.74797514 [mEh]      -3.60690886 [kcal/mol]     -15.09130665 [kJ/mol]
      Disp20                       -6.72193022 [mEh]      -4.21807490 [kcal/mol]     -17.64842536 [kJ/mol]
      Exch-Disp20                   0.97395508 [mEh]       0.61116604 [kcal/mol]       2.55711871 [kJ/mol]
      Disp20 (SS)                  -3.36096511 [mEh]      -2.10903745 [kcal/mol]      -8.82421268 [kJ/mol]
      Disp20 (OS)                  -3.36096511 [mEh]      -2.10903745 [kcal/mol]      -8.82421268 [kJ/mol]
      Exch-Disp20 (SS)              0.63319144 [mEh]       0.39733363 [kcal/mol]       1.66244391 [kJ/mol]
      Exch-Disp20 (OS)              0.34076364 [mEh]       0.21383241 [kcal/mol]       0.89467480 [kJ/mol]

  Total HF                          0.09437161 [mEh]       0.05921908 [kcal/mol]       0.24777262 [kJ/mol]
  Total SAPT0                      -5.65360353 [mEh]      -3.54768978 [kcal/mol]     -14.84353403 [kJ/mol]

  Special recipe for scaled SAPT0 (see Manual):
    Electrostatics sSAPT0          -7.08419696 [mEh]      -4.44540071 [kcal/mol]     -18.59955656 [kJ/mol]
    Exchange sSAPT0                 9.49170111 [mEh]       5.95613237 [kcal/mol]      24.92045784 [kJ/mol]
    Induction sSAPT0               -2.22883728 [mEh]      -1.39861651 [kcal/mol]      -5.85181146 [kJ/mol]
    Dispersion sSAPT0              -5.72516750 [mEh]      -3.59259685 [kcal/mol]     -15.03142521 [kJ/mol]
  Total sSAPT0                     -5.54650063 [mEh]      -3.48048169 [kcal/mol]     -14.56233540 [kJ/mol]
  --------------------------------------------------------------------------------------------------------

*** tstop() called on r282 at Fri Sep 10 16:41:17 2021
Module time:
	user time   =      43.55 seconds =       0.73 minutes
	system time =       8.50 seconds =       0.14 minutes
	total time  =         53 seconds =       0.88 minutes
Total time:
	user time   =      98.06 seconds =       1.63 minutes
	system time =       9.87 seconds =       0.16 minutes
	total time  =        108 seconds =       1.80 minutes

    Psi4 stopped on: Friday, 10 September 2021 04:41PM
    Psi4 wall time for execution: 0:01:48.09

*** Psi4 exiting successfully. Buy a developer a beer!
