
    -----------------------------------------------------------------------
          Psi4: An Open-Source Ab Initio Electronic Structure Package
                               Psi4 1.3.2 release

                         Git: Rev {HEAD} ecbda83 


    R. M. Parrish, L. A. Burns, D. G. A. Smith, A. C. Simmonett,
    A. E. DePrince III, E. G. Hohenstein, U. Bozkaya, A. Yu. Sokolov,
    R. Di Remigio, R. M. Richard, J. F. Gonthier, A. M. James,
    H. R. McAlexander, A. Kumar, M. Saitow, X. Wang, B. P. Pritchard,
    P. Verma, H. F. Schaefer III, K. Patkowski, R. A. King, E. F. Valeev,
    F. A. Evangelista, J. M. Turney, T. D. Crawford, and C. D. Sherrill,
    J. Chem. Theory Comput. 13(7) pp 3185--3197 (2017).
    (doi: 10.1021/acs.jctc.7b00174)


                         Additional Contributions by
    P. Kraus, H. Kruse, M. H. Lechner, M. C. Schieber, R. A. Shaw,
    A. Alenaizan, R. Galvelis, Z. L. Glick, S. Lehtola, and J. P. Misiewicz

    -----------------------------------------------------------------------


    Psi4 started on: Friday, 10 September 2021 04:41PM

    Process ID: 56866
    Host:       r282
    PSIDATADIR: /home/r08543048/miniconda3/share/psi4
    Memory:     500.0 MiB
    Threads:    1
    
  ==> Input File <==

--------------------------------------------------------------------------
# Any line starting with the # character is a comment line
#! Sample  computation

memory 22 gb

molecule Dimer {
0 1
 C  1.278340   -0.507233    0.920830
 C  0.764071   -1.571942   -0.036755
 H  0.427487   -0.037552    1.426434
 H  1.848504   -1.027407    1.696480
 O -0.129719   -1.081575   -1.032244
 H  1.600171   -2.007374   -0.585795
 H  0.289736   -2.377302    0.534357
 H -0.889110   -0.695765   -0.576058
 C  2.160055    0.567823    0.286090
 H  2.700226    1.086075    1.081756
 H  2.918774    0.080896   -0.333109
 C  1.401110    1.598141   -0.545420
 H  0.634243    2.084861    0.060751
 H  2.074995    2.373299   -0.910886
 H  0.911245    1.132371   -1.396783

    
    
 --
0 1
 C   -2.460727    1.032856    0.248434
 H   -2.227110    1.598643   -0.643061
 H   -2.094476    1.417495    1.190455
 C   -3.176181   -0.093441    0.190359
 H   -3.410599   -0.656755    1.082989
 H   -3.546348   -0.476104   -0.750811
   
   
   
   
   
   
   
   





units angstrom

no_reorient
symmetry c1
}

set globals{
  basis jun-cc-pvtz
}

energy('sapt0')


--------------------------------------------------------------------------

  Memory set to  20.489 GiB by Python driver.

  //>>>>>>>>>>>>>>>>>>>>>>>>>>>>>>>>>>>//
  //              Dimer HF             //
  //<<<<<<<<<<<<<<<<<<<<<<<<<<<<<<<<<<<//


*** tstart() called on r282
*** at Fri Sep 10 16:41:17 2021

   => Loading Basis Set <=

    Name: JUN-CC-PVTZ
    Role: ORBITAL
    Keyword: BASIS
    atoms 1-2, 9, 12, 16, 19                   entry C          line   217 file /home/r08543048/miniconda3/share/psi4/basis/jun-cc-pvtz.gbs 
    atoms 3-4, 6-8, 10-11, 13-15, 17-18, 20-21 entry H          line    36 file /home/r08543048/miniconda3/share/psi4/basis/jun-cc-pvtz.gbs 
    atoms 5                                    entry O          line   305 file /home/r08543048/miniconda3/share/psi4/basis/jun-cc-pvtz.gbs 


         ---------------------------------------------------------
                                   SCF
               by Justin Turney, Rob Parrish, Andy Simmonett
                          and Daniel G. A. Smith
                              RHF Reference
                        1 Threads,  20980 MiB Core
         ---------------------------------------------------------

  ==> Geometry <==

    Molecular point group: c1
    Full point group: C1

    Geometry (in Angstrom), charge = 0, multiplicity = 1:

       Center              X                  Y                   Z               Mass       
    ------------   -----------------  -----------------  -----------------  -----------------
         C            1.290361070665    -0.483038716810     0.939015240563    12.000000000000
         C            0.776092070665    -1.547747716810    -0.018569759437    12.000000000000
         H            0.439508070665    -0.013357716810     1.444619240563     1.007825032230
         H            1.860525070665    -1.003212716810     1.714665240563     1.007825032230
         O           -0.117697929335    -1.057380716810    -1.014058759437    15.994914619570
         H            1.612192070665    -1.983179716810    -0.567609759437     1.007825032230
         H            0.301757070665    -2.353107716810     0.552542240563     1.007825032230
         H           -0.877088929335    -0.671570716810    -0.557872759437     1.007825032230
         C            2.172076070665     0.592017283190     0.304275240563    12.000000000000
         H            2.712247070665     1.110269283190     1.099941240563     1.007825032230
         H            2.930795070665     0.105090283190    -0.314923759437     1.007825032230
         C            1.413131070665     1.622335283190    -0.527234759437    12.000000000000
         H            0.646264070665     2.109055283190     0.078936240563     1.007825032230
         H            2.087016070665     2.397493283190    -0.892700759437     1.007825032230
         H            0.923266070665     1.156565283190    -1.378597759437     1.007825032230
         C           -2.448705929335     1.057050283190     0.266619240563    12.000000000000
         H           -2.215088929335     1.622837283190    -0.624875759437     1.007825032230
         H           -2.082454929335     1.441689283190     1.208640240563     1.007825032230
         C           -3.164159929335    -0.069246716810     0.208544240563    12.000000000000
         H           -3.398577929335    -0.632560716810     1.101174240563     1.007825032230
         H           -3.534326929335    -0.451909716810    -0.732625759437     1.007825032230

  Running in c1 symmetry.

  Rotational constants: A =      0.09664  B =      0.04122  C =      0.03436 [cm^-1]
  Rotational constants: A =   2897.10266  B =   1235.72363  C =   1030.01797 [MHz]
  Nuclear repulsion =  310.173608644003821

  Charge       = 0
  Multiplicity = 1
  Electrons    = 58
  Nalpha       = 29
  Nbeta        = 29

  ==> Algorithm <==

  SCF Algorithm Type is DF.
  DIIS enabled.
  MOM disabled.
  Fractional occupation disabled.
  Guess Type is SAD.
  Energy threshold   = 1.00e-08
  Density threshold  = 1.00e-08
  Integral threshold = 0.00e+00

  ==> Primary Basis <==

  Basis Set: JUN-CC-PVTZ
    Blend: JUN-CC-PVTZ
    Number of shells: 175
    Number of basis function: 469
    Number of Cartesian functions: 525
    Spherical Harmonics?: true
    Max angular momentum: 3

   => Loading Basis Set <=

    Name: (JUN-CC-PVTZ AUX)
    Role: JKFIT
    Keyword: DF_BASIS_SCF
    atoms 1-2, 9, 12, 16, 19                   entry C          line   152 file /home/r08543048/miniconda3/share/psi4/basis/jun-cc-pvtz-jkfit.gbs 
    atoms 3-4, 6-8, 10-11, 13-15, 17-18, 20-21 entry H          line    70 file /home/r08543048/miniconda3/share/psi4/basis/jun-cc-pvtz-jkfit.gbs 
    atoms 5                                    entry O          line   272 file /home/r08543048/miniconda3/share/psi4/basis/jun-cc-pvtz-jkfit.gbs 

  ==> Pre-Iterations <==

   -------------------------------------------------------
    Irrep   Nso     Nmo     Nalpha   Nbeta   Ndocc  Nsocc
   -------------------------------------------------------
     A        469     469       0       0       0       0
   -------------------------------------------------------
    Total     469     469      29      29      29       0
   -------------------------------------------------------

  ==> Integral Setup <==

  ==> DiskDFJK: Density-Fitted J/K Matrices <==

    J tasked:                  Yes
    K tasked:                  Yes
    wK tasked:                  No
    OpenMP threads:              1
    Integrals threads:           1
    Memory [MiB]:            15735
    Algorithm:                Core
    Integral Cache:           SAVE
    Schwarz Cutoff:          1E-12
    Fitting Condition:       1E-10

   => Auxiliary Basis Set <=

  Basis Set: (JUN-CC-PVTZ AUX)
    Blend: JUN-CC-PVTZ-JKFIT
    Number of shells: 343
    Number of basis function: 1085
    Number of Cartesian functions: 1302
    Spherical Harmonics?: true
    Max angular momentum: 4

  Minimum eigenvalue in the overlap matrix is 4.2490859560E-05.
  Using Symmetric Orthogonalization.

  SCF Guess: Superposition of Atomic Densities via on-the-fly atomic UHF.

  ==> Iterations <==

                           Total Energy        Delta E     RMS |[F,P]|

   @DF-RHF iter SAD:  -308.96801179253839   -3.08968e+02   0.00000e+00 
   @DF-RHF iter   1:  -310.00666050896024   -1.03865e+00   1.52815e-03 DIIS
   @DF-RHF iter   2:  -310.24110430696356   -2.34444e-01   7.59003e-04 DIIS
   @DF-RHF iter   3:  -310.29686859990665   -5.57643e-02   1.37771e-04 DIIS
   @DF-RHF iter   4:  -310.30016613953148   -3.29754e-03   4.78052e-05 DIIS
   @DF-RHF iter   5:  -310.30044617615044   -2.80037e-04   1.07492e-05 DIIS
   @DF-RHF iter   6:  -310.30046446821450   -1.82921e-05   2.85066e-06 DIIS
   @DF-RHF iter   7:  -310.30046603252060   -1.56431e-06   7.03844e-07 DIIS
   @DF-RHF iter   8:  -310.30046614353137   -1.11011e-07   2.00116e-07 DIIS
   @DF-RHF iter   9:  -310.30046615417962   -1.06483e-08   5.81996e-08 DIIS
   @DF-RHF iter  10:  -310.30046615507069   -8.91077e-10   1.75186e-08 DIIS
   @DF-RHF iter  11:  -310.30046615514442   -7.37259e-11   5.63609e-09 DIIS
  Energy and wave function converged.


  ==> Post-Iterations <==

    Orbital Energies [Eh]
    ---------------------

    Doubly Occupied:                                                      

       1A    -20.540468     2A    -11.264527     3A    -11.244341  
       4A    -11.242590     5A    -11.215894     6A    -11.213844  
       7A    -11.200570     8A     -1.344189     9A     -1.064166  
      10A     -1.048503    11A     -0.968734    12A     -0.860930  
      13A     -0.806418    14A     -0.786874    15A     -0.668784  
      16A     -0.657253    17A     -0.634148    18A     -0.621815  
      19A     -0.600002    20A     -0.575361    21A     -0.556639  
      22A     -0.531231    23A     -0.520842    24A     -0.497390  
      25A     -0.490583    26A     -0.470745    27A     -0.456123  
      28A     -0.417277    29A     -0.390612  

    Virtual:                                                              

      30A      0.050955    31A      0.052821    32A      0.059691  
      33A      0.062988    34A      0.067035    35A      0.080172  
      36A      0.083474    37A      0.089198    38A      0.096138  
      39A      0.097957    40A      0.112193    41A      0.114739  
      42A      0.121805    43A      0.126892    44A      0.132757  
      45A      0.137631    46A      0.142793    47A      0.152743  
      48A      0.163318    49A      0.167600    50A      0.175117  
      51A      0.189920    52A      0.205673    53A      0.207259  
      54A      0.213466    55A      0.225614    56A      0.237309  
      57A      0.255637    58A      0.258418    59A      0.273816  
      60A      0.277281    61A      0.282927    62A      0.291693  
      63A      0.291895    64A      0.307461    65A      0.308824  
      66A      0.314732    67A      0.318768    68A      0.324543  
      69A      0.330235    70A      0.340656    71A      0.346573  
      72A      0.347692    73A      0.352253    74A      0.355266  
      75A      0.358455    76A      0.361072    77A      0.374448  
      78A      0.378279    79A      0.386891    80A      0.387800  
      81A      0.395120    82A      0.404023    83A      0.405139  
      84A      0.427849    85A      0.430871    86A      0.438963  
      87A      0.448163    88A      0.460625    89A      0.468229  
      90A      0.473922    91A      0.477777    92A      0.481639  
      93A      0.492358    94A      0.495587    95A      0.510162  
      96A      0.531839    97A      0.536738    98A      0.541484  
      99A      0.549188   100A      0.562609   101A      0.567013  
     102A      0.574685   103A      0.588273   104A      0.600227  
     105A      0.608721   106A      0.621351   107A      0.627224  
     108A      0.644575   109A      0.658107   110A      0.674003  
     111A      0.681699   112A      0.689617   113A      0.704504  
     114A      0.707168   115A      0.717252   116A      0.725767  
     117A      0.731662   118A      0.735821   119A      0.752596  
     120A      0.753975   121A      0.760362   122A      0.779552  
     123A      0.782481   124A      0.790043   125A      0.802774  
     126A      0.817752   127A      0.822641   128A      0.825445  
     129A      0.836900   130A      0.850008   131A      0.854966  
     132A      0.864079   133A      0.875282   134A      0.887627  
     135A      0.893273   136A      0.898356   137A      0.915292  
     138A      0.918982   139A      0.933258   140A      0.953081  
     141A      0.966482   142A      0.976697   143A      0.986388  
     144A      0.993512   145A      1.012354   146A      1.023454  
     147A      1.043622   148A      1.046287   149A      1.072222  
     150A      1.078873   151A      1.092583   152A      1.102266  
     153A      1.120770   154A      1.133805   155A      1.144783  
     156A      1.157748   157A      1.162717   158A      1.198157  
     159A      1.211556   160A      1.226039   161A      1.235808  
     162A      1.242336   163A      1.255162   164A      1.280419  
     165A      1.281579   166A      1.304316   167A      1.306794  
     168A      1.312709   169A      1.326068   170A      1.352571  
     171A      1.363148   172A      1.368902   173A      1.372344  
     174A      1.385556   175A      1.393291   176A      1.412689  
     177A      1.439462   178A      1.441970   179A      1.447258  
     180A      1.458882   181A      1.469557   182A      1.478742  
     183A      1.490924   184A      1.496616   185A      1.520762  
     186A      1.526961   187A      1.543502   188A      1.551543  
     189A      1.552597   190A      1.567351   191A      1.584628  
     192A      1.590018   193A      1.596024   194A      1.618590  
     195A      1.633705   196A      1.652651   197A      1.653085  
     198A      1.655617   199A      1.658126   200A      1.677967  
     201A      1.690059   202A      1.707749   203A      1.710192  
     204A      1.719086   205A      1.725011   206A      1.758450  
     207A      1.780643   208A      1.794886   209A      1.808359  
     210A      1.838797   211A      1.849064   212A      1.878142  
     213A      1.891020   214A      1.901734   215A      1.906245  
     216A      1.915863   217A      1.934755   218A      1.965278  
     219A      1.981412   220A      1.984277   221A      1.998204  
     222A      2.009976   223A      2.025304   224A      2.089147  
     225A      2.105846   226A      2.245675   227A      2.406759  
     228A      2.455559   229A      2.478559   230A      2.498766  
     231A      2.617183   232A      2.643255   233A      2.721880  
     234A      2.745550   235A      2.770145   236A      2.776984  
     237A      2.786460   238A      2.806093   239A      2.810399  
     240A      2.840454   241A      2.872326   242A      2.889246  
     243A      2.893483   244A      2.914531   245A      2.917427  
     246A      2.931116   247A      2.947231   248A      2.960724  
     249A      2.975812   250A      2.987259   251A      3.015768  
     252A      3.032166   253A      3.056591   254A      3.063520  
     255A      3.080150   256A      3.086766   257A      3.096517  
     258A      3.104989   259A      3.117696   260A      3.134215  
     261A      3.140788   262A      3.172305   263A      3.178204  
     264A      3.190832   265A      3.206016   266A      3.224297  
     267A      3.229693   268A      3.242489   269A      3.260432  
     270A      3.265171   271A      3.270795   272A      3.289178  
     273A      3.318234   274A      3.327452   275A      3.342474  
     276A      3.359487   277A      3.390651   278A      3.403210  
     279A      3.408009   280A      3.419674   281A      3.431036  
     282A      3.433653   283A      3.437730   284A      3.449456  
     285A      3.454322   286A      3.462980   287A      3.479977  
     288A      3.484703   289A      3.489646   290A      3.493807  
     291A      3.505459   292A      3.510594   293A      3.520253  
     294A      3.524034   295A      3.534441   296A      3.542953  
     297A      3.556114   298A      3.568830   299A      3.573253  
     300A      3.588051   301A      3.607831   302A      3.611311  
     303A      3.623063   304A      3.637789   305A      3.659664  
     306A      3.668842   307A      3.693683   308A      3.707635  
     309A      3.731367   310A      3.749089   311A      3.762663  
     312A      3.781622   313A      3.787981   314A      3.804080  
     315A      3.807187   316A      3.824543   317A      3.856217  
     318A      3.868360   319A      3.880962   320A      3.910374  
     321A      3.926950   322A      3.949729   323A      3.968107  
     324A      3.973591   325A      3.977240   326A      3.988431  
     327A      4.001919   328A      4.012695   329A      4.019222  
     330A      4.024830   331A      4.026410   332A      4.046332  
     333A      4.071160   334A      4.088911   335A      4.113150  
     336A      4.126141   337A      4.141968   338A      4.184007  
     339A      4.197686   340A      4.213670   341A      4.219347  
     342A      4.250500   343A      4.254175   344A      4.270136  
     345A      4.272627   346A      4.287308   347A      4.300822  
     348A      4.308755   349A      4.313684   350A      4.335498  
     351A      4.345383   352A      4.358432   353A      4.366062  
     354A      4.383421   355A      4.386467   356A      4.391551  
     357A      4.421174   358A      4.438410   359A      4.448305  
     360A      4.453466   361A      4.470656   362A      4.482719  
     363A      4.500846   364A      4.518259   365A      4.527607  
     366A      4.534737   367A      4.548012   368A      4.562451  
     369A      4.572789   370A      4.581544   371A      4.588808  
     372A      4.624166   373A      4.636213   374A      4.642789  
     375A      4.649263   376A      4.660489   377A      4.672604  
     378A      4.688286   379A      4.728833   380A      4.731674  
     381A      4.750072   382A      4.793513   383A      4.808096  
     384A      4.833234   385A      4.843137   386A      4.852915  
     387A      4.875669   388A      4.893201   389A      4.906584  
     390A      4.916634   391A      4.922223   392A      4.960994  
     393A      5.007282   394A      5.033921   395A      5.067130  
     396A      5.069234   397A      5.096863   398A      5.098683  
     399A      5.147407   400A      5.163377   401A      5.169055  
     402A      5.201645   403A      5.215938   404A      5.249560  
     405A      5.256176   406A      5.288644   407A      5.300753  
     408A      5.315907   409A      5.332542   410A      5.364829  
     411A      5.374548   412A      5.394962   413A      5.397618  
     414A      5.407564   415A      5.429386   416A      5.437463  
     417A      5.449918   418A      5.482435   419A      5.510445  
     420A      5.512904   421A      5.562525   422A      5.587979  
     423A      5.605869   424A      5.637073   425A      5.657884  
     426A      5.661099   427A      5.772837   428A      5.777255  
     429A      5.788798   430A      5.809497   431A      5.820739  
     432A      5.850955   433A      5.864235   434A      5.873535  
     435A      5.935719   436A      5.944380   437A      5.964937  
     438A      6.011592   439A      6.051224   440A      6.064784  
     441A      6.106803   442A      6.207358   443A      6.295973  
     444A      6.320375   445A      6.423477   446A      6.464190  
     447A      6.523025   448A      6.532225   449A      6.556950  
     450A      6.563783   451A      6.590530   452A      6.640455  
     453A      6.839552   454A      6.966328   455A      7.092242  
     456A      7.247422   457A      7.343184   458A      7.425891  
     459A      7.548271   460A      7.665282   461A      7.904028  
     462A      8.179660   463A     12.887840   464A     13.595943  
     465A     13.816067   466A     13.998895   467A     14.186863  
     468A     14.686051   469A     15.542256  

    Final Occupation by Irrep:
              A 
    DOCC [    29 ]

  @DF-RHF Final Energy:  -310.30046615514442

   => Energetics <=

    Nuclear Repulsion Energy =            310.1736086440038207
    One-Electron Energy =               -1035.1664446663730814
    Two-Electron Energy =                 414.6923698672248406
    Total Energy =                       -310.3004661551444201

Computation Completed


Properties will be evaluated at   0.000000,   0.000000,   0.000000 [a0]

Properties computed using the SCF density matrix

  Nuclear Dipole Moment: [e a0]
     X:     1.3175      Y:     2.6518      Z:     1.9932

  Electronic Dipole Moment: [e a0]
     X:    -1.5225      Y:    -2.5451      Z:    -1.3052

  Dipole Moment: [e a0]
     X:    -0.2050      Y:     0.1067      Z:     0.6880     Total:     0.7257

  Dipole Moment: [D]
     X:    -0.5209      Y:     0.2712      Z:     1.7487     Total:     1.8446


*** tstop() called on r282 at Fri Sep 10 16:42:04 2021
Module time:
	user time   =      45.89 seconds =       0.76 minutes
	system time =       1.23 seconds =       0.02 minutes
	total time  =         47 seconds =       0.78 minutes
Total time:
	user time   =      45.89 seconds =       0.76 minutes
	system time =       1.23 seconds =       0.02 minutes
	total time  =         47 seconds =       0.78 minutes

  //>>>>>>>>>>>>>>>>>>>>>>>>>>>>>>>>>>>//
  //            Monomer A HF           //
  //<<<<<<<<<<<<<<<<<<<<<<<<<<<<<<<<<<<//


*** tstart() called on r282
*** at Fri Sep 10 16:42:04 2021

   => Loading Basis Set <=

    Name: JUN-CC-PVTZ
    Role: ORBITAL
    Keyword: BASIS
    atoms 1-2, 9, 12, 16, 19                   entry C          line   217 file /home/r08543048/miniconda3/share/psi4/basis/jun-cc-pvtz.gbs 
    atoms 3-4, 6-8, 10-11, 13-15, 17-18, 20-21 entry H          line    36 file /home/r08543048/miniconda3/share/psi4/basis/jun-cc-pvtz.gbs 
    atoms 5                                    entry O          line   305 file /home/r08543048/miniconda3/share/psi4/basis/jun-cc-pvtz.gbs 


         ---------------------------------------------------------
                                   SCF
               by Justin Turney, Rob Parrish, Andy Simmonett
                          and Daniel G. A. Smith
                              RHF Reference
                        1 Threads,  20980 MiB Core
         ---------------------------------------------------------

  ==> Geometry <==

    Molecular point group: c1
    Full point group: C1

    Geometry (in Angstrom), charge = 0, multiplicity = 1:

       Center              X                  Y                   Z               Mass       
    ------------   -----------------  -----------------  -----------------  -----------------
         C            1.290361070665    -0.483038716810     0.939015240563    12.000000000000
         C            0.776092070665    -1.547747716810    -0.018569759437    12.000000000000
         H            0.439508070665    -0.013357716810     1.444619240563     1.007825032230
         H            1.860525070665    -1.003212716810     1.714665240563     1.007825032230
         O           -0.117697929335    -1.057380716810    -1.014058759437    15.994914619570
         H            1.612192070665    -1.983179716810    -0.567609759437     1.007825032230
         H            0.301757070665    -2.353107716810     0.552542240563     1.007825032230
         H           -0.877088929335    -0.671570716810    -0.557872759437     1.007825032230
         C            2.172076070665     0.592017283190     0.304275240563    12.000000000000
         H            2.712247070665     1.110269283190     1.099941240563     1.007825032230
         H            2.930795070665     0.105090283190    -0.314923759437     1.007825032230
         C            1.413131070665     1.622335283190    -0.527234759437    12.000000000000
         H            0.646264070665     2.109055283190     0.078936240563     1.007825032230
         H            2.087016070665     2.397493283190    -0.892700759437     1.007825032230
         H            0.923266070665     1.156565283190    -1.378597759437     1.007825032230
      Gh(C)          -2.448705929335     1.057050283190     0.266619240563    12.000000000000
      Gh(H)          -2.215088929335     1.622837283190    -0.624875759437     1.007825032230
      Gh(H)          -2.082454929335     1.441689283190     1.208640240563     1.007825032230
      Gh(C)          -3.164159929335    -0.069246716810     0.208544240563    12.000000000000
      Gh(H)          -3.398577929335    -0.632560716810     1.101174240563     1.007825032230
      Gh(H)          -3.534326929335    -0.451909716810    -0.732625759437     1.007825032230

  Running in c1 symmetry.

  Rotational constants: A =      0.09664  B =      0.04122  C =      0.03436 [cm^-1]
  Rotational constants: A =   2897.10266  B =   1235.72363  C =   1030.01797 [MHz]
  Nuclear repulsion =  192.241430261773786

  Charge       = 0
  Multiplicity = 1
  Electrons    = 42
  Nalpha       = 21
  Nbeta        = 21

  ==> Algorithm <==

  SCF Algorithm Type is DF.
  DIIS enabled.
  MOM disabled.
  Fractional occupation disabled.
  Guess Type is SAD.
  Energy threshold   = 1.00e-08
  Density threshold  = 1.00e-08
  Integral threshold = 0.00e+00

  ==> Primary Basis <==

  Basis Set: JUN-CC-PVTZ
    Blend: JUN-CC-PVTZ
    Number of shells: 175
    Number of basis function: 469
    Number of Cartesian functions: 525
    Spherical Harmonics?: true
    Max angular momentum: 3

   => Loading Basis Set <=

    Name: (JUN-CC-PVTZ AUX)
    Role: JKFIT
    Keyword: DF_BASIS_SCF
    atoms 1-2, 9, 12, 16, 19                   entry C          line   152 file /home/r08543048/miniconda3/share/psi4/basis/jun-cc-pvtz-jkfit.gbs 
    atoms 3-4, 6-8, 10-11, 13-15, 17-18, 20-21 entry H          line    70 file /home/r08543048/miniconda3/share/psi4/basis/jun-cc-pvtz-jkfit.gbs 
    atoms 5                                    entry O          line   272 file /home/r08543048/miniconda3/share/psi4/basis/jun-cc-pvtz-jkfit.gbs 

  ==> Pre-Iterations <==

   -------------------------------------------------------
    Irrep   Nso     Nmo     Nalpha   Nbeta   Ndocc  Nsocc
   -------------------------------------------------------
     A        469     469       0       0       0       0
   -------------------------------------------------------
    Total     469     469      21      21      21       0
   -------------------------------------------------------

  ==> Integral Setup <==

  ==> DiskDFJK: Density-Fitted J/K Matrices <==

    J tasked:                  Yes
    K tasked:                  Yes
    wK tasked:                  No
    OpenMP threads:              1
    Integrals threads:           1
    Memory [MiB]:            15735
    Algorithm:                Core
    Integral Cache:           LOAD
    Schwarz Cutoff:          1E-12
    Fitting Condition:       1E-10

   => Auxiliary Basis Set <=

  Basis Set: (JUN-CC-PVTZ AUX)
    Blend: JUN-CC-PVTZ-JKFIT
    Number of shells: 343
    Number of basis function: 1085
    Number of Cartesian functions: 1302
    Spherical Harmonics?: true
    Max angular momentum: 4

  Minimum eigenvalue in the overlap matrix is 4.2490859560E-05.
  Using Symmetric Orthogonalization.

  SCF Guess: Superposition of Atomic Densities via on-the-fly atomic UHF.

  ==> Iterations <==

                           Total Energy        Delta E     RMS |[F,P]|

   @DF-RHF iter SAD:  -231.56699431545536   -2.31567e+02   0.00000e+00 
   @DF-RHF iter   1:  -232.00853992683318   -4.41546e-01   1.34765e-03 DIIS
   @DF-RHF iter   2:  -232.18544111487279   -1.76901e-01   7.12154e-04 DIIS
   @DF-RHF iter   3:  -232.23315553324758   -4.77144e-02   1.22508e-04 DIIS
   @DF-RHF iter   4:  -232.23588557237829   -2.73004e-03   4.13143e-05 DIIS
   @DF-RHF iter   5:  -232.23610170992777   -2.16138e-04   1.05465e-05 DIIS
   @DF-RHF iter   6:  -232.23611915449499   -1.74446e-05   2.41141e-06 DIIS
   @DF-RHF iter   7:  -232.23612046304572   -1.30855e-06   5.86046e-07 DIIS
   @DF-RHF iter   8:  -232.23612054453474   -8.14890e-08   1.86535e-07 DIIS
   @DF-RHF iter   9:  -232.23612055310704   -8.57230e-09   5.16529e-08 DIIS
   @DF-RHF iter  10:  -232.23612055386687   -7.59826e-10   1.20008e-08 DIIS
   @DF-RHF iter  11:  -232.23612055390629   -3.94209e-11   3.03466e-09 DIIS
  Energy and wave function converged.


  ==> Post-Iterations <==

    Orbital Energies [Eh]
    ---------------------

    Doubly Occupied:                                                      

       1A    -20.554999     2A    -11.271760     3A    -11.221173  
       4A    -11.216960     5A    -11.202563     6A     -1.356037  
       7A     -1.068489     8A     -0.973380     9A     -0.866056  
      10A     -0.791799    11A     -0.676107    12A     -0.640005  
      13A     -0.628819    14A     -0.579861    15A     -0.561884  
      16A     -0.536960    17A     -0.503514    18A     -0.494985  
      19A     -0.474078    20A     -0.460565    21A     -0.425286  

    Virtual:                                                              

      22A      0.035096    23A      0.049940    24A      0.053286  
      25A      0.060786    26A      0.066604    27A      0.073409  
      28A      0.078909    29A      0.088631    30A      0.092965  
      31A      0.097863    32A      0.111791    33A      0.112712  
      34A      0.115317    35A      0.124452    36A      0.129673  
      37A      0.140137    38A      0.142655    39A      0.147615  
      40A      0.154023    41A      0.165131    42A      0.166479  
      43A      0.197666    44A      0.202511    45A      0.205797  
      46A      0.212016    47A      0.222453    48A      0.248061  
      49A      0.249766    50A      0.260002    51A      0.266619  
      52A      0.277210    53A      0.278433    54A      0.286636  
      55A      0.292749    56A      0.304192    57A      0.306569  
      58A      0.313646    59A      0.319111    60A      0.324272  
      61A      0.332285    62A      0.339890    63A      0.345514  
      64A      0.350073    65A      0.356049    66A      0.357408  
      67A      0.361356    68A      0.372420    69A      0.378295  
      70A      0.388842    71A      0.391162    72A      0.394133  
      73A      0.400704    74A      0.406356    75A      0.410378  
      76A      0.427149    77A      0.434928    78A      0.444298  
      79A      0.445902    80A      0.465387    81A      0.467920  
      82A      0.472221    83A      0.478863    84A      0.490883  
      85A      0.497330    86A      0.508303    87A      0.513724  
      88A      0.525251    89A      0.534101    90A      0.537535  
      91A      0.540570    92A      0.554746    93A      0.569366  
      94A      0.572379    95A      0.577744    96A      0.583984  
      97A      0.596491    98A      0.609673    99A      0.622684  
     100A      0.623553   101A      0.630370   102A      0.645646  
     103A      0.667240   104A      0.671654   105A      0.678680  
     106A      0.682993   107A      0.694498   108A      0.697823  
     109A      0.715877   110A      0.740539   111A      0.744559  
     112A      0.752800   113A      0.765282   114A      0.789643  
     115A      0.790987   116A      0.804764   117A      0.814040  
     118A      0.820085   119A      0.831551   120A      0.844673  
     121A      0.855585   122A      0.868674   123A      0.870426  
     124A      0.881567   125A      0.891623   126A      0.905185  
     127A      0.923143   128A      0.944649   129A      0.956097  
     130A      0.973164   131A      0.988744   132A      1.004349  
     133A      1.012297   134A      1.022404   135A      1.043899  
     136A      1.065608   137A      1.074083   138A      1.086119  
     139A      1.102281   140A      1.107871   141A      1.115375  
     142A      1.130343   143A      1.136832   144A      1.155063  
     145A      1.172411   146A      1.190717   147A      1.200936  
     148A      1.207407   149A      1.233347   150A      1.243330  
     151A      1.261380   152A      1.273539   153A      1.282230  
     154A      1.292263   155A      1.301071   156A      1.310191  
     157A      1.322841   158A      1.339794   159A      1.350959  
     160A      1.357285   161A      1.366183   162A      1.389137  
     163A      1.390059   164A      1.392147   165A      1.404626  
     166A      1.421565   167A      1.428142   168A      1.433512  
     169A      1.434791   170A      1.442397   171A      1.468457  
     172A      1.470677   173A      1.479177   174A      1.484255  
     175A      1.495096   176A      1.505851   177A      1.507211  
     178A      1.510592   179A      1.533556   180A      1.539261  
     181A      1.552292   182A      1.558456   183A      1.565772  
     184A      1.581556   185A      1.593536   186A      1.603696  
     187A      1.617780   188A      1.633237   189A      1.639998  
     190A      1.654056   191A      1.659922   192A      1.689449  
     193A      1.691083   194A      1.711267   195A      1.717206  
     196A      1.724333   197A      1.753231   198A      1.776102  
     199A      1.788899   200A      1.798337   201A      1.816445  
     202A      1.825286   203A      1.837882   204A      1.857134  
     205A      1.865608   206A      1.880921   207A      1.891443  
     208A      1.898848   209A      1.917680   210A      1.927730  
     211A      1.951054   212A      1.973551   213A      1.994283  
     214A      2.006814   215A      2.032069   216A      2.083610  
     217A      2.099243   218A      2.139202   219A      2.234052  
     220A      2.252435   221A      2.304141   222A      2.383072  
     223A      2.439602   224A      2.459790   225A      2.488725  
     226A      2.525239   227A      2.598375   228A      2.631863  
     229A      2.779422   230A      2.788593   231A      2.803328  
     232A      2.807509   233A      2.847608   234A      2.878731  
     235A      2.886503   236A      2.918639   237A      2.920550  
     238A      2.951806   239A      2.980601   240A      3.010479  
     241A      3.029670   242A      3.056072   243A      3.073884  
     244A      3.083554   245A      3.103651   246A      3.111474  
     247A      3.160894   248A      3.170569   249A      3.194229  
     250A      3.217386   251A      3.239998   252A      3.260469  
     253A      3.269774   254A      3.296565   255A      3.310219  
     256A      3.345873   257A      3.355469   258A      3.376570  
     259A      3.390492   260A      3.399758   261A      3.424447  
     262A      3.440836   263A      3.447192   264A      3.456102  
     265A      3.467436   266A      3.474916   267A      3.478256  
     268A      3.484289   269A      3.501765   270A      3.511878  
     271A      3.516911   272A      3.528913   273A      3.536474  
     274A      3.561759   275A      3.566736   276A      3.576126  
     277A      3.598244   278A      3.607773   279A      3.618511  
     280A      3.639239   281A      3.646823   282A      3.651791  
     283A      3.677403   284A      3.684064   285A      3.685349  
     286A      3.707093   287A      3.719041   288A      3.735189  
     289A      3.754255   290A      3.761367   291A      3.775983  
     292A      3.783877   293A      3.799633   294A      3.805316  
     295A      3.823079   296A      3.849144   297A      3.868618  
     298A      3.892468   299A      3.903124   300A      3.910572  
     301A      3.923343   302A      3.928218   303A      3.951805  
     304A      3.960373   305A      3.972617   306A      3.980127  
     307A      3.996829   308A      4.011645   309A      4.019034  
     310A      4.047518   311A      4.062981   312A      4.091259  
     313A      4.092015   314A      4.113574   315A      4.124770  
     316A      4.129732   317A      4.135223   318A      4.170910  
     319A      4.188573   320A      4.203821   321A      4.212926  
     322A      4.225256   323A      4.241211   324A      4.246627  
     325A      4.251625   326A      4.282215   327A      4.285514  
     328A      4.311150   329A      4.312983   330A      4.332218  
     331A      4.341347   332A      4.372740   333A      4.373623  
     334A      4.390174   335A      4.401359   336A      4.411658  
     337A      4.421978   338A      4.430458   339A      4.439169  
     340A      4.455523   341A      4.467349   342A      4.478130  
     343A      4.489934   344A      4.504792   345A      4.512750  
     346A      4.523170   347A      4.525915   348A      4.530177  
     349A      4.559000   350A      4.560966   351A      4.565577  
     352A      4.577630   353A      4.587020   354A      4.597892  
     355A      4.614194   356A      4.618618   357A      4.635799  
     358A      4.643562   359A      4.651400   360A      4.678403  
     361A      4.689699   362A      4.709866   363A      4.730905  
     364A      4.733308   365A      4.751680   366A      4.782194  
     367A      4.791328   368A      4.796718   369A      4.819627  
     370A      4.838939   371A      4.840756   372A      4.853655  
     373A      4.876140   374A      4.900514   375A      4.914193  
     376A      4.930143   377A      4.960513   378A      4.979994  
     379A      5.001017   380A      5.018234   381A      5.033476  
     382A      5.060686   383A      5.066926   384A      5.078612  
     385A      5.120413   386A      5.128081   387A      5.154998  
     388A      5.164770   389A      5.196490   390A      5.228679  
     391A      5.251628   392A      5.282023   393A      5.291565  
     394A      5.301113   395A      5.312955   396A      5.328328  
     397A      5.366319   398A      5.390523   399A      5.392458  
     400A      5.412932   401A      5.421839   402A      5.437136  
     403A      5.461005   404A      5.467739   405A      5.479684  
     406A      5.510158   407A      5.558224   408A      5.584133  
     409A      5.600346   410A      5.617439   411A      5.651663  
     412A      5.655282   413A      5.663460   414A      5.769467  
     415A      5.774275   416A      5.785218   417A      5.814218  
     418A      5.845446   419A      5.858909   420A      5.868642  
     421A      5.899917   422A      5.931052   423A      5.934144  
     424A      5.960907   425A      6.000765   426A      6.008054  
     427A      6.058943   428A      6.098506   429A      6.126299  
     430A      6.159941   431A      6.172836   432A      6.208924  
     433A      6.247533   434A      6.314504   435A      6.421240  
     436A      6.459551   437A      6.502192   438A      6.521995  
     439A      6.527534   440A      6.562372   441A      6.586907  
     442A      6.637287   443A      6.803361   444A      6.956567  
     445A      7.076266   446A      7.233329   447A      7.248463  
     448A      7.249995   449A      7.336703   450A      7.413418  
     451A      7.471143   452A      7.501591   453A      7.542665  
     454A      7.657615   455A      7.882828   456A      7.892847  
     457A      8.035021   458A      8.163914   459A      8.206081  
     460A      8.684060   461A      9.598072   462A     10.280243  
     463A     13.589493   464A     13.811771   465A     13.988667  
     466A     14.182003   467A     14.680123   468A     41.926276  
     469A     47.488696  

    Final Occupation by Irrep:
              A 
    DOCC [    21 ]

  @DF-RHF Final Energy:  -232.23612055390629

   => Energetics <=

    Nuclear Repulsion Energy =            192.2414302617737860
    One-Electron Energy =                -695.9445412723673599
    Two-Electron Energy =                 271.4669904566873129
    Total Energy =                       -232.2361205539062894

Computation Completed


Properties will be evaluated at   0.000000,   0.000000,   0.000000 [a0]

Properties computed using the SCF density matrix

  Nuclear Dipole Moment: [e a0]
     X:    86.1807      Y:   -12.2900      Z:    -5.1940

  Electronic Dipole Moment: [e a0]
     X:   -86.2111      Y:    12.3249      Z:     5.8792

  Dipole Moment: [e a0]
     X:    -0.0305      Y:     0.0348      Z:     0.6852     Total:     0.6867

  Dipole Moment: [D]
     X:    -0.0774      Y:     0.0886      Z:     1.7415     Total:     1.7455


*** tstop() called on r282 at Fri Sep 10 16:42:37 2021
Module time:
	user time   =      31.48 seconds =       0.52 minutes
	system time =       0.62 seconds =       0.01 minutes
	total time  =         33 seconds =       0.55 minutes
Total time:
	user time   =      77.37 seconds =       1.29 minutes
	system time =       1.85 seconds =       0.03 minutes
	total time  =         80 seconds =       1.33 minutes

  //>>>>>>>>>>>>>>>>>>>>>>>>>>>>>>>>>>>//
  //            Monomer B HF           //
  //<<<<<<<<<<<<<<<<<<<<<<<<<<<<<<<<<<<//


*** tstart() called on r282
*** at Fri Sep 10 16:42:37 2021

   => Loading Basis Set <=

    Name: JUN-CC-PVTZ
    Role: ORBITAL
    Keyword: BASIS
    atoms 1-2, 9, 12, 16, 19                   entry C          line   217 file /home/r08543048/miniconda3/share/psi4/basis/jun-cc-pvtz.gbs 
    atoms 3-4, 6-8, 10-11, 13-15, 17-18, 20-21 entry H          line    36 file /home/r08543048/miniconda3/share/psi4/basis/jun-cc-pvtz.gbs 
    atoms 5                                    entry O          line   305 file /home/r08543048/miniconda3/share/psi4/basis/jun-cc-pvtz.gbs 


         ---------------------------------------------------------
                                   SCF
               by Justin Turney, Rob Parrish, Andy Simmonett
                          and Daniel G. A. Smith
                              RHF Reference
                        1 Threads,  20980 MiB Core
         ---------------------------------------------------------

  ==> Geometry <==

    Molecular point group: c1
    Full point group: C1

    Geometry (in Angstrom), charge = 0, multiplicity = 1:

       Center              X                  Y                   Z               Mass       
    ------------   -----------------  -----------------  -----------------  -----------------
      Gh(C)           1.290361070665    -0.483038716810     0.939015240563    12.000000000000
      Gh(C)           0.776092070665    -1.547747716810    -0.018569759437    12.000000000000
      Gh(H)           0.439508070665    -0.013357716810     1.444619240563     1.007825032230
      Gh(H)           1.860525070665    -1.003212716810     1.714665240563     1.007825032230
      Gh(O)          -0.117697929335    -1.057380716810    -1.014058759437    15.994914619570
      Gh(H)           1.612192070665    -1.983179716810    -0.567609759437     1.007825032230
      Gh(H)           0.301757070665    -2.353107716810     0.552542240563     1.007825032230
      Gh(H)          -0.877088929335    -0.671570716810    -0.557872759437     1.007825032230
      Gh(C)           2.172076070665     0.592017283190     0.304275240563    12.000000000000
      Gh(H)           2.712247070665     1.110269283190     1.099941240563     1.007825032230
      Gh(H)           2.930795070665     0.105090283190    -0.314923759437     1.007825032230
      Gh(C)           1.413131070665     1.622335283190    -0.527234759437    12.000000000000
      Gh(H)           0.646264070665     2.109055283190     0.078936240563     1.007825032230
      Gh(H)           2.087016070665     2.397493283190    -0.892700759437     1.007825032230
      Gh(H)           0.923266070665     1.156565283190    -1.378597759437     1.007825032230
         C           -2.448705929335     1.057050283190     0.266619240563    12.000000000000
         H           -2.215088929335     1.622837283190    -0.624875759437     1.007825032230
         H           -2.082454929335     1.441689283190     1.208640240563     1.007825032230
         C           -3.164159929335    -0.069246716810     0.208544240563    12.000000000000
         H           -3.398577929335    -0.632560716810     1.101174240563     1.007825032230
         H           -3.534326929335    -0.451909716810    -0.732625759437     1.007825032230

  Running in c1 symmetry.

  Rotational constants: A =      0.09664  B =      0.04122  C =      0.03436 [cm^-1]
  Rotational constants: A =   2897.10266  B =   1235.72363  C =   1030.01797 [MHz]
  Nuclear repulsion =   33.372877034930923

  Charge       = 0
  Multiplicity = 1
  Electrons    = 16
  Nalpha       = 8
  Nbeta        = 8

  ==> Algorithm <==

  SCF Algorithm Type is DF.
  DIIS enabled.
  MOM disabled.
  Fractional occupation disabled.
  Guess Type is SAD.
  Energy threshold   = 1.00e-08
  Density threshold  = 1.00e-08
  Integral threshold = 0.00e+00

  ==> Primary Basis <==

  Basis Set: JUN-CC-PVTZ
    Blend: JUN-CC-PVTZ
    Number of shells: 175
    Number of basis function: 469
    Number of Cartesian functions: 525
    Spherical Harmonics?: true
    Max angular momentum: 3

   => Loading Basis Set <=

    Name: (JUN-CC-PVTZ AUX)
    Role: JKFIT
    Keyword: DF_BASIS_SCF
    atoms 1-2, 9, 12, 16, 19                   entry C          line   152 file /home/r08543048/miniconda3/share/psi4/basis/jun-cc-pvtz-jkfit.gbs 
    atoms 3-4, 6-8, 10-11, 13-15, 17-18, 20-21 entry H          line    70 file /home/r08543048/miniconda3/share/psi4/basis/jun-cc-pvtz-jkfit.gbs 
    atoms 5                                    entry O          line   272 file /home/r08543048/miniconda3/share/psi4/basis/jun-cc-pvtz-jkfit.gbs 

  ==> Pre-Iterations <==

   -------------------------------------------------------
    Irrep   Nso     Nmo     Nalpha   Nbeta   Ndocc  Nsocc
   -------------------------------------------------------
     A        469     469       0       0       0       0
   -------------------------------------------------------
    Total     469     469       8       8       8       0
   -------------------------------------------------------

  ==> Integral Setup <==

  ==> DiskDFJK: Density-Fitted J/K Matrices <==

    J tasked:                  Yes
    K tasked:                  Yes
    wK tasked:                  No
    OpenMP threads:              1
    Integrals threads:           1
    Memory [MiB]:            15735
    Algorithm:                Core
    Integral Cache:           LOAD
    Schwarz Cutoff:          1E-12
    Fitting Condition:       1E-10

   => Auxiliary Basis Set <=

  Basis Set: (JUN-CC-PVTZ AUX)
    Blend: JUN-CC-PVTZ-JKFIT
    Number of shells: 343
    Number of basis function: 1085
    Number of Cartesian functions: 1302
    Spherical Harmonics?: true
    Max angular momentum: 4

  Minimum eigenvalue in the overlap matrix is 4.2490859560E-05.
  Using Symmetric Orthogonalization.

  SCF Guess: Superposition of Atomic Densities via on-the-fly atomic UHF.

  ==> Iterations <==

                           Total Energy        Delta E     RMS |[F,P]|

   @DF-RHF iter SAD:   -77.28457490170138   -7.72846e+01   0.00000e+00 
   @DF-RHF iter   1:   -77.99012425201649   -7.05549e-01   7.63846e-04 DIIS
   @DF-RHF iter   2:   -78.05307255127218   -6.29483e-02   3.10575e-04 DIIS
   @DF-RHF iter   3:   -78.06379318913228   -1.07206e-02   4.83042e-05 DIIS
   @DF-RHF iter   4:   -78.06433915370550   -5.45965e-04   4.80188e-06 DIIS
   @DF-RHF iter   5:   -78.06434523155673   -6.07785e-06   5.47382e-07 DIIS
   @DF-RHF iter   6:   -78.06434532187185   -9.03151e-08   6.80437e-08 DIIS
   @DF-RHF iter   7:   -78.06434532311228   -1.24042e-09   1.22919e-08 DIIS
   @DF-RHF iter   8:   -78.06434532316108   -4.88001e-11   3.32459e-09 DIIS
  Energy and wave function converged.


  ==> Post-Iterations <==

    Orbital Energies [Eh]
    ---------------------

    Doubly Occupied:                                                      

       1A    -11.231924     2A    -11.230233     3A     -1.033681  
       4A     -0.793617     5A     -0.644486     6A     -0.587204  
       7A     -0.508995     8A     -0.376424  

    Virtual:                                                              

       9A      0.032362    10A      0.044657    11A      0.052177  
      12A      0.058832    13A      0.063965    14A      0.079742  
      15A      0.080677    16A      0.084634    17A      0.088753  
      18A      0.096896    19A      0.107303    20A      0.112616  
      21A      0.113009    22A      0.122635    23A      0.125802  
      24A      0.133331    25A      0.138938    26A      0.142339  
      27A      0.148846    28A      0.157399    29A      0.166490  
      30A      0.169518    31A      0.178336    32A      0.183764  
      33A      0.201292    34A      0.202051    35A      0.213184  
      36A      0.228272    37A      0.235960    38A      0.248367  
      39A      0.265270    40A      0.273487    41A      0.275176  
      42A      0.292522    43A      0.301438    44A      0.308977  
      45A      0.311738    46A      0.324021    47A      0.327996  
      48A      0.337259    49A      0.339727    50A      0.340115  
      51A      0.343373    52A      0.351355    53A      0.355632  
      54A      0.358808    55A      0.370315    56A      0.377645  
      57A      0.381697    58A      0.390911    59A      0.398117  
      60A      0.402960    61A      0.411232    62A      0.422426  
      63A      0.433313    64A      0.443918    65A      0.450920  
      66A      0.453703    67A      0.460288    68A      0.469011  
      69A      0.478129    70A      0.487816    71A      0.496519  
      72A      0.499302    73A      0.509891    74A      0.522972  
      75A      0.527591    76A      0.533557    77A      0.540572  
      78A      0.549490    79A      0.567599    80A      0.578932  
      81A      0.590967    82A      0.595899    83A      0.604156  
      84A      0.618585    85A      0.626181    86A      0.630648  
      87A      0.638105    88A      0.639836    89A      0.653713  
      90A      0.655607    91A      0.668321    92A      0.669389  
      93A      0.689106    94A      0.691663    95A      0.708837  
      96A      0.727558    97A      0.738135    98A      0.753911  
      99A      0.760929   100A      0.768883   101A      0.778470  
     102A      0.786166   103A      0.804012   104A      0.808272  
     105A      0.819865   106A      0.832182   107A      0.865140  
     108A      0.872396   109A      0.875746   110A      0.914200  
     111A      0.931275   112A      0.936377   113A      0.962648  
     114A      0.982426   115A      1.006056   116A      1.013911  
     117A      1.022203   118A      1.043217   119A      1.063316  
     120A      1.078915   121A      1.085240   122A      1.102738  
     123A      1.104082   124A      1.109565   125A      1.119746  
     126A      1.135726   127A      1.141381   128A      1.149833  
     129A      1.175442   130A      1.192941   131A      1.205726  
     132A      1.215864   133A      1.218682   134A      1.235320  
     135A      1.242065   136A      1.249089   137A      1.259764  
     138A      1.268154   139A      1.280035   140A      1.282123  
     141A      1.293053   142A      1.300373   143A      1.309086  
     144A      1.313495   145A      1.326561   146A      1.329540  
     147A      1.350952   148A      1.357908   149A      1.367244  
     150A      1.384945   151A      1.396706   152A      1.414390  
     153A      1.424379   154A      1.430435   155A      1.448774  
     156A      1.464815   157A      1.467000   158A      1.480858  
     159A      1.484382   160A      1.488086   161A      1.496720  
     162A      1.515912   163A      1.529655   164A      1.549378  
     165A      1.558683   166A      1.562869   167A      1.584380  
     168A      1.589933   169A      1.604875   170A      1.610683  
     171A      1.627507   172A      1.636432   173A      1.646481  
     174A      1.660269   175A      1.672008   176A      1.673485  
     177A      1.685961   178A      1.691609   179A      1.716579  
     180A      1.738789   181A      1.747371   182A      1.759807  
     183A      1.784874   184A      1.797303   185A      1.829887  
     186A      1.830223   187A      1.854159   188A      1.875086  
     189A      1.893952   190A      1.921286   191A      1.944780  
     192A      1.962738   193A      1.978565   194A      1.993008  
     195A      2.002488   196A      2.029467   197A      2.057351  
     198A      2.070091   199A      2.076264   200A      2.106566  
     201A      2.139441   202A      2.158985   203A      2.193928  
     204A      2.199992   205A      2.266267   206A      2.287144  
     207A      2.351215   208A      2.381952   209A      2.422529  
     210A      2.444680   211A      2.484315   212A      2.505469  
     213A      2.525671   214A      2.566415   215A      2.573522  
     216A      2.584945   217A      2.599003   218A      2.653727  
     219A      2.693114   220A      2.729175   221A      2.753105  
     222A      2.758440   223A      2.801336   224A      2.830838  
     225A      2.885765   226A      2.898476   227A      2.903174  
     228A      2.923093   229A      2.971223   230A      3.011047  
     231A      3.013495   232A      3.040049   233A      3.066375  
     234A      3.088740   235A      3.115833   236A      3.146435  
     237A      3.164284   238A      3.203176   239A      3.242383  
     240A      3.266185   241A      3.294806   242A      3.315947  
     243A      3.427246   244A      3.434487   245A      3.443556  
     246A      3.463166   247A      3.469015   248A      3.477361  
     249A      3.495377   250A      3.511245   251A      3.516726  
     252A      3.524300   253A      3.547051   254A      3.568978  
     255A      3.581052   256A      3.591307   257A      3.603766  
     258A      3.620245   259A      3.639012   260A      3.648377  
     261A      3.661467   262A      3.683557   263A      3.695886  
     264A      3.709464   265A      3.736558   266A      3.747104  
     267A      3.758747   268A      3.772851   269A      3.785566  
     270A      3.802804   271A      3.835820   272A      3.852744  
     273A      3.856123   274A      3.876524   275A      3.889168  
     276A      3.891104   277A      3.903950   278A      3.938191  
     279A      3.953919   280A      3.970732   281A      3.992791  
     282A      4.010136   283A      4.019705   284A      4.032083  
     285A      4.036108   286A      4.036292   287A      4.056005  
     288A      4.078273   289A      4.084279   290A      4.090021  
     291A      4.118632   292A      4.130768   293A      4.159300  
     294A      4.190338   295A      4.206206   296A      4.214844  
     297A      4.235797   298A      4.266871   299A      4.274085  
     300A      4.289403   301A      4.310400   302A      4.316269  
     303A      4.324988   304A      4.339503   305A      4.350435  
     306A      4.382090   307A      4.391667   308A      4.409416  
     309A      4.412491   310A      4.437894   311A      4.439889  
     312A      4.445904   313A      4.482181   314A      4.499959  
     315A      4.505930   316A      4.522138   317A      4.534872  
     318A      4.544811   319A      4.552042   320A      4.571513  
     321A      4.589750   322A      4.595260   323A      4.620957  
     324A      4.631104   325A      4.643954   326A      4.649133  
     327A      4.650581   328A      4.677563   329A      4.702902  
     330A      4.714626   331A      4.735518   332A      4.741316  
     333A      4.748146   334A      4.759537   335A      4.775158  
     336A      4.777033   337A      4.789886   338A      4.799925  
     339A      4.819236   340A      4.826188   341A      4.845639  
     342A      4.853804   343A      4.858380   344A      4.875736  
     345A      4.883657   346A      4.894898   347A      4.896890  
     348A      4.910046   349A      4.916150   350A      4.933969  
     351A      4.936973   352A      4.944774   353A      4.964099  
     354A      4.977781   355A      4.982899   356A      4.989518  
     357A      5.014572   358A      5.021138   359A      5.031963  
     360A      5.042600   361A      5.053329   362A      5.075994  
     363A      5.093489   364A      5.108545   365A      5.112742  
     366A      5.117527   367A      5.133544   368A      5.140488  
     369A      5.145992   370A      5.171496   371A      5.174436  
     372A      5.218895   373A      5.224021   374A      5.253535  
     375A      5.278519   376A      5.324529   377A      5.329534  
     378A      5.353411   379A      5.373750   380A      5.401785  
     381A      5.414018   382A      5.419996   383A      5.436919  
     384A      5.451298   385A      5.458352   386A      5.524200  
     387A      5.551589   388A      5.582136   389A      5.592829  
     390A      5.631680   391A      5.645153   392A      5.661743  
     393A      5.700424   394A      5.728193   395A      5.780005  
     396A      5.819080   397A      5.838525   398A      5.868537  
     399A      5.936608   400A      5.947950   401A      5.992056  
     402A      6.057687   403A      6.065475   404A      6.097241  
     405A      6.126803   406A      6.164766   407A      6.222956  
     408A      6.240385   409A      6.256972   410A      6.309652  
     411A      6.353132   412A      6.380442   413A      6.391950  
     414A      6.432389   415A      6.438644   416A      6.467081  
     417A      6.484374   418A      6.550591   419A      6.570664  
     420A      6.656698   421A      6.748300   422A      6.806446  
     423A      6.851712   424A      6.929126   425A      6.945561  
     426A      7.008688   427A      7.152281   428A      7.302191  
     429A      7.376202   430A      7.436378   431A      7.505049  
     432A      7.560497   433A      7.594461   434A      7.652953  
     435A      7.691157   436A      7.700395   437A      7.736941  
     438A      7.758083   439A      7.820626   440A      7.849405  
     441A      7.907178   442A      7.947332   443A      8.006355  
     444A      8.105283   445A      8.238453   446A      8.326590  
     447A      8.365803   448A      8.536935   449A      8.721962  
     450A      9.548262   451A      9.578438   452A      9.616780  
     453A      9.818425   454A      9.893057   455A      9.946692  
     456A     10.044037   457A     10.151259   458A     10.376857  
     459A     11.297817   460A     11.761405   461A     12.773657  
     462A     12.934857   463A     13.643550   464A     15.554113  
     465A     43.680166   466A     44.280266   467A     45.255766  
     468A     45.757184   469A     61.601429  

    Final Occupation by Irrep:
              A 
    DOCC [     8 ]

  @DF-RHF Final Energy:   -78.06434532316108

   => Energetics <=

    Nuclear Repulsion Energy =             33.3728770349309229
    One-Electron Energy =                -170.0613140625156916
    Two-Electron Energy =                  58.6240917044236838
    Total Energy =                        -78.0643453231610920

Computation Completed


Properties will be evaluated at   0.000000,   0.000000,   0.000000 [a0]

Properties computed using the SCF density matrix

  Nuclear Dipole Moment: [e a0]
     X:   -84.8631      Y:    14.9418      Z:     7.1872

  Electronic Dipole Moment: [e a0]
     X:    84.8616      Y:   -14.9410      Z:    -7.1867

  Dipole Moment: [e a0]
     X:    -0.0016      Y:     0.0009      Z:     0.0005     Total:     0.0019

  Dipole Moment: [D]
     X:    -0.0041      Y:     0.0022      Z:     0.0012     Total:     0.0048


*** tstop() called on r282 at Fri Sep 10 16:42:58 2021
Module time:
	user time   =      21.11 seconds =       0.35 minutes
	system time =       0.39 seconds =       0.01 minutes
	total time  =         21 seconds =       0.35 minutes
Total time:
	user time   =      98.48 seconds =       1.64 minutes
	system time =       2.24 seconds =       0.04 minutes
	total time  =        101 seconds =       1.68 minutes
  Constructing Basis Sets for SAPT...

   => Loading Basis Set <=

    Name: (JUN-CC-PVTZ AUX)
    Role: RIFIT
    Keyword: DF_BASIS_SAPT
    atoms 1-2, 9, 12, 16, 19                   entry C          line   132 file /home/r08543048/miniconda3/share/psi4/basis/jun-cc-pvtz-ri.gbs 
    atoms 3-4, 6-8, 10-11, 13-15, 17-18, 20-21 entry H          line    30 file /home/r08543048/miniconda3/share/psi4/basis/jun-cc-pvtz-ri.gbs 
    atoms 5                                    entry O          line   244 file /home/r08543048/miniconda3/share/psi4/basis/jun-cc-pvtz-ri.gbs 


  //>>>>>>>>>>>>>>>>>>>>>>>>>>>>>>>>>>>//
  //               SAPT0               //
  //<<<<<<<<<<<<<<<<<<<<<<<<<<<<<<<<<<<//


*** tstart() called on r282
*** at Fri Sep 10 16:42:58 2021

        SAPT0  
    Ed Hohenstein
     6 June 2009

      Orbital Information
  --------------------------
    NSO        =       469
    NMO        =       469
    NRI        =      1099
    NOCC A     =        21
    NOCC B     =         8
    FOCC A     =         0
    FOCC B     =         0
    NVIR A     =       448
    NVIR B     =       461

    Elst10,r            =    -0.007179075359 [Eh]
    Exch10              =     0.009588074104 [Eh]
    Exch10 (S^2)        =     0.009515024675 [Eh]

    Iter     Energy [mEh]          dE [mEh]         Residual      Time [s]
       1      -0.55916065       0.559160650       3.325077051             1
       2      -0.64166184       0.082501188       1.036865651             2
       3      -0.65379122       0.012129387       0.237925260             3
       4      -0.65259322      -0.001198009       0.099882616             3
       5      -0.65188525      -0.000707962       0.025223985             4
       6      -0.65196372       0.000078468       0.008515817             5
       7      -0.65202469       0.000060968       0.001801193             6
       8      -0.65201965      -0.000005043       0.000591378             7
       9      -0.65201704      -0.000002610       0.000156481             8
      10      -0.65201738       0.000000337       0.000043041             9
      11      -0.65201755       0.000000176       0.000009097            10
      12      -0.65201752      -0.000000029       0.000002827            11
      13      -0.65201752      -0.000000005       0.000000870            11

    CHF Iterations converged


    Iter     Energy [mEh]          dE [mEh]         Residual      Time [s]
       1      -3.09972986       3.099729862       9.188331975             1
       2      -3.91938282       0.819652960       2.891140195             2
       3      -3.96823825       0.048855426       0.606569348             2
       4      -3.94948325      -0.018755003       0.158229794             3
       5      -3.94856911      -0.000914130       0.035565562             4
       6      -3.94937731       0.000808196       0.009756151             4
       7      -3.94938685       0.000009540       0.003327483             5
       8      -3.94933045      -0.000056397       0.000888325             6
       9      -3.94934051       0.000010052       0.000183767             6
      10      -3.94933962      -0.000000882       0.000043724             7
      11      -3.94933953      -0.000000090       0.000009914             8
      12      -3.94933960       0.000000071       0.000002211             8
      13      -3.94933959      -0.000000016       0.000000516             9

    CHF Iterations converged

    Ind20,r (A<-B)      =    -0.000652017517 [Eh]
    Ind20,r (B<-A)      =    -0.003949339588 [Eh]
    Ind20,r             =    -0.004601357104 [Eh]
    Exch-Ind20,r (A<-B) =     0.000513098412 [Eh]
    Exch-Ind20,r (B<-A) =     0.002823877400 [Eh]
    Exch-Ind20,r        =     0.003336975812 [Eh]
    Disp20              =    -0.006875062284 [Eh]
    Disp20 (SS)         =    -0.003437531142 [Eh]
    Disp20 (OS)         =    -0.003437531142 [Eh]
    Exch-Disp20         =     0.000953752140 [Eh]
    Exch-Disp20 (SS)    =     0.000624869224 [Eh]
    Exch-Disp20 (OS)    =     0.000328882916 [Eh]

    SAPT Results 
  --------------------------------------------------------------------------------------------------------
    Electrostatics                 -7.17907536 [mEh]      -4.50493780 [kcal/mol]     -18.84865976 [kJ/mol]
      Elst10,r                     -7.17907536 [mEh]      -4.50493780 [kcal/mol]     -18.84865976 [kJ/mol]

    Exchange                        9.58807410 [mEh]       6.01660734 [kcal/mol]      25.17348509 [kJ/mol]
      Exch10                        9.58807410 [mEh]       6.01660734 [kcal/mol]      25.17348509 [kJ/mol]
      Exch10(S^2)                   9.51502468 [mEh]       5.97076813 [kcal/mol]      24.98169384 [kJ/mol]

    Induction                      -2.40927682 [mEh]      -1.51184403 [kcal/mol]      -6.32555542 [kJ/mol]
      Ind20,r                      -4.60135710 [mEh]      -2.88739518 [kcal/mol]     -12.08086141 [kJ/mol]
      Exch-Ind20,r                  3.33697581 [mEh]       2.09398394 [kcal/mol]       8.76122879 [kJ/mol]
      delta HF,r (2)               -1.14489553 [mEh]      -0.71843279 [kcal/mol]      -3.00592280 [kJ/mol]

    Dispersion                     -5.92131014 [mEh]      -3.71567821 [kcal/mol]     -15.54639764 [kJ/mol]
      Disp20                       -6.87506228 [mEh]      -4.31416672 [kcal/mol]     -18.05047354 [kJ/mol]
      Exch-Disp20                   0.95375214 [mEh]       0.59848850 [kcal/mol]       2.50407590 [kJ/mol]
      Disp20 (SS)                  -3.43753114 [mEh]      -2.15708336 [kcal/mol]      -9.02523677 [kJ/mol]
      Disp20 (OS)                  -3.43753114 [mEh]      -2.15708336 [kcal/mol]      -9.02523677 [kJ/mol]
      Exch-Disp20 (SS)              0.62486922 [mEh]       0.39211136 [kcal/mol]       1.64059392 [kJ/mol]
      Exch-Disp20 (OS)              0.32888292 [mEh]       0.20637715 [kcal/mol]       0.86348198 [kJ/mol]

  Total HF                         -0.00027808 [mEh]      -0.00017450 [kcal/mol]      -0.00073009 [kJ/mol]
  Total SAPT0                      -5.92158822 [mEh]      -3.71585271 [kcal/mol]     -15.54712773 [kJ/mol]

  Special recipe for scaled SAPT0 (see Manual):
    Electrostatics sSAPT0          -7.17907536 [mEh]      -4.50493780 [kcal/mol]     -18.84865976 [kJ/mol]
    Exchange sSAPT0                 9.58807410 [mEh]       6.01660734 [kcal/mol]      25.17348509 [kJ/mol]
    Induction sSAPT0               -2.33182865 [mEh]      -1.46324457 [kcal/mol]      -6.12221529 [kJ/mol]
    Dispersion sSAPT0              -5.89917443 [mEh]      -3.70178784 [kcal/mol]     -15.48828032 [kJ/mol]
  Total sSAPT0                     -5.82200433 [mEh]      -3.65336288 [kcal/mol]     -15.28567027 [kJ/mol]
  --------------------------------------------------------------------------------------------------------

*** tstop() called on r282 at Fri Sep 10 16:44:28 2021
Module time:
	user time   =      76.07 seconds =       1.27 minutes
	system time =      12.91 seconds =       0.22 minutes
	total time  =         90 seconds =       1.50 minutes
Total time:
	user time   =     174.69 seconds =       2.91 minutes
	system time =      15.15 seconds =       0.25 minutes
	total time  =        191 seconds =       3.18 minutes

    Psi4 stopped on: Friday, 10 September 2021 04:44PM
    Psi4 wall time for execution: 0:03:11.20

*** Psi4 exiting successfully. Buy a developer a beer!
