
    -----------------------------------------------------------------------
          Psi4: An Open-Source Ab Initio Electronic Structure Package
                               Psi4 1.3.2 release

                         Git: Rev {HEAD} ecbda83 


    R. M. Parrish, L. A. Burns, D. G. A. Smith, A. C. Simmonett,
    A. E. DePrince III, E. G. Hohenstein, U. Bozkaya, A. Yu. Sokolov,
    R. Di Remigio, R. M. Richard, J. F. Gonthier, A. M. James,
    H. R. McAlexander, A. Kumar, M. Saitow, X. Wang, B. P. Pritchard,
    P. Verma, H. F. Schaefer III, K. Patkowski, R. A. King, E. F. Valeev,
    F. A. Evangelista, J. M. Turney, T. D. Crawford, and C. D. Sherrill,
    J. Chem. Theory Comput. 13(7) pp 3185--3197 (2017).
    (doi: 10.1021/acs.jctc.7b00174)


                         Additional Contributions by
    P. Kraus, H. Kruse, M. H. Lechner, M. C. Schieber, R. A. Shaw,
    A. Alenaizan, R. Galvelis, Z. L. Glick, S. Lehtola, and J. P. Misiewicz

    -----------------------------------------------------------------------


    Psi4 started on: Friday, 10 September 2021 04:53PM

    Process ID: 56877
    Host:       r282
    PSIDATADIR: /home/r08543048/miniconda3/share/psi4
    Memory:     500.0 MiB
    Threads:    1
    
  ==> Input File <==

--------------------------------------------------------------------------
# Any line starting with the # character is a comment line
#! Sample  computation

memory 22 gb

molecule Dimer {
0 1
 C  -2.254932   -0.839252    0.798424
 C  -2.871448    0.315641    0.024386
 H  -1.340450   -0.487632    1.284972
 H  -2.943333   -1.125738    1.598052
 O  -2.020360    0.800002   -1.009853
 H  -3.781468   -0.017345   -0.476614
 H  -3.145019    1.125475    0.708054
 H  -1.257177    1.215395   -0.585184
 C  -1.951546   -2.036120   -0.092963
 H  -1.468313   -2.837417    0.465513
 H  -2.871049   -2.434351   -0.524226
 H  -1.299743   -1.745099   -0.915261
 
 
 

    
    
 --
0 1
 C   0.665397    2.527061    0.000187
 C   0.942427    1.349840    0.574307
 C   1.460459    0.149290   -0.148849
 C   2.857069   -0.250558    0.330951
 C   3.361394   -1.503344   -0.373617
 H   0.790799    2.669357   -1.066469
 H   0.315751    3.369434    0.580930
 H   0.812823    1.250836    1.649127
 H   0.782650   -0.695946    0.007934
 H   1.480031    0.346555   -1.223847
 H   3.543170    0.581483    0.158419
 H   2.831180   -0.416049    1.411032
 H   2.693532   -2.345583   -0.189131
 H   3.409581   -1.347331   -1.451797
 H   4.356986   -1.781413   -0.029639




units angstrom

no_reorient
symmetry c1
}

set globals{
  basis jun-cc-pvtz
}

energy('sapt0')


--------------------------------------------------------------------------

  Memory set to  20.489 GiB by Python driver.

  //>>>>>>>>>>>>>>>>>>>>>>>>>>>>>>>>>>>//
  //              Dimer HF             //
  //<<<<<<<<<<<<<<<<<<<<<<<<<<<<<<<<<<<//


*** tstart() called on r282
*** at Fri Sep 10 16:53:21 2021

   => Loading Basis Set <=

    Name: JUN-CC-PVTZ
    Role: ORBITAL
    Keyword: BASIS
    atoms 1-2, 9, 13-17          entry C          line   217 file /home/r08543048/miniconda3/share/psi4/basis/jun-cc-pvtz.gbs 
    atoms 3-4, 6-8, 10-12, 18-27 entry H          line    36 file /home/r08543048/miniconda3/share/psi4/basis/jun-cc-pvtz.gbs 
    atoms 5                      entry O          line   305 file /home/r08543048/miniconda3/share/psi4/basis/jun-cc-pvtz.gbs 


         ---------------------------------------------------------
                                   SCF
               by Justin Turney, Rob Parrish, Andy Simmonett
                          and Daniel G. A. Smith
                              RHF Reference
                        1 Threads,  20980 MiB Core
         ---------------------------------------------------------

  ==> Geometry <==

    Molecular point group: c1
    Full point group: C1

    Geometry (in Angstrom), charge = 0, multiplicity = 1:

       Center              X                  Y                   Z               Mass       
    ------------   -----------------  -----------------  -----------------  -----------------
         C           -2.232824901033    -0.874866389059     0.809072616638    12.000000000000
         C           -2.849340901033     0.280026610941     0.035034616638    12.000000000000
         H           -1.318342901033    -0.523246389059     1.295620616638     1.007825032230
         H           -2.921225901033    -1.161352389059     1.608700616638     1.007825032230
         O           -1.998252901033     0.764387610941    -0.999204383362    15.994914619570
         H           -3.759360901033    -0.052959389059    -0.465965383362     1.007825032230
         H           -3.122911901033     1.089860610941     0.718702616638     1.007825032230
         H           -1.235069901033     1.179780610941    -0.574535383362     1.007825032230
         C           -1.929438901033    -2.071734389059    -0.082314383362    12.000000000000
         H           -1.446205901033    -2.873031389059     0.476161616638     1.007825032230
         H           -2.848941901033    -2.469965389059    -0.513577383362     1.007825032230
         H           -1.277635901033    -1.780713389059    -0.904612383362     1.007825032230
         C            0.687504098967     2.491446610941     0.010835616638    12.000000000000
         C            0.964534098967     1.314225610941     0.584955616638    12.000000000000
         C            1.482566098967     0.113675610941    -0.138200383362    12.000000000000
         C            2.879176098967    -0.286172389059     0.341599616638    12.000000000000
         C            3.383501098967    -1.538958389059    -0.362968383362    12.000000000000
         H            0.812906098967     2.633742610941    -1.055820383362     1.007825032230
         H            0.337858098967     3.333819610941     0.591578616638     1.007825032230
         H            0.834930098967     1.215221610941     1.659775616638     1.007825032230
         H            0.804757098967    -0.731560389059     0.018582616638     1.007825032230
         H            1.502138098967     0.310940610941    -1.213198383362     1.007825032230
         H            3.565277098967     0.545868610941     0.169067616638     1.007825032230
         H            2.853287098967    -0.451663389059     1.421680616638     1.007825032230
         H            2.715639098967    -2.381197389059    -0.178482383362     1.007825032230
         H            3.431688098967    -1.382945389059    -1.441148383362     1.007825032230
         H            4.379093098967    -1.817027389059    -0.018990383362     1.007825032230

  Running in c1 symmetry.

  Rotational constants: A =      0.05672  B =      0.02389  C =      0.01858 [cm^-1]
  Rotational constants: A =   1700.28038  B =    716.18987  C =    556.99792 [MHz]
  Nuclear repulsion =  460.418657427920209

  Charge       = 0
  Multiplicity = 1
  Electrons    = 74
  Nalpha       = 37
  Nbeta        = 37

  ==> Algorithm <==

  SCF Algorithm Type is DF.
  DIIS enabled.
  MOM disabled.
  Fractional occupation disabled.
  Guess Type is SAD.
  Energy threshold   = 1.00e-08
  Density threshold  = 1.00e-08
  Integral threshold = 0.00e+00

  ==> Primary Basis <==

  Basis Set: JUN-CC-PVTZ
    Blend: JUN-CC-PVTZ
    Number of shells: 225
    Number of basis function: 603
    Number of Cartesian functions: 675
    Spherical Harmonics?: true
    Max angular momentum: 3

   => Loading Basis Set <=

    Name: (JUN-CC-PVTZ AUX)
    Role: JKFIT
    Keyword: DF_BASIS_SCF
    atoms 1-2, 9, 13-17          entry C          line   152 file /home/r08543048/miniconda3/share/psi4/basis/jun-cc-pvtz-jkfit.gbs 
    atoms 3-4, 6-8, 10-12, 18-27 entry H          line    70 file /home/r08543048/miniconda3/share/psi4/basis/jun-cc-pvtz-jkfit.gbs 
    atoms 5                      entry O          line   272 file /home/r08543048/miniconda3/share/psi4/basis/jun-cc-pvtz-jkfit.gbs 

  ==> Pre-Iterations <==

   -------------------------------------------------------
    Irrep   Nso     Nmo     Nalpha   Nbeta   Ndocc  Nsocc
   -------------------------------------------------------
     A        603     603       0       0       0       0
   -------------------------------------------------------
    Total     603     603      37      37      37       0
   -------------------------------------------------------

  ==> Integral Setup <==

  ==> DiskDFJK: Density-Fitted J/K Matrices <==

    J tasked:                  Yes
    K tasked:                  Yes
    wK tasked:                  No
    OpenMP threads:              1
    Integrals threads:           1
    Memory [MiB]:            15735
    Algorithm:                Core
    Integral Cache:           SAVE
    Schwarz Cutoff:          1E-12
    Fitting Condition:       1E-10

   => Auxiliary Basis Set <=

  Basis Set: (JUN-CC-PVTZ AUX)
    Blend: JUN-CC-PVTZ-JKFIT
    Number of shells: 441
    Number of basis function: 1395
    Number of Cartesian functions: 1674
    Spherical Harmonics?: true
    Max angular momentum: 4

  Minimum eigenvalue in the overlap matrix is 2.5003694811E-05.
  Using Symmetric Orthogonalization.

  SCF Guess: Superposition of Atomic Densities via on-the-fly atomic UHF.

  ==> Iterations <==

                           Total Energy        Delta E     RMS |[F,P]|

   @DF-RHF iter SAD:  -387.12843811253174   -3.87128e+02   0.00000e+00 
   @DF-RHF iter   1:  -388.02053589181389   -8.92098e-01   1.33380e-03 DIIS
   @DF-RHF iter   2:  -388.33074711843221   -3.10211e-01   6.37664e-04 DIIS
   @DF-RHF iter   3:  -388.39823417832793   -6.74871e-02   1.22900e-04 DIIS
   @DF-RHF iter   4:  -388.40271426349557   -4.48009e-03   4.44283e-05 DIIS
   @DF-RHF iter   5:  -388.40311066188144   -3.96398e-04   9.12177e-06 DIIS
   @DF-RHF iter   6:  -388.40313525879867   -2.45969e-05   2.21375e-06 DIIS
   @DF-RHF iter   7:  -388.40313689169614   -1.63290e-06   6.11590e-07 DIIS
   @DF-RHF iter   8:  -388.40313702450999   -1.32814e-07   1.88673e-07 DIIS
   @DF-RHF iter   9:  -388.40313703928939   -1.47794e-08   6.00834e-08 DIIS
   @DF-RHF iter  10:  -388.40313704098793   -1.69854e-09   2.94435e-08 DIIS
   @DF-RHF iter  11:  -388.40313704128988   -3.01952e-10   6.55108e-09 DIIS
  Energy and wave function converged.


  ==> Post-Iterations <==

    Orbital Energies [Eh]
    ---------------------

    Doubly Occupied:                                                      

       1A    -20.539060     2A    -11.263263     3A    -11.244107  
       4A    -11.229529     5A    -11.228001     6A    -11.224726  
       7A    -11.216658     8A    -11.214572     9A    -11.206094  
      10A     -1.342460    11A     -1.098754    12A     -1.045794  
      13A     -1.030834    14A     -0.930077    15A     -0.913503  
      16A     -0.818148    17A     -0.804339    18A     -0.767397  
      19A     -0.668807    20A     -0.660841    21A     -0.631295  
      22A     -0.624599    23A     -0.616443    24A     -0.597804  
      25A     -0.573437    26A     -0.558469    27A     -0.543266  
      28A     -0.524771    29A     -0.517785    30A     -0.515156  
      31A     -0.489479    32A     -0.480413    33A     -0.479774  
      34A     -0.476258    35A     -0.463433    36A     -0.426560  
      37A     -0.369764  

    Virtual:                                                              

      38A      0.046560    39A      0.049020    40A      0.054702  
      41A      0.056486    42A      0.065641    43A      0.070978  
      44A      0.073727    45A      0.080821    46A      0.083291  
      47A      0.097440    48A      0.099978    49A      0.107065  
      50A      0.109927    51A      0.112884    52A      0.113242  
      53A      0.122112    54A      0.131427    55A      0.136886  
      56A      0.140084    57A      0.151963    58A      0.154627  
      59A      0.157617    60A      0.160489    61A      0.167222  
      62A      0.175001    63A      0.188752    64A      0.189868  
      65A      0.194032    66A      0.199152    67A      0.205226  
      68A      0.211539    69A      0.224872    70A      0.236166  
      71A      0.243684    72A      0.256223    73A      0.258986  
      74A      0.269134    75A      0.270278    76A      0.277916  
      77A      0.284876    78A      0.288517    79A      0.295324  
      80A      0.297602    81A      0.304024    82A      0.307959  
      83A      0.310768    84A      0.315916    85A      0.324108  
      86A      0.328036    87A      0.333246    88A      0.336158  
      89A      0.339904    90A      0.343207    91A      0.345827  
      92A      0.350669    93A      0.359238    94A      0.361638  
      95A      0.364407    96A      0.368925    97A      0.376033  
      98A      0.377607    99A      0.380857   100A      0.391604  
     101A      0.396620   102A      0.400002   103A      0.412613  
     104A      0.413978   105A      0.420412   106A      0.424062  
     107A      0.434229   108A      0.440695   109A      0.444549  
     110A      0.455830   111A      0.457654   112A      0.460479  
     113A      0.470020   114A      0.479836   115A      0.484273  
     116A      0.494620   117A      0.499955   118A      0.517624  
     119A      0.519513   120A      0.526357   121A      0.527570  
     122A      0.530441   123A      0.542021   124A      0.543266  
     125A      0.545563   126A      0.551918   127A      0.556927  
     128A      0.563598   129A      0.564965   130A      0.578696  
     131A      0.584732   132A      0.594354   133A      0.602216  
     134A      0.609927   135A      0.614430   136A      0.620979  
     137A      0.637647   138A      0.649382   139A      0.664737  
     140A      0.668186   141A      0.669143   142A      0.680110  
     143A      0.692358   144A      0.697697   145A      0.699816  
     146A      0.722695   147A      0.726933   148A      0.739645  
     149A      0.749097   150A      0.756480   151A      0.758841  
     152A      0.762823   153A      0.780038   154A      0.788806  
     155A      0.793382   156A      0.799306   157A      0.803134  
     158A      0.806675   159A      0.808900   160A      0.815471  
     161A      0.820316   162A      0.830518   163A      0.840123  
     164A      0.841681   165A      0.851063   166A      0.853930  
     167A      0.861274   168A      0.865798   169A      0.871418  
     170A      0.882651   171A      0.885845   172A      0.894212  
     173A      0.905701   174A      0.918238   175A      0.922550  
     176A      0.934671   177A      0.942542   178A      0.956262  
     179A      0.965739   180A      0.969356   181A      0.971615  
     182A      0.989365   183A      0.999463   184A      1.010746  
     185A      1.020399   186A      1.030009   187A      1.037797  
     188A      1.049904   189A      1.053681   190A      1.067568  
     191A      1.077626   192A      1.092559   193A      1.098233  
     194A      1.108261   195A      1.110647   196A      1.134373  
     197A      1.149251   198A      1.160026   199A      1.166476  
     200A      1.178436   201A      1.195364   202A      1.202381  
     203A      1.209216   204A      1.228398   205A      1.234310  
     206A      1.244461   207A      1.251982   208A      1.261268  
     209A      1.270646   210A      1.284803   211A      1.300625  
     212A      1.312425   213A      1.316462   214A      1.332355  
     215A      1.335657   216A      1.345394   217A      1.352649  
     218A      1.355355   219A      1.368990   220A      1.381982  
     221A      1.384328   222A      1.394435   223A      1.399233  
     224A      1.404478   225A      1.407095   226A      1.413686  
     227A      1.422852   228A      1.431763   229A      1.440510  
     230A      1.448197   231A      1.462465   232A      1.474786  
     233A      1.492641   234A      1.495522   235A      1.500830  
     236A      1.513824   237A      1.519554   238A      1.525778  
     239A      1.539668   240A      1.550837   241A      1.553436  
     242A      1.559003   243A      1.570580   244A      1.584855  
     245A      1.594274   246A      1.601590   247A      1.608496  
     248A      1.613668   249A      1.620957   250A      1.630392  
     251A      1.639105   252A      1.641306   253A      1.650652  
     254A      1.666155   255A      1.673818   256A      1.687088  
     257A      1.689997   258A      1.709933   259A      1.712874  
     260A      1.717356   261A      1.723075   262A      1.745881  
     263A      1.753515   264A      1.766497   265A      1.776540  
     266A      1.784185   267A      1.796107   268A      1.806657  
     269A      1.819130   270A      1.833412   271A      1.848960  
     272A      1.856771   273A      1.876143   274A      1.881466  
     275A      1.898434   276A      1.915196   277A      1.926504  
     278A      1.929348   279A      1.941581   280A      1.950966  
     281A      1.970621   282A      1.978767   283A      1.990714  
     284A      2.020558   285A      2.030685   286A      2.038531  
     287A      2.072846   288A      2.105396   289A      2.139833  
     290A      2.178838   291A      2.275612   292A      2.277592  
     293A      2.417578   294A      2.459159   295A      2.482785  
     296A      2.541913   297A      2.633872   298A      2.753669  
     299A      2.763759   300A      2.786809   301A      2.796847  
     302A      2.807617   303A      2.809495   304A      2.831686  
     305A      2.837884   306A      2.847429   307A      2.851714  
     308A      2.856157   309A      2.862606   310A      2.876807  
     311A      2.887008   312A      2.906292   313A      2.911832  
     314A      2.912721   315A      2.938977   316A      2.940976  
     317A      2.970408   318A      2.974251   319A      2.983369  
     320A      2.999873   321A      3.006894   322A      3.018611  
     323A      3.042170   324A      3.054787   325A      3.077966  
     326A      3.088315   327A      3.100057   328A      3.112719  
     329A      3.123213   330A      3.128808   331A      3.132468  
     332A      3.140757   333A      3.151729   334A      3.162004  
     335A      3.164747   336A      3.188004   337A      3.190455  
     338A      3.203970   339A      3.208565   340A      3.217095  
     341A      3.226209   342A      3.238213   343A      3.250401  
     344A      3.256839   345A      3.274976   346A      3.287694  
     347A      3.301772   348A      3.306192   349A      3.312195  
     350A      3.322035   351A      3.330153   352A      3.336509  
     353A      3.347058   354A      3.359023   355A      3.371157  
     356A      3.379204   357A      3.395605   358A      3.402534  
     359A      3.404405   360A      3.418319   361A      3.420044  
     362A      3.431106   363A      3.438863   364A      3.447172  
     365A      3.453750   366A      3.459366   367A      3.475191  
     368A      3.479500   369A      3.484987   370A      3.492916  
     371A      3.496311   372A      3.507277   373A      3.512319  
     374A      3.519824   375A      3.527995   376A      3.530405  
     377A      3.535683   378A      3.543411   379A      3.551849  
     380A      3.566816   381A      3.574498   382A      3.587138  
     383A      3.590900   384A      3.602420   385A      3.608647  
     386A      3.617031   387A      3.623456   388A      3.635388  
     389A      3.649208   390A      3.657821   391A      3.662277  
     392A      3.666845   393A      3.686956   394A      3.712833  
     395A      3.723272   396A      3.733448   397A      3.743605  
     398A      3.752987   399A      3.762692   400A      3.771282  
     401A      3.774083   402A      3.799201   403A      3.811043  
     404A      3.816527   405A      3.822715   406A      3.833372  
     407A      3.837973   408A      3.852481   409A      3.858984  
     410A      3.872157   411A      3.891412   412A      3.906358  
     413A      3.912168   414A      3.924638   415A      3.935561  
     416A      3.946216   417A      3.959452   418A      3.968703  
     419A      3.972840   420A      3.987870   421A      3.992888  
     422A      4.001006   423A      4.015584   424A      4.040952  
     425A      4.049945   426A      4.068382   427A      4.077987  
     428A      4.105436   429A      4.110627   430A      4.126552  
     431A      4.127726   432A      4.155479   433A      4.165488  
     434A      4.175158   435A      4.189189   436A      4.197563  
     437A      4.217716   438A      4.227290   439A      4.241687  
     440A      4.255516   441A      4.270061   442A      4.276028  
     443A      4.281704   444A      4.285818   445A      4.302480  
     446A      4.312011   447A      4.323825   448A      4.334201  
     449A      4.341630   450A      4.352407   451A      4.355827  
     452A      4.365959   453A      4.372576   454A      4.389826  
     455A      4.391214   456A      4.395919   457A      4.410443  
     458A      4.424152   459A      4.427013   460A      4.437268  
     461A      4.438907   462A      4.444519   463A      4.452571  
     464A      4.463382   465A      4.480320   466A      4.489975  
     467A      4.495632   468A      4.504058   469A      4.505222  
     470A      4.514270   471A      4.518499   472A      4.529876  
     473A      4.542368   474A      4.562783   475A      4.570186  
     476A      4.577339   477A      4.583171   478A      4.603581  
     479A      4.614556   480A      4.622738   481A      4.625666  
     482A      4.640737   483A      4.661734   484A      4.668440  
     485A      4.676343   486A      4.693422   487A      4.712312  
     488A      4.713397   489A      4.728059   490A      4.742743  
     491A      4.760867   492A      4.772927   493A      4.786696  
     494A      4.798049   495A      4.817740   496A      4.832999  
     497A      4.839136   498A      4.871073   499A      4.879091  
     500A      4.885483   501A      4.903268   502A      4.932593  
     503A      4.955335   504A      4.970779   505A      4.984272  
     506A      5.013791   507A      5.024927   508A      5.038419  
     509A      5.055148   510A      5.081778   511A      5.090479  
     512A      5.120487   513A      5.141545   514A      5.161839  
     515A      5.166711   516A      5.176123   517A      5.198235  
     518A      5.199659   519A      5.227821   520A      5.232167  
     521A      5.254002   522A      5.264028   523A      5.274902  
     524A      5.288067   525A      5.290439   526A      5.293619  
     527A      5.322227   528A      5.344687   529A      5.351325  
     530A      5.364464   531A      5.392323   532A      5.407606  
     533A      5.415219   534A      5.427739   535A      5.438226  
     536A      5.452874   537A      5.472365   538A      5.489638  
     539A      5.500719   540A      5.521540   541A      5.538499  
     542A      5.562696   543A      5.603256   544A      5.606836  
     545A      5.615444   546A      5.646366   547A      5.657297  
     548A      5.666861   549A      5.713224   550A      5.756785  
     551A      5.758196   552A      5.768113   553A      5.776801  
     554A      5.790635   555A      5.796149   556A      5.831588  
     557A      5.838084   558A      5.842499   559A      5.871690  
     560A      5.909564   561A      5.918840   562A      5.931808  
     563A      5.936046   564A      5.944181   565A      5.967555  
     566A      5.982212   567A      5.993173   568A      6.039473  
     569A      6.112721   570A      6.124606   571A      6.136109  
     572A      6.263370   573A      6.314762   574A      6.413673  
     575A      6.458237   576A      6.480840   577A      6.491854  
     578A      6.507463   579A      6.518809   580A      6.547315  
     581A      6.558785   582A      6.579135   583A      6.608895  
     584A      6.642188   585A      6.713558   586A      6.959672  
     587A      7.084113   588A      7.251570   589A      7.360787  
     590A      7.424068   591A      7.551334   592A      7.690895  
     593A      7.902033   594A      8.183408   595A     12.644532  
     596A     13.738627   597A     13.884511   598A     13.981777  
     599A     14.168912   600A     14.523226   601A     14.569444  
     602A     14.674076   603A     15.378690  

    Final Occupation by Irrep:
              A 
    DOCC [    37 ]

  @DF-RHF Final Energy:  -388.40313704128988

   => Energetics <=

    Nuclear Repulsion Energy =            460.4186574279202091
    One-Electron Energy =               -1438.9722455926535076
    Two-Electron Energy =                 590.1504511234434176
    Total Energy =                       -388.4031370412899378

Computation Completed


Properties will be evaluated at   0.000000,   0.000000,   0.000000 [a0]

Properties computed using the SCF density matrix

  Nuclear Dipole Moment: [e a0]
     X:     3.0914      Y:    -4.9803      Z:     1.4891

  Electronic Dipole Moment: [e a0]
     X:    -2.6937      Y:     4.8936      Z:    -0.7873

  Dipole Moment: [e a0]
     X:     0.3978      Y:    -0.0867      Z:     0.7018     Total:     0.8113

  Dipole Moment: [D]
     X:     1.0110      Y:    -0.2204      Z:     1.7838     Total:     2.0622


*** tstop() called on r282 at Fri Sep 10 16:55:28 2021
Module time:
	user time   =     124.99 seconds =       2.08 minutes
	system time =       2.30 seconds =       0.04 minutes
	total time  =        127 seconds =       2.12 minutes
Total time:
	user time   =     124.99 seconds =       2.08 minutes
	system time =       2.30 seconds =       0.04 minutes
	total time  =        127 seconds =       2.12 minutes

  //>>>>>>>>>>>>>>>>>>>>>>>>>>>>>>>>>>>//
  //            Monomer A HF           //
  //<<<<<<<<<<<<<<<<<<<<<<<<<<<<<<<<<<<//


*** tstart() called on r282
*** at Fri Sep 10 16:55:28 2021

   => Loading Basis Set <=

    Name: JUN-CC-PVTZ
    Role: ORBITAL
    Keyword: BASIS
    atoms 1-2, 9, 13-17          entry C          line   217 file /home/r08543048/miniconda3/share/psi4/basis/jun-cc-pvtz.gbs 
    atoms 3-4, 6-8, 10-12, 18-27 entry H          line    36 file /home/r08543048/miniconda3/share/psi4/basis/jun-cc-pvtz.gbs 
    atoms 5                      entry O          line   305 file /home/r08543048/miniconda3/share/psi4/basis/jun-cc-pvtz.gbs 


         ---------------------------------------------------------
                                   SCF
               by Justin Turney, Rob Parrish, Andy Simmonett
                          and Daniel G. A. Smith
                              RHF Reference
                        1 Threads,  20980 MiB Core
         ---------------------------------------------------------

  ==> Geometry <==

    Molecular point group: c1
    Full point group: C1

    Geometry (in Angstrom), charge = 0, multiplicity = 1:

       Center              X                  Y                   Z               Mass       
    ------------   -----------------  -----------------  -----------------  -----------------
         C           -2.232824901033    -0.874866389059     0.809072616638    12.000000000000
         C           -2.849340901033     0.280026610941     0.035034616638    12.000000000000
         H           -1.318342901033    -0.523246389059     1.295620616638     1.007825032230
         H           -2.921225901033    -1.161352389059     1.608700616638     1.007825032230
         O           -1.998252901033     0.764387610941    -0.999204383362    15.994914619570
         H           -3.759360901033    -0.052959389059    -0.465965383362     1.007825032230
         H           -3.122911901033     1.089860610941     0.718702616638     1.007825032230
         H           -1.235069901033     1.179780610941    -0.574535383362     1.007825032230
         C           -1.929438901033    -2.071734389059    -0.082314383362    12.000000000000
         H           -1.446205901033    -2.873031389059     0.476161616638     1.007825032230
         H           -2.848941901033    -2.469965389059    -0.513577383362     1.007825032230
         H           -1.277635901033    -1.780713389059    -0.904612383362     1.007825032230
      Gh(C)           0.687504098967     2.491446610941     0.010835616638    12.000000000000
      Gh(C)           0.964534098967     1.314225610941     0.584955616638    12.000000000000
      Gh(C)           1.482566098967     0.113675610941    -0.138200383362    12.000000000000
      Gh(C)           2.879176098967    -0.286172389059     0.341599616638    12.000000000000
      Gh(C)           3.383501098967    -1.538958389059    -0.362968383362    12.000000000000
      Gh(H)           0.812906098967     2.633742610941    -1.055820383362     1.007825032230
      Gh(H)           0.337858098967     3.333819610941     0.591578616638     1.007825032230
      Gh(H)           0.834930098967     1.215221610941     1.659775616638     1.007825032230
      Gh(H)           0.804757098967    -0.731560389059     0.018582616638     1.007825032230
      Gh(H)           1.502138098967     0.310940610941    -1.213198383362     1.007825032230
      Gh(H)           3.565277098967     0.545868610941     0.169067616638     1.007825032230
      Gh(H)           2.853287098967    -0.451663389059     1.421680616638     1.007825032230
      Gh(H)           2.715639098967    -2.381197389059    -0.178482383362     1.007825032230
      Gh(H)           3.431688098967    -1.382945389059    -1.441148383362     1.007825032230
      Gh(H)           4.379093098967    -1.817027389059    -0.018990383362     1.007825032230

  Running in c1 symmetry.

  Rotational constants: A =      0.05672  B =      0.02389  C =      0.01858 [cm^-1]
  Rotational constants: A =   1700.28038  B =    716.18987  C =    556.99792 [MHz]
  Nuclear repulsion =  132.813996158887534

  Charge       = 0
  Multiplicity = 1
  Electrons    = 34
  Nalpha       = 17
  Nbeta        = 17

  ==> Algorithm <==

  SCF Algorithm Type is DF.
  DIIS enabled.
  MOM disabled.
  Fractional occupation disabled.
  Guess Type is SAD.
  Energy threshold   = 1.00e-08
  Density threshold  = 1.00e-08
  Integral threshold = 0.00e+00

  ==> Primary Basis <==

  Basis Set: JUN-CC-PVTZ
    Blend: JUN-CC-PVTZ
    Number of shells: 225
    Number of basis function: 603
    Number of Cartesian functions: 675
    Spherical Harmonics?: true
    Max angular momentum: 3

   => Loading Basis Set <=

    Name: (JUN-CC-PVTZ AUX)
    Role: JKFIT
    Keyword: DF_BASIS_SCF
    atoms 1-2, 9, 13-17          entry C          line   152 file /home/r08543048/miniconda3/share/psi4/basis/jun-cc-pvtz-jkfit.gbs 
    atoms 3-4, 6-8, 10-12, 18-27 entry H          line    70 file /home/r08543048/miniconda3/share/psi4/basis/jun-cc-pvtz-jkfit.gbs 
    atoms 5                      entry O          line   272 file /home/r08543048/miniconda3/share/psi4/basis/jun-cc-pvtz-jkfit.gbs 

  ==> Pre-Iterations <==

   -------------------------------------------------------
    Irrep   Nso     Nmo     Nalpha   Nbeta   Ndocc  Nsocc
   -------------------------------------------------------
     A        603     603       0       0       0       0
   -------------------------------------------------------
    Total     603     603      17      17      17       0
   -------------------------------------------------------

  ==> Integral Setup <==

  ==> DiskDFJK: Density-Fitted J/K Matrices <==

    J tasked:                  Yes
    K tasked:                  Yes
    wK tasked:                  No
    OpenMP threads:              1
    Integrals threads:           1
    Memory [MiB]:            15735
    Algorithm:                Core
    Integral Cache:           LOAD
    Schwarz Cutoff:          1E-12
    Fitting Condition:       1E-10

   => Auxiliary Basis Set <=

  Basis Set: (JUN-CC-PVTZ AUX)
    Blend: JUN-CC-PVTZ-JKFIT
    Number of shells: 441
    Number of basis function: 1395
    Number of Cartesian functions: 1674
    Spherical Harmonics?: true
    Max angular momentum: 4

  Minimum eigenvalue in the overlap matrix is 2.5003694811E-05.
  Using Symmetric Orthogonalization.

  SCF Guess: Superposition of Atomic Densities via on-the-fly atomic UHF.

  ==> Iterations <==

                           Total Energy        Delta E     RMS |[F,P]|

   @DF-RHF iter SAD:  -192.49800054977982   -1.92498e+02   0.00000e+00 
   @DF-RHF iter   1:  -193.01084687069141   -5.12846e-01   9.49218e-04 DIIS
   @DF-RHF iter   2:  -193.15173908489155   -1.40892e-01   5.04097e-04 DIIS
   @DF-RHF iter   3:  -193.18925445857727   -3.75154e-02   8.53072e-05 DIIS
   @DF-RHF iter   4:  -193.19136050286042   -2.10604e-03   3.10638e-05 DIIS
   @DF-RHF iter   5:  -193.19155871996662   -1.98217e-04   7.05390e-06 DIIS
   @DF-RHF iter   6:  -193.19157318143800   -1.44615e-05   1.46465e-06 DIIS
   @DF-RHF iter   7:  -193.19157413137094   -9.49933e-07   3.71139e-07 DIIS
   @DF-RHF iter   8:  -193.19157418673734   -5.53664e-08   1.24911e-07 DIIS
   @DF-RHF iter   9:  -193.19157419304656   -6.30922e-09   3.33383e-08 DIIS
   @DF-RHF iter  10:  -193.19157419358467   -5.38108e-10   7.33385e-09 DIIS
  Energy and wave function converged.


  ==> Post-Iterations <==

    Orbital Energies [Eh]
    ---------------------

    Doubly Occupied:                                                      

       1A    -20.555825     2A    -11.271393     3A    -11.221602  
       4A    -11.208408     5A     -1.356077     6A     -1.050543  
       7A     -0.919085     8A     -0.810361     9A     -0.677959  
      10A     -0.638115    11A     -0.623284    12A     -0.564483  
      13A     -0.529911    14A     -0.521790    15A     -0.484131  
      16A     -0.471146    17A     -0.436903  

    Virtual:                                                              

      18A      0.025837    19A      0.038677    20A      0.049449  
      21A      0.052882    22A      0.061393    23A      0.066423  
      24A      0.069897    25A      0.073359    26A      0.077870  
      27A      0.092516    28A      0.096011    29A      0.098187  
      30A      0.106767    31A      0.107020    32A      0.113223  
      33A      0.115762    34A      0.126006    35A      0.130265  
      36A      0.134462    37A      0.138433    38A      0.145203  
      39A      0.148769    40A      0.155870    41A      0.156565  
      42A      0.165460    43A      0.172005    44A      0.175401  
      45A      0.179165    46A      0.185477    47A      0.194398  
      48A      0.204556    49A      0.212441    50A      0.230089  
      51A      0.231802    52A      0.243030    53A      0.254060  
      54A      0.264266    55A      0.267213    56A      0.274383  
      57A      0.283333    58A      0.286472    59A      0.294623  
      60A      0.295692    61A      0.297004    62A      0.304733  
      63A      0.311618    64A      0.313143    65A      0.321340  
      66A      0.325383    67A      0.332040    68A      0.336773  
      69A      0.339076    70A      0.346645    71A      0.349213  
      72A      0.354996    73A      0.359597    74A      0.365593  
      75A      0.374286    76A      0.376121    77A      0.378227  
      78A      0.386202    79A      0.391709    80A      0.392418  
      81A      0.403442    82A      0.407937    83A      0.411043  
      84A      0.419118    85A      0.423276    86A      0.429989  
      87A      0.431289    88A      0.435380    89A      0.446343  
      90A      0.454402    91A      0.463671    92A      0.474804  
      93A      0.476327    94A      0.487498    95A      0.491160  
      96A      0.496410    97A      0.507496    98A      0.511668  
      99A      0.517060   100A      0.528522   101A      0.534180  
     102A      0.541045   103A      0.546218   104A      0.552653  
     105A      0.559135   106A      0.561462   107A      0.568360  
     108A      0.573100   109A      0.582751   110A      0.594531  
     111A      0.597713   112A      0.605603   113A      0.611111  
     114A      0.618617   115A      0.622700   116A      0.629439  
     117A      0.634799   118A      0.645191   119A      0.650249  
     120A      0.657339   121A      0.660916   122A      0.673082  
     123A      0.676380   124A      0.682565   125A      0.688500  
     126A      0.700803   127A      0.714668   128A      0.718798  
     129A      0.727543   130A      0.738773   131A      0.742413  
     132A      0.748491   133A      0.762977   134A      0.766578  
     135A      0.773001   136A      0.778242   137A      0.793114  
     138A      0.804291   139A      0.808906   140A      0.811173  
     141A      0.823320   142A      0.825630   143A      0.849797  
     144A      0.861029   145A      0.862545   146A      0.871469  
     147A      0.887673   148A      0.893792   149A      0.912256  
     150A      0.919601   151A      0.938805   152A      0.949942  
     153A      0.960562   154A      0.971597   155A      1.002876  
     156A      1.014558   157A      1.029817   158A      1.040392  
     159A      1.054293   160A      1.071019   161A      1.082937  
     162A      1.094443   163A      1.121287   164A      1.121745  
     165A      1.132825   166A      1.143216   167A      1.147411  
     168A      1.153544   169A      1.168494   170A      1.179459  
     171A      1.194045   172A      1.196703   173A      1.201937  
     174A      1.216022   175A      1.218326   176A      1.229356  
     177A      1.238255   178A      1.249616   179A      1.252993  
     180A      1.266609   181A      1.275095   182A      1.282491  
     183A      1.292986   184A      1.294483   185A      1.300260  
     186A      1.305518   187A      1.314151   188A      1.321599  
     189A      1.329758   190A      1.333695   191A      1.342485  
     192A      1.349712   193A      1.357966   194A      1.367495  
     195A      1.375245   196A      1.385331   197A      1.392161  
     198A      1.403952   199A      1.405859   200A      1.411168  
     201A      1.420606   202A      1.431461   203A      1.436832  
     204A      1.441800   205A      1.450921   206A      1.460263  
     207A      1.472800   208A      1.476310   209A      1.482020  
     210A      1.497128   211A      1.499350   212A      1.501800  
     213A      1.509613   214A      1.524977   215A      1.530829  
     216A      1.532236   217A      1.543973   218A      1.551201  
     219A      1.562113   220A      1.563394   221A      1.576374  
     222A      1.584430   223A      1.585510   224A      1.597909  
     225A      1.602855   226A      1.605957   227A      1.615651  
     228A      1.626235   229A      1.632389   230A      1.640981  
     231A      1.646322   232A      1.662122   233A      1.667525  
     234A      1.678375   235A      1.683269   236A      1.699571  
     237A      1.700560   238A      1.715511   239A      1.717911  
     240A      1.733048   241A      1.747946   242A      1.761730  
     243A      1.766080   244A      1.784788   245A      1.804372  
     246A      1.812241   247A      1.817084   248A      1.840092  
     249A      1.852552   250A      1.868280   251A      1.875131  
     252A      1.877834   253A      1.911891   254A      1.920597  
     255A      1.923654   256A      1.951962   257A      1.966762  
     258A      1.986076   259A      1.995958   260A      2.010765  
     261A      2.023150   262A      2.049315   263A      2.075023  
     264A      2.089219   265A      2.103788   266A      2.121323  
     267A      2.144619   268A      2.170709   269A      2.189593  
     270A      2.232343   271A      2.258162   272A      2.272984  
     273A      2.294853   274A      2.322108   275A      2.354568  
     276A      2.388194   277A      2.394611   278A      2.420862  
     279A      2.445276   280A      2.456618   281A      2.464664  
     282A      2.489859   283A      2.491334   284A      2.534103  
     285A      2.549921   286A      2.592853   287A      2.600369  
     288A      2.632494   289A      2.648617   290A      2.732787  
     291A      2.774506   292A      2.822822   293A      2.835547  
     294A      2.849118   295A      2.865513   296A      2.900763  
     297A      2.918157   298A      2.938229   299A      2.952512  
     300A      2.981585   301A      2.993442   302A      3.036866  
     303A      3.050461   304A      3.111652   305A      3.133036  
     306A      3.173188   307A      3.187022   308A      3.199983  
     309A      3.246172   310A      3.287683   311A      3.306862  
     312A      3.318023   313A      3.342956   314A      3.365677  
     315A      3.388205   316A      3.407822   317A      3.419506  
     318A      3.434921   319A      3.453269   320A      3.471278  
     321A      3.474441   322A      3.488310   323A      3.500832  
     324A      3.505807   325A      3.516558   326A      3.526170  
     327A      3.537828   328A      3.542817   329A      3.556694  
     330A      3.563804   331A      3.580050   332A      3.584277  
     333A      3.592894   334A      3.605361   335A      3.607649  
     336A      3.612809   337A      3.637530   338A      3.640944  
     339A      3.645414   340A      3.659757   341A      3.667200  
     342A      3.686375   343A      3.687055   344A      3.699674  
     345A      3.722370   346A      3.730100   347A      3.740800  
     348A      3.750101   349A      3.764300   350A      3.774918  
     351A      3.777728   352A      3.789963   353A      3.798567  
     354A      3.810094   355A      3.831559   356A      3.839378  
     357A      3.845956   358A      3.852399   359A      3.853488  
     360A      3.867810   361A      3.879264   362A      3.893054  
     363A      3.897033   364A      3.905467   365A      3.912846  
     366A      3.928986   367A      3.937615   368A      3.943196  
     369A      3.957980   370A      3.975847   371A      3.978002  
     372A      3.995510   373A      4.017723   374A      4.027536  
     375A      4.031259   376A      4.064443   377A      4.072561  
     378A      4.087649   379A      4.090584   380A      4.109413  
     381A      4.117928   382A      4.124724   383A      4.142187  
     384A      4.151495   385A      4.172895   386A      4.178116  
     387A      4.188085   388A      4.204124   389A      4.210620  
     390A      4.220365   391A      4.234188   392A      4.245579  
     393A      4.258263   394A      4.265677   395A      4.273232  
     396A      4.288154   397A      4.297587   398A      4.305554  
     399A      4.313554   400A      4.326344   401A      4.340196  
     402A      4.362885   403A      4.377452   404A      4.379590  
     405A      4.385341   406A      4.398267   407A      4.407470  
     408A      4.424615   409A      4.428227   410A      4.443076  
     411A      4.456786   412A      4.463585   413A      4.473932  
     414A      4.482607   415A      4.491001   416A      4.496787  
     417A      4.509349   418A      4.511078   419A      4.521441  
     420A      4.537718   421A      4.539997   422A      4.545958  
     423A      4.551825   424A      4.565246   425A      4.571244  
     426A      4.582973   427A      4.596993   428A      4.601388  
     429A      4.606190   430A      4.621183   431A      4.629328  
     432A      4.639509   433A      4.650169   434A      4.658682  
     435A      4.675684   436A      4.682641   437A      4.686468  
     438A      4.701968   439A      4.713704   440A      4.722342  
     441A      4.728314   442A      4.739841   443A      4.742984  
     444A      4.749738   445A      4.762074   446A      4.772048  
     447A      4.781345   448A      4.800789   449A      4.802990  
     450A      4.808421   451A      4.820950   452A      4.830157  
     453A      4.849682   454A      4.852997   455A      4.863601  
     456A      4.864479   457A      4.869391   458A      4.876889  
     459A      4.893345   460A      4.901011   461A      4.907157  
     462A      4.920512   463A      4.930557   464A      4.936151  
     465A      4.953466   466A      4.968263   467A      4.975112  
     468A      4.984109   469A      4.996780   470A      5.014639  
     471A      5.023152   472A      5.029841   473A      5.035073  
     474A      5.045684   475A      5.061517   476A      5.077348  
     477A      5.082823   478A      5.093320   479A      5.115968  
     480A      5.125889   481A      5.151753   482A      5.152648  
     483A      5.182131   484A      5.185091   485A      5.198189  
     486A      5.208838   487A      5.224157   488A      5.236587  
     489A      5.252649   490A      5.264826   491A      5.282928  
     492A      5.301068   493A      5.315623   494A      5.335377  
     495A      5.345342   496A      5.358829   497A      5.395436  
     498A      5.405125   499A      5.415641   500A      5.422877  
     501A      5.450713   502A      5.477898   503A      5.484295  
     504A      5.488099   505A      5.490395   506A      5.520792  
     507A      5.545987   508A      5.584718   509A      5.603927  
     510A      5.608265   511A      5.644616   512A      5.659473  
     513A      5.670021   514A      5.674222   515A      5.705982  
     516A      5.734961   517A      5.756364   518A      5.772969  
     519A      5.780895   520A      5.789915   521A      5.830096  
     522A      5.835613   523A      5.845058   524A      5.861972  
     525A      5.904853   526A      5.928021   527A      5.941173  
     528A      5.969192   529A      5.980458   530A      5.990612  
     531A      6.017759   532A      6.044905   533A      6.057098  
     534A      6.071524   535A      6.100848   536A      6.113688  
     537A      6.124412   538A      6.207608   539A      6.232459  
     540A      6.272536   541A      6.302568   542A      6.332294  
     543A      6.357658   544A      6.391011   545A      6.432023  
     546A      6.442760   547A      6.446937   548A      6.452815  
     549A      6.485249   550A      6.517877   551A      6.541344  
     552A      6.558162   553A      6.598437   554A      6.665880  
     555A      6.685161   556A      6.749350   557A      6.777644  
     558A      6.813860   559A      6.936262   560A      6.951578  
     561A      7.010828   562A      7.065257   563A      7.111549  
     564A      7.237607   565A      7.342535   566A      7.354362  
     567A      7.408305   568A      7.411880   569A      7.469229  
     570A      7.527579   571A      7.538435   572A      7.568364  
     573A      7.641694   574A      7.682246   575A      7.682628  
     576A      7.710629   577A      7.733264   578A      7.816570  
     579A      7.878973   580A      7.889277   581A      7.906878  
     582A      7.976393   583A      8.052209   584A      8.143022  
     585A      8.176198   586A      8.327655   587A      8.363159  
     588A      8.683392   589A      8.877582   590A      9.468440  
     591A      9.643180   592A      9.828352   593A      9.882682  
     594A     10.217829   595A     13.736790   596A     13.950876  
     597A     14.173664   598A     14.642891   599A     41.819333  
     600A     44.283889   601A     45.529588   602A     46.054191  
     603A     47.264242  

    Final Occupation by Irrep:
              A 
    DOCC [    17 ]

  @DF-RHF Final Energy:  -193.19157419358467

   => Energetics <=

    Nuclear Repulsion Energy =            132.8139961588875337
    One-Electron Energy =                -525.3291045519929412
    Two-Electron Energy =                 199.3235341995207079
    Total Energy =                       -193.1915741935846711

Computation Completed


Properties will be evaluated at   0.000000,   0.000000,   0.000000 [a0]

Properties computed using the SCF density matrix

  Nuclear Dipole Moment: [e a0]
     X:  -143.5915      Y:   -31.1351      Z:    -3.3682

  Electronic Dipole Moment: [e a0]
     X:   143.7058      Y:    31.1425      Z:     4.0658

  Dipole Moment: [e a0]
     X:     0.1143      Y:     0.0074      Z:     0.6976     Total:     0.7070

  Dipole Moment: [D]
     X:     0.2905      Y:     0.0188      Z:     1.7731     Total:     1.7969


*** tstop() called on r282 at Fri Sep 10 16:56:25 2021
Module time:
	user time   =      55.88 seconds =       0.93 minutes
	system time =       1.00 seconds =       0.02 minutes
	total time  =         57 seconds =       0.95 minutes
Total time:
	user time   =     180.88 seconds =       3.01 minutes
	system time =       3.30 seconds =       0.06 minutes
	total time  =        184 seconds =       3.07 minutes

  //>>>>>>>>>>>>>>>>>>>>>>>>>>>>>>>>>>>//
  //            Monomer B HF           //
  //<<<<<<<<<<<<<<<<<<<<<<<<<<<<<<<<<<<//


*** tstart() called on r282
*** at Fri Sep 10 16:56:25 2021

   => Loading Basis Set <=

    Name: JUN-CC-PVTZ
    Role: ORBITAL
    Keyword: BASIS
    atoms 1-2, 9, 13-17          entry C          line   217 file /home/r08543048/miniconda3/share/psi4/basis/jun-cc-pvtz.gbs 
    atoms 3-4, 6-8, 10-12, 18-27 entry H          line    36 file /home/r08543048/miniconda3/share/psi4/basis/jun-cc-pvtz.gbs 
    atoms 5                      entry O          line   305 file /home/r08543048/miniconda3/share/psi4/basis/jun-cc-pvtz.gbs 


         ---------------------------------------------------------
                                   SCF
               by Justin Turney, Rob Parrish, Andy Simmonett
                          and Daniel G. A. Smith
                              RHF Reference
                        1 Threads,  20980 MiB Core
         ---------------------------------------------------------

  ==> Geometry <==

    Molecular point group: c1
    Full point group: C1

    Geometry (in Angstrom), charge = 0, multiplicity = 1:

       Center              X                  Y                   Z               Mass       
    ------------   -----------------  -----------------  -----------------  -----------------
      Gh(C)          -2.232824901033    -0.874866389059     0.809072616638    12.000000000000
      Gh(C)          -2.849340901033     0.280026610941     0.035034616638    12.000000000000
      Gh(H)          -1.318342901033    -0.523246389059     1.295620616638     1.007825032230
      Gh(H)          -2.921225901033    -1.161352389059     1.608700616638     1.007825032230
      Gh(O)          -1.998252901033     0.764387610941    -0.999204383362    15.994914619570
      Gh(H)          -3.759360901033    -0.052959389059    -0.465965383362     1.007825032230
      Gh(H)          -3.122911901033     1.089860610941     0.718702616638     1.007825032230
      Gh(H)          -1.235069901033     1.179780610941    -0.574535383362     1.007825032230
      Gh(C)          -1.929438901033    -2.071734389059    -0.082314383362    12.000000000000
      Gh(H)          -1.446205901033    -2.873031389059     0.476161616638     1.007825032230
      Gh(H)          -2.848941901033    -2.469965389059    -0.513577383362     1.007825032230
      Gh(H)          -1.277635901033    -1.780713389059    -0.904612383362     1.007825032230
         C            0.687504098967     2.491446610941     0.010835616638    12.000000000000
         C            0.964534098967     1.314225610941     0.584955616638    12.000000000000
         C            1.482566098967     0.113675610941    -0.138200383362    12.000000000000
         C            2.879176098967    -0.286172389059     0.341599616638    12.000000000000
         C            3.383501098967    -1.538958389059    -0.362968383362    12.000000000000
         H            0.812906098967     2.633742610941    -1.055820383362     1.007825032230
         H            0.337858098967     3.333819610941     0.591578616638     1.007825032230
         H            0.834930098967     1.215221610941     1.659775616638     1.007825032230
         H            0.804757098967    -0.731560389059     0.018582616638     1.007825032230
         H            1.502138098967     0.310940610941    -1.213198383362     1.007825032230
         H            3.565277098967     0.545868610941     0.169067616638     1.007825032230
         H            2.853287098967    -0.451663389059     1.421680616638     1.007825032230
         H            2.715639098967    -2.381197389059    -0.178482383362     1.007825032230
         H            3.431688098967    -1.382945389059    -1.441148383362     1.007825032230
         H            4.379093098967    -1.817027389059    -0.018990383362     1.007825032230

  Running in c1 symmetry.

  Rotational constants: A =      0.05672  B =      0.02389  C =      0.01858 [cm^-1]
  Rotational constants: A =   1700.28038  B =    716.18987  C =    556.99792 [MHz]
  Nuclear repulsion =  170.538361538437044

  Charge       = 0
  Multiplicity = 1
  Electrons    = 40
  Nalpha       = 20
  Nbeta        = 20

  ==> Algorithm <==

  SCF Algorithm Type is DF.
  DIIS enabled.
  MOM disabled.
  Fractional occupation disabled.
  Guess Type is SAD.
  Energy threshold   = 1.00e-08
  Density threshold  = 1.00e-08
  Integral threshold = 0.00e+00

  ==> Primary Basis <==

  Basis Set: JUN-CC-PVTZ
    Blend: JUN-CC-PVTZ
    Number of shells: 225
    Number of basis function: 603
    Number of Cartesian functions: 675
    Spherical Harmonics?: true
    Max angular momentum: 3

   => Loading Basis Set <=

    Name: (JUN-CC-PVTZ AUX)
    Role: JKFIT
    Keyword: DF_BASIS_SCF
    atoms 1-2, 9, 13-17          entry C          line   152 file /home/r08543048/miniconda3/share/psi4/basis/jun-cc-pvtz-jkfit.gbs 
    atoms 3-4, 6-8, 10-12, 18-27 entry H          line    70 file /home/r08543048/miniconda3/share/psi4/basis/jun-cc-pvtz-jkfit.gbs 
    atoms 5                      entry O          line   272 file /home/r08543048/miniconda3/share/psi4/basis/jun-cc-pvtz-jkfit.gbs 

  ==> Pre-Iterations <==

   -------------------------------------------------------
    Irrep   Nso     Nmo     Nalpha   Nbeta   Ndocc  Nsocc
   -------------------------------------------------------
     A        603     603       0       0       0       0
   -------------------------------------------------------
    Total     603     603      20      20      20       0
   -------------------------------------------------------

  ==> Integral Setup <==

  ==> DiskDFJK: Density-Fitted J/K Matrices <==

    J tasked:                  Yes
    K tasked:                  Yes
    wK tasked:                  No
    OpenMP threads:              1
    Integrals threads:           1
    Memory [MiB]:            15735
    Algorithm:                Core
    Integral Cache:           LOAD
    Schwarz Cutoff:          1E-12
    Fitting Condition:       1E-10

   => Auxiliary Basis Set <=

  Basis Set: (JUN-CC-PVTZ AUX)
    Blend: JUN-CC-PVTZ-JKFIT
    Number of shells: 441
    Number of basis function: 1395
    Number of Cartesian functions: 1674
    Spherical Harmonics?: true
    Max angular momentum: 4

  Minimum eigenvalue in the overlap matrix is 2.5003694811E-05.
  Using Symmetric Orthogonalization.

  SCF Guess: Superposition of Atomic Densities via on-the-fly atomic UHF.

  ==> Iterations <==

                           Total Energy        Delta E     RMS |[F,P]|

   @DF-RHF iter SAD:  -194.45092209442046   -1.94451e+02   0.00000e+00 
   @DF-RHF iter   1:  -194.99869020608685   -5.47768e-01   9.67178e-04 DIIS
   @DF-RHF iter   2:  -195.17526062266995   -1.76570e-01   4.24997e-04 DIIS
   @DF-RHF iter   3:  -195.20974369090476   -3.44831e-02   8.19603e-05 DIIS
   @DF-RHF iter   4:  -195.21208419986323   -2.34051e-03   2.75644e-05 DIIS
   @DF-RHF iter   5:  -195.21225468699674   -1.70487e-04   5.69291e-06 DIIS
   @DF-RHF iter   6:  -195.21226516939637   -1.04824e-05   1.31828e-06 DIIS
   @DF-RHF iter   7:  -195.21226567530726   -5.05911e-07   3.59708e-07 DIIS
   @DF-RHF iter   8:  -195.21226571776850   -4.24612e-08   7.92438e-08 DIIS
   @DF-RHF iter   9:  -195.21226572065217   -2.88367e-09   2.56812e-08 DIIS
   @DF-RHF iter  10:  -195.21226572100912   -3.56948e-10   8.83190e-09 DIIS
  Energy and wave function converged.


  ==> Post-Iterations <==

    Orbital Energies [Eh]
    ---------------------

    Doubly Occupied:                                                      

       1A    -11.231192     2A    -11.222083     3A    -11.219573  
       4A    -11.217532     5A    -11.211437     6A     -1.089521  
       7A     -1.021623     8A     -0.922522     9A     -0.812072  
      10A     -0.756658    11A     -0.651262    12A     -0.616691  
      13A     -0.589008    14A     -0.567418    15A     -0.538037  
      16A     -0.510422    17A     -0.484021    18A     -0.472899  
      19A     -0.470377    20A     -0.355505  

    Virtual:                                                              

      21A      0.033389    22A      0.045781    23A      0.050048  
      24A      0.052890    25A      0.062274    26A      0.068488  
      27A      0.073402    28A      0.077265    29A      0.080863  
      30A      0.093997    31A      0.099772    32A      0.102562  
      33A      0.103651    34A      0.109647    35A      0.112338  
      36A      0.115089    37A      0.125654    38A      0.131654  
      39A      0.136323    40A      0.143158    41A      0.150673  
      42A      0.153681    43A      0.160909    44A      0.162995  
      45A      0.169022    46A      0.173763    47A      0.175541  
      48A      0.181316    49A      0.190085    50A      0.194464  
      51A      0.208031    52A      0.210504    53A      0.215832  
      54A      0.226751    55A      0.234260    56A      0.247976  
      57A      0.252968    58A      0.255751    59A      0.274095  
      60A      0.280403    61A      0.283635    62A      0.291530  
      63A      0.295590    64A      0.299935    65A      0.305431  
      66A      0.315655    67A      0.320153    68A      0.321974  
      69A      0.329338    70A      0.332271    71A      0.335235  
      72A      0.340921    73A      0.348167    74A      0.351947  
      75A      0.355601    76A      0.364316    77A      0.366300  
      78A      0.370889    79A      0.377245    80A      0.382763  
      81A      0.390274    82A      0.392005    83A      0.396426  
      84A      0.399772    85A      0.402050    86A      0.409218  
      87A      0.420711    88A      0.426455    89A      0.429624  
      90A      0.433127    91A      0.442686    92A      0.448013  
      93A      0.456167    94A      0.464777    95A      0.465497  
      96A      0.475871    97A      0.476773    98A      0.491200  
      99A      0.494647   100A      0.503738   101A      0.509406  
     102A      0.518181   103A      0.522202   104A      0.526179  
     105A      0.534826   106A      0.541785   107A      0.547792  
     108A      0.555083   109A      0.560130   110A      0.562998  
     111A      0.565248   112A      0.578811   113A      0.580569  
     114A      0.591441   115A      0.600996   116A      0.605135  
     117A      0.613793   118A      0.620493   119A      0.629249  
     120A      0.636274   121A      0.642703   122A      0.650452  
     123A      0.663044   124A      0.665563   125A      0.671574  
     126A      0.677300   127A      0.688290   128A      0.700803  
     129A      0.706416   130A      0.711183   131A      0.725584  
     132A      0.735611   133A      0.746176   134A      0.765465  
     135A      0.768356   136A      0.775230   137A      0.791124  
     138A      0.794905   139A      0.802770   140A      0.804059  
     141A      0.813132   142A      0.826309   143A      0.831198  
     144A      0.838869   145A      0.850571   146A      0.858918  
     147A      0.873714   148A      0.879384   149A      0.881775  
     150A      0.891117   151A      0.903962   152A      0.907551  
     153A      0.924019   154A      0.938998   155A      0.946537  
     156A      0.959533   157A      0.971204   158A      0.982063  
     159A      0.988119   160A      0.992064   161A      1.011745  
     162A      1.016843   163A      1.033310   164A      1.038298  
     165A      1.049245   166A      1.064183   167A      1.080355  
     168A      1.085517   169A      1.092770   170A      1.098078  
     171A      1.101567   172A      1.111325   173A      1.118785  
     174A      1.121802   175A      1.139746   176A      1.142772  
     177A      1.164121   178A      1.177511   179A      1.185249  
     180A      1.202558   181A      1.214388   182A      1.219065  
     183A      1.231196   184A      1.239661   185A      1.252124  
     186A      1.255610   187A      1.260803   188A      1.265088  
     189A      1.271747   190A      1.282426   191A      1.292901  
     192A      1.306739   193A      1.313023   194A      1.316218  
     195A      1.328807   196A      1.337331   197A      1.347079  
     198A      1.352947   199A      1.357337   200A      1.373315  
     201A      1.378728   202A      1.379980   203A      1.390949  
     204A      1.399305   205A      1.412748   206A      1.415286  
     207A      1.422757   208A      1.431605   209A      1.436180  
     210A      1.440792   211A      1.454733   212A      1.462651  
     213A      1.477004   214A      1.488948   215A      1.498466  
     216A      1.507140   217A      1.512579   218A      1.527899  
     219A      1.536138   220A      1.541084   221A      1.546771  
     222A      1.556895   223A      1.568271   224A      1.569966  
     225A      1.582956   226A      1.594635   227A      1.595485  
     228A      1.611068   229A      1.612719   230A      1.619887  
     231A      1.633221   232A      1.649393   233A      1.660803  
     234A      1.666964   235A      1.678011   236A      1.681385  
     237A      1.695403   238A      1.700893   239A      1.707920  
     240A      1.720846   241A      1.722493   242A      1.737659  
     243A      1.753473   244A      1.769807   245A      1.773783  
     246A      1.786572   247A      1.797088   248A      1.802673  
     249A      1.816674   250A      1.824025   251A      1.850504  
     252A      1.868923   253A      1.878299   254A      1.887339  
     255A      1.903033   256A      1.905911   257A      1.917222  
     258A      1.927929   259A      1.946157   260A      1.964097  
     261A      1.976933   262A      1.995159   263A      2.013268  
     264A      2.036884   265A      2.046651   266A      2.070969  
     267A      2.081942   268A      2.099784   269A      2.116221  
     270A      2.159418   271A      2.165096   272A      2.183963  
     273A      2.211635   274A      2.232187   275A      2.272074  
     276A      2.293464   277A      2.359146   278A      2.408070  
     279A      2.415359   280A      2.447781   281A      2.493298  
     282A      2.561873   283A      2.590827   284A      2.608773  
     285A      2.692783   286A      2.700320   287A      2.767129  
     288A      2.780774   289A      2.805676   290A      2.820626  
     291A      2.828325   292A      2.843299   293A      2.847845  
     294A      2.857682   295A      2.874606   296A      2.882780  
     297A      2.911327   298A      2.917752   299A      2.920500  
     300A      2.950770   301A      2.977719   302A      2.990265  
     303A      3.012293   304A      3.013795   305A      3.046269  
     306A      3.052654   307A      3.069687   308A      3.080953  
     309A      3.098746   310A      3.110095   311A      3.136818  
     312A      3.143627   313A      3.158418   314A      3.166212  
     315A      3.166258   316A      3.209629   317A      3.213938  
     318A      3.218289   319A      3.237014   320A      3.245287  
     321A      3.257854   322A      3.279880   323A      3.303199  
     324A      3.316898   325A      3.329651   326A      3.337774  
     327A      3.361529   328A      3.382671   329A      3.386824  
     330A      3.396492   331A      3.417002   332A      3.422033  
     333A      3.444133   334A      3.454242   335A      3.463918  
     336A      3.474383   337A      3.477935   338A      3.494589  
     339A      3.508298   340A      3.521160   341A      3.528823  
     342A      3.536269   343A      3.543060   344A      3.550359  
     345A      3.566813   346A      3.568689   347A      3.575837  
     348A      3.591633   349A      3.600638   350A      3.607330  
     351A      3.619462   352A      3.626239   353A      3.627232  
     354A      3.632008   355A      3.654505   356A      3.656846  
     357A      3.675676   358A      3.684322   359A      3.698699  
     360A      3.708035   361A      3.720229   362A      3.749966  
     363A      3.760579   364A      3.765106   365A      3.771702  
     366A      3.780092   367A      3.791490   368A      3.808624  
     369A      3.820976   370A      3.826628   371A      3.832305  
     372A      3.847758   373A      3.849572   374A      3.866209  
     375A      3.882252   376A      3.887058   377A      3.899857  
     378A      3.917465   379A      3.925253   380A      3.933723  
     381A      3.947549   382A      3.959916   383A      3.968066  
     384A      3.973185   385A      3.983097   386A      3.993423  
     387A      4.007389   388A      4.015681   389A      4.046078  
     390A      4.050921   391A      4.060734   392A      4.087707  
     393A      4.102277   394A      4.120003   395A      4.125274  
     396A      4.153974   397A      4.167405   398A      4.173709  
     399A      4.181718   400A      4.197338   401A      4.205737  
     402A      4.218716   403A      4.235088   404A      4.243189  
     405A      4.252753   406A      4.261114   407A      4.278462  
     408A      4.291380   409A      4.301396   410A      4.313440  
     411A      4.329166   412A      4.343343   413A      4.349842  
     414A      4.361032   415A      4.376133   416A      4.379139  
     417A      4.388334   418A      4.403254   419A      4.411481  
     420A      4.415103   421A      4.436367   422A      4.438861  
     423A      4.442285   424A      4.453659   425A      4.455680  
     426A      4.470851   427A      4.481080   428A      4.498199  
     429A      4.503543   430A      4.508638   431A      4.511810  
     432A      4.525230   433A      4.527644   434A      4.540121  
     435A      4.551062   436A      4.570144   437A      4.572864  
     438A      4.587528   439A      4.598846   440A      4.616875  
     441A      4.620976   442A      4.631774   443A      4.645777  
     444A      4.655440   445A      4.664978   446A      4.670355  
     447A      4.687533   448A      4.695890   449A      4.721584  
     450A      4.726567   451A      4.733777   452A      4.745224  
     453A      4.754830   454A      4.771123   455A      4.777788  
     456A      4.780301   457A      4.794235   458A      4.797811  
     459A      4.810913   460A      4.813835   461A      4.824359  
     462A      4.838958   463A      4.848661   464A      4.867857  
     465A      4.895932   466A      4.899717   467A      4.909051  
     468A      4.911923   469A      4.920389   470A      4.925474  
     471A      4.931128   472A      4.944510   473A      4.954476  
     474A      4.966322   475A      4.983802   476A      4.987665  
     477A      4.996180   478A      5.005336   479A      5.026108  
     480A      5.031203   481A      5.047189   482A      5.060126  
     483A      5.068784   484A      5.084974   485A      5.090998  
     486A      5.103064   487A      5.124752   488A      5.129499  
     489A      5.142597   490A      5.151853   491A      5.178166  
     492A      5.183326   493A      5.193801   494A      5.202924  
     495A      5.226487   496A      5.245050   497A      5.268617  
     498A      5.279107   499A      5.284567   500A      5.293081  
     501A      5.300551   502A      5.324257   503A      5.327039  
     504A      5.360496   505A      5.366952   506A      5.375667  
     507A      5.408185   508A      5.418342   509A      5.421838  
     510A      5.447281   511A      5.464889   512A      5.490165  
     513A      5.532329   514A      5.549608   515A      5.566409  
     516A      5.576820   517A      5.594254   518A      5.612134  
     519A      5.632163   520A      5.657430   521A      5.662188  
     522A      5.707781   523A      5.723800   524A      5.748810  
     525A      5.760958   526A      5.773174   527A      5.799361  
     528A      5.821765   529A      5.846632   530A      5.873142  
     531A      5.880446   532A      5.913398   533A      5.923215  
     534A      5.942248   535A      5.949822   536A      5.967595  
     537A      5.980985   538A      6.026304   539A      6.041852  
     540A      6.107665   541A      6.135118   542A      6.166612  
     543A      6.211807   544A      6.236721   545A      6.276469  
     546A      6.303698   547A      6.343250   548A      6.367868  
     549A      6.419855   550A      6.432568   551A      6.462444  
     552A      6.476143   553A      6.494267   554A      6.510994  
     555A      6.528619   556A      6.584028   557A      6.597050  
     558A      6.648992   559A      6.688313   560A      6.723698  
     561A      6.876724   562A      6.962144   563A      7.016578  
     564A      7.158036   565A      7.294260   566A      7.412796  
     567A      7.491303   568A      7.518075   569A      7.577822  
     570A      7.617161   571A      7.689023   572A      7.716287  
     573A      7.740483   574A      7.813125   575A      7.870097  
     576A      7.938929   577A      8.000406   578A      8.046108  
     579A      8.230446   580A      8.366607   581A      8.496463  
     582A      8.592884   583A      9.563813   584A      9.628391  
     585A      9.785867   586A      9.894182   587A      9.950384  
     588A     10.039035   589A     10.164774   590A     10.372587  
     591A     11.292146   592A     11.726734   593A     12.622364  
     594A     12.833650   595A     13.643419   596A     13.914033  
     597A     14.530408   598A     14.586175   599A     15.392475  
     600A     43.953780   601A     45.102340   602A     45.727967  
     603A     61.622336  

    Final Occupation by Irrep:
              A 
    DOCC [    20 ]

  @DF-RHF Final Energy:  -195.21226572100912

   => Energetics <=

    Nuclear Repulsion Energy =            170.5383615384370444
    One-Electron Energy =                -599.5815496130503561
    Two-Electron Energy =                 233.8309223536042225
    Total Energy =                       -195.2122657210091177

Computation Completed


Properties will be evaluated at   0.000000,   0.000000,   0.000000 [a0]

Properties computed using the SCF density matrix

  Nuclear Dipole Moment: [e a0]
     X:   146.6829      Y:    26.1548      Z:     4.8573

  Electronic Dipole Moment: [e a0]
     X:  -146.5894      Y:   -26.3093      Z:    -4.8369

  Dipole Moment: [e a0]
     X:     0.0935      Y:    -0.1546      Z:     0.0204     Total:     0.1818

  Dipole Moment: [D]
     X:     0.2377      Y:    -0.3929      Z:     0.0518     Total:     0.4621


*** tstop() called on r282 at Fri Sep 10 16:57:29 2021
Module time:
	user time   =      62.53 seconds =       1.04 minutes
	system time =       1.07 seconds =       0.02 minutes
	total time  =         64 seconds =       1.07 minutes
Total time:
	user time   =     243.42 seconds =       4.06 minutes
	system time =       4.37 seconds =       0.07 minutes
	total time  =        248 seconds =       4.13 minutes
  Constructing Basis Sets for SAPT...

   => Loading Basis Set <=

    Name: (JUN-CC-PVTZ AUX)
    Role: RIFIT
    Keyword: DF_BASIS_SAPT
    atoms 1-2, 9, 13-17          entry C          line   132 file /home/r08543048/miniconda3/share/psi4/basis/jun-cc-pvtz-ri.gbs 
    atoms 3-4, 6-8, 10-12, 18-27 entry H          line    30 file /home/r08543048/miniconda3/share/psi4/basis/jun-cc-pvtz-ri.gbs 
    atoms 5                      entry O          line   244 file /home/r08543048/miniconda3/share/psi4/basis/jun-cc-pvtz-ri.gbs 


  //>>>>>>>>>>>>>>>>>>>>>>>>>>>>>>>>>>>//
  //               SAPT0               //
  //<<<<<<<<<<<<<<<<<<<<<<<<<<<<<<<<<<<//


*** tstart() called on r282
*** at Fri Sep 10 16:57:29 2021

        SAPT0  
    Ed Hohenstein
     6 June 2009

      Orbital Information
  --------------------------
    NSO        =       603
    NMO        =       603
    NRI        =      1413
    NOCC A     =        17
    NOCC B     =        20
    FOCC A     =         0
    FOCC B     =         0
    NVIR A     =       586
    NVIR B     =       583

    Elst10,r            =    -0.008287439459 [Eh]
    Exch10              =     0.011950315547 [Eh]
    Exch10 (S^2)        =     0.011871918927 [Eh]

    Iter     Energy [mEh]          dE [mEh]         Residual      Time [s]
       1      -0.84084598       0.840845975       3.973388760             1
       2      -0.99699306       0.156147086       1.077919162             3
       3      -1.00565723       0.008664173       0.277834948             5
       4      -1.00285907      -0.002798164       0.111520090             7
       5      -1.00235412      -0.000504953       0.028939045             8
       6      -1.00256602       0.000211899       0.011314165            10
       7      -1.00262230       0.000056286       0.002878360            12
       8      -1.00260436      -0.000017943       0.000911120            14
       9      -1.00260169      -0.000002673       0.000247527            15
      10      -1.00260306       0.000001373       0.000080101            17
      11      -1.00260325       0.000000194       0.000020949            19
      12      -1.00260313      -0.000000126       0.000004824            21
      13      -1.00260313       0.000000006       0.000001401            22
      14      -1.00260314       0.000000004       0.000000369            24

    CHF Iterations converged


    Iter     Energy [mEh]          dE [mEh]         Residual      Time [s]
       1      -3.51212149       3.512121493      10.190526752             1
       2      -4.40440036       0.892278865       3.920432018             3
       3      -4.50962609       0.105225734       0.926580080             5
       4      -4.49006460      -0.019561494       0.325560913             9
       5      -4.48398916      -0.006075438       0.063473480            11
       6      -4.48523020       0.001241036       0.029166016            13
       7      -4.48543943       0.000209232       0.009887557            15
       8      -4.48531041      -0.000129023       0.003439625            16
       9      -4.48528729      -0.000023114       0.000874931            18
      10      -4.48529636       0.000009068       0.000263092            20
      11      -4.48529775       0.000001395       0.000068963            22
      12      -4.48529704      -0.000000718       0.000016968            24
      13      -4.48529700      -0.000000035       0.000004240            25
      14      -4.48529704       0.000000041       0.000001226            27
      15      -4.48529704      -0.000000002       0.000000431            29

    CHF Iterations converged

    Ind20,r (A<-B)      =    -0.001002603138 [Eh]
    Ind20,r (B<-A)      =    -0.004485297040 [Eh]
    Ind20,r             =    -0.005487900178 [Eh]
    Exch-Ind20,r (A<-B) =     0.000812481403 [Eh]
    Exch-Ind20,r (B<-A) =     0.003123047883 [Eh]
    Exch-Ind20,r        =     0.003935529285 [Eh]
    Disp20              =    -0.009733957443 [Eh]
    Disp20 (SS)         =    -0.004866978721 [Eh]
    Disp20 (OS)         =    -0.004866978721 [Eh]
    Exch-Disp20         =     0.001220957657 [Eh]
    Exch-Disp20 (SS)    =     0.000796842957 [Eh]
    Exch-Disp20 (OS)    =     0.000424114699 [Eh]

    SAPT Results 
  --------------------------------------------------------------------------------------------------------
    Electrostatics                 -8.28743946 [mEh]      -5.20044677 [kcal/mol]     -21.75866930 [kJ/mol]
      Elst10,r                     -8.28743946 [mEh]      -5.20044677 [kcal/mol]     -21.75866930 [kJ/mol]

    Exchange                       11.95031555 [mEh]       7.49893622 [kcal/mol]      31.37554915 [kJ/mol]
      Exch10                       11.95031555 [mEh]       7.49893622 [kcal/mol]      31.37554915 [kJ/mol]
      Exch10(S^2)                  11.87191893 [mEh]       7.44974160 [kcal/mol]      31.16971885 [kJ/mol]

    Induction                      -2.96000278 [mEh]      -1.85742979 [kcal/mol]      -7.77148624 [kJ/mol]
      Ind20,r                      -5.48790018 [mEh]      -3.44370935 [kcal/mol]     -14.40847993 [kJ/mol]
      Exch-Ind20,r                  3.93552929 [mEh]       2.46958191 [kcal/mol]      10.33273072 [kJ/mol]
      delta HF,r (2)               -1.40763189 [mEh]      -0.88330235 [kcal/mol]      -3.69573702 [kJ/mol]

    Dispersion                     -8.51299979 [mEh]      -5.34198802 [kcal/mol]     -22.35087786 [kJ/mol]
      Disp20                       -9.73395744 [mEh]      -6.10815051 [kcal/mol]     -25.55650175 [kJ/mol]
      Exch-Disp20                   1.22095766 [mEh]       0.76616250 [kcal/mol]       3.20562389 [kJ/mol]
      Disp20 (SS)                  -4.86697872 [mEh]      -3.05407526 [kcal/mol]     -12.77825087 [kJ/mol]
      Disp20 (OS)                  -4.86697872 [mEh]      -3.05407526 [kcal/mol]     -12.77825087 [kJ/mol]
      Exch-Disp20 (SS)              0.79684296 [mEh]       0.50002650 [kcal/mol]       2.09211090 [kJ/mol]
      Exch-Disp20 (OS)              0.42411470 [mEh]       0.26613599 [kcal/mol]       1.11351299 [kJ/mol]

  Total HF                          0.70287330 [mEh]       0.44105966 [kcal/mol]       1.84539361 [kJ/mol]
  Total SAPT0                      -7.81012648 [mEh]      -4.90092836 [kcal/mol]     -20.50548425 [kJ/mol]

  Special recipe for scaled SAPT0 (see Manual):
    Electrostatics sSAPT0          -8.28743946 [mEh]      -5.20044677 [kcal/mol]     -21.75866930 [kJ/mol]
    Exchange sSAPT0                11.95031555 [mEh]       7.49893622 [kcal/mol]      31.37554915 [kJ/mol]
    Induction sSAPT0               -2.88152160 [mEh]      -1.80818210 [kcal/mol]      -7.56543392 [kJ/mol]
    Dispersion sSAPT0              -8.48865180 [mEh]      -5.32670943 [kcal/mol]     -22.28695224 [kJ/mol]
  Total sSAPT0                     -7.70729732 [mEh]      -4.83640208 [kcal/mol]     -20.23550631 [kJ/mol]
  --------------------------------------------------------------------------------------------------------

*** tstop() called on r282 at Fri Sep 10 17:01:28 2021
Module time:
	user time   =     204.44 seconds =       3.41 minutes
	system time =      31.17 seconds =       0.52 minutes
	total time  =        239 seconds =       3.98 minutes
Total time:
	user time   =     448.04 seconds =       7.47 minutes
	system time =      35.54 seconds =       0.59 minutes
	total time  =        487 seconds =       8.12 minutes

    Psi4 stopped on: Friday, 10 September 2021 05:01PM
    Psi4 wall time for execution: 0:08:07.03

*** Psi4 exiting successfully. Buy a developer a beer!
