
    -----------------------------------------------------------------------
          Psi4: An Open-Source Ab Initio Electronic Structure Package
                               Psi4 1.3.2 release

                         Git: Rev {HEAD} ecbda83 


    R. M. Parrish, L. A. Burns, D. G. A. Smith, A. C. Simmonett,
    A. E. DePrince III, E. G. Hohenstein, U. Bozkaya, A. Yu. Sokolov,
    R. Di Remigio, R. M. Richard, J. F. Gonthier, A. M. James,
    H. R. McAlexander, A. Kumar, M. Saitow, X. Wang, B. P. Pritchard,
    P. Verma, H. F. Schaefer III, K. Patkowski, R. A. King, E. F. Valeev,
    F. A. Evangelista, J. M. Turney, T. D. Crawford, and C. D. Sherrill,
    J. Chem. Theory Comput. 13(7) pp 3185--3197 (2017).
    (doi: 10.1021/acs.jctc.7b00174)


                         Additional Contributions by
    P. Kraus, H. Kruse, M. H. Lechner, M. C. Schieber, R. A. Shaw,
    A. Alenaizan, R. Galvelis, Z. L. Glick, S. Lehtola, and J. P. Misiewicz

    -----------------------------------------------------------------------


    Psi4 started on: Friday, 10 September 2021 04:07PM

    Process ID: 56834
    Host:       r282
    PSIDATADIR: /home/r08543048/miniconda3/share/psi4
    Memory:     500.0 MiB
    Threads:    1
    
  ==> Input File <==

--------------------------------------------------------------------------
# Any line starting with the # character is a comment line
#! Sample  computation

memory 22 gb

molecule Dimer {
0 1
 C  2.744328    0.260947   -0.279377
 C  2.308696    0.670127    1.119810
 H  2.195350    0.855115   -1.017638
 H  3.796699    0.544275   -0.377605
 O  0.920338    0.481705    1.380619
 H  2.827909    0.057179    1.858037
 H  2.590528    1.712842    1.300604
 H  0.424342    1.064634    0.788124
 C  2.592650   -1.226828   -0.596999
 H  3.212043   -1.460725   -1.465880
 H  2.998706   -1.808762    0.235270
 C  1.159718   -1.667848   -0.882487
 H  0.742686   -1.089324   -1.709612
 H  1.126188   -2.720363   -1.165556
 H  0.523183   -1.520768   -0.013308

    
    
 --
0 1
 C   -0.701644    2.290729   -0.945112
 C   -1.747575    1.734475   -0.321313
 C   -2.266707    0.358382   -0.587199
 C   -2.357295   -0.491518    0.681677
 C   -2.856606   -1.898549    0.380195
 H   -0.168300    1.753726   -1.720289
 H   -0.373923    3.294816   -0.711996
 H   -2.262800    2.307859    0.444957
 H   -3.266196    0.430096   -1.029270
 H   -1.627215   -0.138380   -1.321550
 H   -1.376372   -0.536583    1.158245
 H   -3.029421   -0.001358    1.390808
 H   -3.842069   -1.871326   -0.087251
 H   -2.176635   -2.408709   -0.303479
 H   -2.930799   -2.497385    1.287275




units angstrom

no_reorient
symmetry c1
}

set globals{
  basis jun-cc-pvtz
}

energy('sapt0')


--------------------------------------------------------------------------

  Memory set to  20.489 GiB by Python driver.

  //>>>>>>>>>>>>>>>>>>>>>>>>>>>>>>>>>>>//
  //              Dimer HF             //
  //<<<<<<<<<<<<<<<<<<<<<<<<<<<<<<<<<<<//


*** tstart() called on r282
*** at Fri Sep 10 16:07:34 2021

   => Loading Basis Set <=

    Name: JUN-CC-PVTZ
    Role: ORBITAL
    Keyword: BASIS
    atoms 1-2, 9, 12, 16-20             entry C          line   217 file /home/r08543048/miniconda3/share/psi4/basis/jun-cc-pvtz.gbs 
    atoms 3-4, 6-8, 10-11, 13-15, 21-30 entry H          line    36 file /home/r08543048/miniconda3/share/psi4/basis/jun-cc-pvtz.gbs 
    atoms 5                             entry O          line   305 file /home/r08543048/miniconda3/share/psi4/basis/jun-cc-pvtz.gbs 


         ---------------------------------------------------------
                                   SCF
               by Justin Turney, Rob Parrish, Andy Simmonett
                          and Daniel G. A. Smith
                              RHF Reference
                        1 Threads,  20980 MiB Core
         ---------------------------------------------------------

  ==> Geometry <==

    Molecular point group: c1
    Full point group: C1

    Geometry (in Angstrom), charge = 0, multiplicity = 1:

       Center              X                  Y                   Z               Mass       
    ------------   -----------------  -----------------  -----------------  -----------------
         C            2.740119988868     0.233204408079    -0.296261042043    12.000000000000
         C            2.304487988868     0.642384408079     1.102925957957    12.000000000000
         H            2.191141988868     0.827372408079    -1.034522042043     1.007825032230
         H            3.792490988868     0.516532408079    -0.394489042043     1.007825032230
         O            0.916129988868     0.453962408079     1.363734957957    15.994914619570
         H            2.823700988868     0.029436408079     1.841152957957     1.007825032230
         H            2.586319988868     1.685099408079     1.283719957957     1.007825032230
         H            0.420133988868     1.036891408079     0.771239957957     1.007825032230
         C            2.588441988868    -1.254570591921    -0.613883042043    12.000000000000
         H            3.207834988868    -1.488467591921    -1.482764042043     1.007825032230
         H            2.994497988868    -1.836504591921     0.218385957957     1.007825032230
         C            1.155509988868    -1.695590591921    -0.899371042043    12.000000000000
         H            0.738477988868    -1.117066591921    -1.726496042043     1.007825032230
         H            1.121979988868    -2.748105591921    -1.182440042043     1.007825032230
         H            0.518974988868    -1.548510591921    -0.030192042043     1.007825032230
         C           -0.705852011132     2.262986408079    -0.961996042043    12.000000000000
         C           -1.751783011132     1.706732408079    -0.338197042043    12.000000000000
         C           -2.270915011132     0.330639408079    -0.604083042043    12.000000000000
         C           -2.361503011132    -0.519260591921     0.664792957957    12.000000000000
         C           -2.860814011132    -1.926291591921     0.363310957957    12.000000000000
         H           -0.172508011132     1.725983408079    -1.737173042043     1.007825032230
         H           -0.378131011132     3.267073408079    -0.728880042043     1.007825032230
         H           -2.267008011132     2.280116408079     0.428072957957     1.007825032230
         H           -3.270404011132     0.402353408079    -1.046154042043     1.007825032230
         H           -1.631423011132    -0.166122591921    -1.338434042043     1.007825032230
         H           -1.380580011132    -0.564325591921     1.141360957957     1.007825032230
         H           -3.033629011132    -0.029100591921     1.373923957957     1.007825032230
         H           -3.846277011132    -1.899068591921    -0.104135042043     1.007825032230
         H           -2.180843011132    -2.436451591921    -0.320363042043     1.007825032230
         H           -2.935007011132    -2.525127591921     1.270390957957     1.007825032230

  Running in c1 symmetry.

  Rotational constants: A =      0.04513  B =      0.02229  C =      0.01847 [cm^-1]
  Rotational constants: A =   1352.81895  B =    668.16286  C =    553.60964 [MHz]
  Nuclear repulsion =  560.460604437138272

  Charge       = 0
  Multiplicity = 1
  Electrons    = 82
  Nalpha       = 41
  Nbeta        = 41

  ==> Algorithm <==

  SCF Algorithm Type is DF.
  DIIS enabled.
  MOM disabled.
  Fractional occupation disabled.
  Guess Type is SAD.
  Energy threshold   = 1.00e-08
  Density threshold  = 1.00e-08
  Integral threshold = 0.00e+00

  ==> Primary Basis <==

  Basis Set: JUN-CC-PVTZ
    Blend: JUN-CC-PVTZ
    Number of shells: 250
    Number of basis function: 670
    Number of Cartesian functions: 750
    Spherical Harmonics?: true
    Max angular momentum: 3

   => Loading Basis Set <=

    Name: (JUN-CC-PVTZ AUX)
    Role: JKFIT
    Keyword: DF_BASIS_SCF
    atoms 1-2, 9, 12, 16-20             entry C          line   152 file /home/r08543048/miniconda3/share/psi4/basis/jun-cc-pvtz-jkfit.gbs 
    atoms 3-4, 6-8, 10-11, 13-15, 21-30 entry H          line    70 file /home/r08543048/miniconda3/share/psi4/basis/jun-cc-pvtz-jkfit.gbs 
    atoms 5                             entry O          line   272 file /home/r08543048/miniconda3/share/psi4/basis/jun-cc-pvtz-jkfit.gbs 

  ==> Pre-Iterations <==

   -------------------------------------------------------
    Irrep   Nso     Nmo     Nalpha   Nbeta   Ndocc  Nsocc
   -------------------------------------------------------
     A        670     670       0       0       0       0
   -------------------------------------------------------
    Total     670     670      41      41      41       0
   -------------------------------------------------------

  ==> Integral Setup <==

  ==> DiskDFJK: Density-Fitted J/K Matrices <==

    J tasked:                  Yes
    K tasked:                  Yes
    wK tasked:                  No
    OpenMP threads:              1
    Integrals threads:           1
    Memory [MiB]:            15735
    Algorithm:                Core
    Integral Cache:           SAVE
    Schwarz Cutoff:          1E-12
    Fitting Condition:       1E-10

   => Auxiliary Basis Set <=

  Basis Set: (JUN-CC-PVTZ AUX)
    Blend: JUN-CC-PVTZ-JKFIT
    Number of shells: 490
    Number of basis function: 1550
    Number of Cartesian functions: 1860
    Spherical Harmonics?: true
    Max angular momentum: 4

  Minimum eigenvalue in the overlap matrix is 2.4882689478E-05.
  Using Symmetric Orthogonalization.

  SCF Guess: Superposition of Atomic Densities via on-the-fly atomic UHF.

  ==> Iterations <==

                           Total Energy        Delta E     RMS |[F,P]|

   @DF-RHF iter SAD:  -426.22699361108300   -4.26227e+02   0.00000e+00 
   @DF-RHF iter   1:  -427.01623647663467   -7.89243e-01   1.26544e-03 DIIS
   @DF-RHF iter   2:  -427.36229665811919   -3.46060e-01   6.13281e-04 DIIS
   @DF-RHF iter   3:  -427.44113631743062   -7.88397e-02   1.18757e-04 DIIS
   @DF-RHF iter   4:  -427.44634048862542   -5.20417e-03   4.10581e-05 DIIS
   @DF-RHF iter   5:  -427.44677058482063   -4.30096e-04   9.20509e-06 DIIS
   @DF-RHF iter   6:  -427.44679874716297   -2.81623e-05   2.52130e-06 DIIS
   @DF-RHF iter   7:  -427.44680114743824   -2.40028e-06   5.73470e-07 DIIS
   @DF-RHF iter   8:  -427.44680130710242   -1.59664e-07   1.71407e-07 DIIS
   @DF-RHF iter   9:  -427.44680132321383   -1.61114e-08   5.33193e-08 DIIS
   @DF-RHF iter  10:  -427.44680132512383   -1.91000e-09   2.12562e-08 DIIS
   @DF-RHF iter  11:  -427.44680132534234   -2.18506e-10   5.99279e-09 DIIS
  Energy and wave function converged.


  ==> Post-Iterations <==

    Orbital Energies [Eh]
    ---------------------

    Doubly Occupied:                                                      

       1A    -20.540964     2A    -11.265189     3A    -11.243149  
       4A    -11.227008     5A    -11.224663     6A    -11.216141  
       7A    -11.214878     8A    -11.214460     9A    -11.208233  
      10A    -11.201994    11A     -1.344648    12A     -1.094351  
      13A     -1.064835    14A     -1.026389    15A     -0.969911  
      16A     -0.925731    17A     -0.861741    18A     -0.811202  
      19A     -0.787905    20A     -0.765437    21A     -0.670756  
      22A     -0.655586    23A     -0.634636    24A     -0.623998  
      25A     -0.618325    26A     -0.596641    27A     -0.576196  
      28A     -0.567277    29A     -0.557025    30A     -0.539484  
      31A     -0.533013    32A     -0.514288    33A     -0.500993  
      34A     -0.490605    35A     -0.480290    36A     -0.478156  
      37A     -0.468810    38A     -0.468031    39A     -0.455337  
      40A     -0.418237    41A     -0.367493  

    Virtual:                                                              

      42A      0.047111    43A      0.050524    44A      0.054410  
      45A      0.057205    46A      0.065140    47A      0.070150  
      48A      0.071086    49A      0.080662    50A      0.081435  
      51A      0.093808    52A      0.097353    53A      0.105380  
      54A      0.107822    55A      0.108779    56A      0.115928  
      57A      0.119478    58A      0.127934    59A      0.133573  
      60A      0.137908    61A      0.143841    62A      0.145519  
      63A      0.151118    64A      0.156433    65A      0.158874  
      66A      0.166614    67A      0.170825    68A      0.175495  
      69A      0.182549    70A      0.188333    71A      0.199182  
      72A      0.204333    73A      0.205927    74A      0.207443  
      75A      0.211573    76A      0.219288    77A      0.225341  
      78A      0.232138    79A      0.248015    80A      0.248804  
      81A      0.263124    82A      0.271663    83A      0.275185  
      84A      0.278539    85A      0.282003    86A      0.285229  
      87A      0.292170    88A      0.303313    89A      0.307263  
      90A      0.313799    91A      0.317721    92A      0.320712  
      93A      0.322093    94A      0.322886    95A      0.330931  
      96A      0.336971    97A      0.339930    98A      0.343479  
      99A      0.349367   100A      0.355278   101A      0.357208  
     102A      0.364394   103A      0.367359   104A      0.371452  
     105A      0.372448   106A      0.382490   107A      0.386939  
     108A      0.394584   109A      0.395029   110A      0.399545  
     111A      0.404189   112A      0.410584   113A      0.416011  
     114A      0.419831   115A      0.424360   116A      0.428518  
     117A      0.433259   118A      0.439599   119A      0.448593  
     120A      0.453700   121A      0.458591   122A      0.466413  
     123A      0.471739   124A      0.475465   125A      0.483310  
     126A      0.495494   127A      0.497905   128A      0.503213  
     129A      0.517381   130A      0.520153   131A      0.520381  
     132A      0.528543   133A      0.531170   134A      0.537788  
     135A      0.547101   136A      0.549698   137A      0.554282  
     138A      0.562994   139A      0.565219   140A      0.570856  
     141A      0.572685   142A      0.582559   143A      0.584790  
     144A      0.588064   145A      0.591495   146A      0.604917  
     147A      0.610566   148A      0.614345   149A      0.625598  
     150A      0.638261   151A      0.643352   152A      0.650922  
     153A      0.652479   154A      0.660338   155A      0.664883  
     156A      0.684713   157A      0.688611   158A      0.694461  
     159A      0.704211   160A      0.708762   161A      0.719854  
     162A      0.721353   163A      0.736947   164A      0.739694  
     165A      0.744912   166A      0.753095   167A      0.761736  
     168A      0.769666   169A      0.777503   170A      0.784831  
     171A      0.791623   172A      0.794757   173A      0.804378  
     174A      0.811981   175A      0.815281   176A      0.824652  
     177A      0.827245   178A      0.832076   179A      0.841300  
     180A      0.845292   181A      0.851881   182A      0.855815  
     183A      0.858261   184A      0.861767   185A      0.868772  
     186A      0.875904   187A      0.883687   188A      0.891962  
     189A      0.900482   190A      0.903099   191A      0.911377  
     192A      0.914901   193A      0.916527   194A      0.921591  
     195A      0.932053   196A      0.942068   197A      0.953278  
     198A      0.967709   199A      0.969396   200A      0.980099  
     201A      0.987765   202A      0.993646   203A      1.003884  
     204A      1.014598   205A      1.022738   206A      1.026579  
     207A      1.029067   208A      1.050345   209A      1.060777  
     210A      1.068952   211A      1.079473   212A      1.083440  
     213A      1.091086   214A      1.108133   215A      1.113747  
     216A      1.122876   217A      1.128272   218A      1.144017  
     219A      1.159784   220A      1.167699   221A      1.181567  
     222A      1.196666   223A      1.210177   224A      1.215297  
     225A      1.221857   226A      1.229850   227A      1.247557  
     228A      1.249784   229A      1.266157   230A      1.272473  
     231A      1.280834   232A      1.285082   233A      1.290659  
     234A      1.304674   235A      1.318855   236A      1.322380  
     237A      1.331684   238A      1.339300   239A      1.357185  
     240A      1.360271   241A      1.373328   242A      1.379452  
     243A      1.381059   244A      1.398540   245A      1.398822  
     246A      1.399876   247A      1.415262   248A      1.418272  
     249A      1.430554   250A      1.435845   251A      1.448238  
     252A      1.456927   253A      1.460440   254A      1.472969  
     255A      1.475854   256A      1.483927   257A      1.494144  
     258A      1.505967   259A      1.508966   260A      1.519720  
     261A      1.531317   262A      1.531530   263A      1.540241  
     264A      1.544998   265A      1.554519   266A      1.559503  
     267A      1.567591   268A      1.573579   269A      1.587747  
     270A      1.591891   271A      1.602785   272A      1.607182  
     273A      1.608468   274A      1.624411   275A      1.626809  
     276A      1.633530   277A      1.646746   278A      1.650842  
     279A      1.661053   280A      1.667647   281A      1.673676  
     282A      1.682744   283A      1.696098   284A      1.700893  
     285A      1.703796   286A      1.716566   287A      1.722206  
     288A      1.735690   289A      1.737785   290A      1.746987  
     291A      1.755015   292A      1.765982   293A      1.779330  
     294A      1.787616   295A      1.798394   296A      1.804153  
     297A      1.815353   298A      1.821212   299A      1.837229  
     300A      1.846199   301A      1.862520   302A      1.873735  
     303A      1.897261   304A      1.900734   305A      1.907836  
     306A      1.911636   307A      1.920092   308A      1.931299  
     309A      1.942992   310A      1.955956   311A      1.964453  
     312A      1.986752   313A      1.994895   314A      2.002842  
     315A      2.021364   316A      2.028130   317A      2.058969  
     318A      2.074710   319A      2.109283   320A      2.116496  
     321A      2.126871   322A      2.154551   323A      2.165167  
     324A      2.286515   325A      2.316555   326A      2.390142  
     327A      2.480716   328A      2.503338   329A      2.554998  
     330A      2.684348   331A      2.746305   332A      2.767790  
     333A      2.782603   334A      2.795336   335A      2.811585  
     336A      2.812467   337A      2.825911   338A      2.831983  
     339A      2.838474   340A      2.853056   341A      2.861224  
     342A      2.867617   343A      2.883044   344A      2.890445  
     345A      2.899944   346A      2.914114   347A      2.926683  
     348A      2.941435   349A      2.942383   350A      2.957347  
     351A      2.971648   352A      2.973580   353A      2.991104  
     354A      3.005606   355A      3.017287   356A      3.020729  
     357A      3.037264   358A      3.049697   359A      3.055962  
     360A      3.065593   361A      3.081168   362A      3.097338  
     363A      3.105993   364A      3.109558   365A      3.117097  
     366A      3.123830   367A      3.137914   368A      3.144526  
     369A      3.154978   370A      3.170663   371A      3.175300  
     372A      3.178985   373A      3.192207   374A      3.208155  
     375A      3.211908   376A      3.220468   377A      3.229823  
     378A      3.230783   379A      3.241057   380A      3.255063  
     381A      3.264636   382A      3.267694   383A      3.283684  
     384A      3.291521   385A      3.297948   386A      3.306568  
     387A      3.318539   388A      3.330000   389A      3.337374  
     390A      3.349040   391A      3.359503   392A      3.364456  
     393A      3.375001   394A      3.377869   395A      3.393645  
     396A      3.401019   397A      3.407474   398A      3.411750  
     399A      3.420387   400A      3.428678   401A      3.440108  
     402A      3.455642   403A      3.459143   404A      3.459864  
     405A      3.471052   406A      3.474512   407A      3.482876  
     408A      3.485617   409A      3.496538   410A      3.500255  
     411A      3.503382   412A      3.515603   413A      3.517475  
     414A      3.527338   415A      3.533607   416A      3.539116  
     417A      3.541570   418A      3.544639   419A      3.557879  
     420A      3.560558   421A      3.562175   422A      3.573110  
     423A      3.586834   424A      3.589891   425A      3.592823  
     426A      3.605082   427A      3.611549   428A      3.617780  
     429A      3.623146   430A      3.636745   431A      3.640924  
     432A      3.650730   433A      3.663769   434A      3.674384  
     435A      3.688206   436A      3.700052   437A      3.715848  
     438A      3.718315   439A      3.736092   440A      3.744443  
     441A      3.764829   442A      3.771208   443A      3.773411  
     444A      3.784405   445A      3.793270   446A      3.797655  
     447A      3.806058   448A      3.815605   449A      3.821528  
     450A      3.830666   451A      3.849377   452A      3.852444  
     453A      3.860992   454A      3.876798   455A      3.883249  
     456A      3.892897   457A      3.913714   458A      3.929068  
     459A      3.937542   460A      3.945200   461A      3.949893  
     462A      3.961314   463A      3.977104   464A      3.979185  
     465A      3.985090   466A      3.988513   467A      3.993977  
     468A      3.999775   469A      4.020604   470A      4.025014  
     471A      4.046727   472A      4.048425   473A      4.071015  
     474A      4.089307   475A      4.096591   476A      4.117375  
     477A      4.136127   478A      4.147181   479A      4.151545  
     480A      4.170275   481A      4.182440   482A      4.190109  
     483A      4.196295   484A      4.216403   485A      4.219872  
     486A      4.233866   487A      4.247263   488A      4.253887  
     489A      4.264843   490A      4.269646   491A      4.278351  
     492A      4.285369   493A      4.291099   494A      4.304058  
     495A      4.318347   496A      4.330282   497A      4.336979  
     498A      4.342078   499A      4.345369   500A      4.364130  
     501A      4.368344   502A      4.380194   503A      4.381935  
     504A      4.388980   505A      4.389907   506A      4.398276  
     507A      4.406467   508A      4.418755   509A      4.426312  
     510A      4.432461   511A      4.438262   512A      4.445967  
     513A      4.463789   514A      4.468050   515A      4.477932  
     516A      4.493349   517A      4.495684   518A      4.502188  
     519A      4.513321   520A      4.517557   521A      4.528080  
     522A      4.532378   523A      4.540012   524A      4.547480  
     525A      4.560114   526A      4.573526   527A      4.581537  
     528A      4.587823   529A      4.591116   530A      4.597735  
     531A      4.609580   532A      4.618503   533A      4.629772  
     534A      4.641789   535A      4.653126   536A      4.657168  
     537A      4.674848   538A      4.675712   539A      4.685817  
     540A      4.700381   541A      4.702700   542A      4.713967  
     543A      4.754601   544A      4.758670   545A      4.764112  
     546A      4.774855   547A      4.792708   548A      4.814785  
     549A      4.823085   550A      4.836982   551A      4.849916  
     552A      4.852457   553A      4.859027   554A      4.863843  
     555A      4.894628   556A      4.897761   557A      4.913676  
     558A      4.918836   559A      4.938858   560A      4.959756  
     561A      4.970484   562A      5.005517   563A      5.029689  
     564A      5.037728   565A      5.046788   566A      5.071980  
     567A      5.077326   568A      5.084219   569A      5.101686  
     570A      5.145778   571A      5.149930   572A      5.168928  
     573A      5.185424   574A      5.194111   575A      5.199722  
     576A      5.207391   577A      5.236550   578A      5.240103  
     579A      5.253369   580A      5.265820   581A      5.286037  
     582A      5.291685   583A      5.299818   584A      5.303039  
     585A      5.312052   586A      5.331867   587A      5.340179  
     588A      5.348120   589A      5.374026   590A      5.384744  
     591A      5.390865   592A      5.398106   593A      5.430860  
     594A      5.439602   595A      5.448351   596A      5.458417  
     597A      5.476060   598A      5.479312   599A      5.499555  
     600A      5.519895   601A      5.525815   602A      5.565475  
     603A      5.577307   604A      5.591824   605A      5.609356  
     606A      5.617011   607A      5.651317   608A      5.657520  
     609A      5.661526   610A      5.683132   611A      5.718720  
     612A      5.759753   613A      5.768687   614A      5.783546  
     615A      5.790356   616A      5.797461   617A      5.814906  
     618A      5.825638   619A      5.833499   620A      5.852717  
     621A      5.868990   622A      5.879659   623A      5.881864  
     624A      5.930626   625A      5.940209   626A      5.948669  
     627A      5.953973   628A      5.971798   629A      5.995658  
     630A      6.013961   631A      6.023491   632A      6.039784  
     633A      6.086048   634A      6.126287   635A      6.145384  
     636A      6.219158   637A      6.229799   638A      6.323624  
     639A      6.411808   640A      6.475351   641A      6.495630  
     642A      6.527102   643A      6.533211   644A      6.545366  
     645A      6.550179   646A      6.598524   647A      6.600660  
     648A      6.614562   649A      6.644116   650A      6.654963  
     651A      6.706444   652A      6.994745   653A      7.092319  
     654A      7.264963   655A      7.345086   656A      7.434090  
     657A      7.574779   658A      7.729272   659A      7.926187  
     660A      8.219204   661A     12.589555   662A     13.625640  
     663A     13.833568   664A     13.885135   665A     14.110074  
     666A     14.256781   667A     14.480189   668A     14.600921  
     669A     14.841970   670A     15.428899  

    Final Occupation by Irrep:
              A 
    DOCC [    41 ]

  @DF-RHF Final Energy:  -427.44680132534234

   => Energetics <=

    Nuclear Repulsion Energy =            560.4606044371382723
    One-Electron Energy =               -1690.9667940293115862
    Two-Electron Energy =                 703.0593882668309789
    Total Energy =                       -427.4468013253423351

Computation Completed


Properties will be evaluated at   0.000000,   0.000000,   0.000000 [a0]

Properties computed using the SCF density matrix

  Nuclear Dipole Moment: [e a0]
     X:    -0.6521      Y:    -4.2989      Z:    -2.6163

  Electronic Dipole Moment: [e a0]
     X:     0.7147      Y:     4.5713      Z:     2.2175

  Dipole Moment: [e a0]
     X:     0.0626      Y:     0.2724      Z:    -0.3987     Total:     0.4869

  Dipole Moment: [D]
     X:     0.1592      Y:     0.6923      Z:    -1.0135     Total:     1.2377


*** tstop() called on r282 at Fri Sep 10 16:10:39 2021
Module time:
	user time   =     180.57 seconds =       3.01 minutes
	system time =       4.38 seconds =       0.07 minutes
	total time  =        185 seconds =       3.08 minutes
Total time:
	user time   =     180.57 seconds =       3.01 minutes
	system time =       4.38 seconds =       0.07 minutes
	total time  =        185 seconds =       3.08 minutes

  //>>>>>>>>>>>>>>>>>>>>>>>>>>>>>>>>>>>//
  //            Monomer A HF           //
  //<<<<<<<<<<<<<<<<<<<<<<<<<<<<<<<<<<<//


*** tstart() called on r282
*** at Fri Sep 10 16:10:39 2021

   => Loading Basis Set <=

    Name: JUN-CC-PVTZ
    Role: ORBITAL
    Keyword: BASIS
    atoms 1-2, 9, 12, 16-20             entry C          line   217 file /home/r08543048/miniconda3/share/psi4/basis/jun-cc-pvtz.gbs 
    atoms 3-4, 6-8, 10-11, 13-15, 21-30 entry H          line    36 file /home/r08543048/miniconda3/share/psi4/basis/jun-cc-pvtz.gbs 
    atoms 5                             entry O          line   305 file /home/r08543048/miniconda3/share/psi4/basis/jun-cc-pvtz.gbs 


         ---------------------------------------------------------
                                   SCF
               by Justin Turney, Rob Parrish, Andy Simmonett
                          and Daniel G. A. Smith
                              RHF Reference
                        1 Threads,  20980 MiB Core
         ---------------------------------------------------------

  ==> Geometry <==

    Molecular point group: c1
    Full point group: C1

    Geometry (in Angstrom), charge = 0, multiplicity = 1:

       Center              X                  Y                   Z               Mass       
    ------------   -----------------  -----------------  -----------------  -----------------
         C            2.740119988868     0.233204408079    -0.296261042043    12.000000000000
         C            2.304487988868     0.642384408079     1.102925957957    12.000000000000
         H            2.191141988868     0.827372408079    -1.034522042043     1.007825032230
         H            3.792490988868     0.516532408079    -0.394489042043     1.007825032230
         O            0.916129988868     0.453962408079     1.363734957957    15.994914619570
         H            2.823700988868     0.029436408079     1.841152957957     1.007825032230
         H            2.586319988868     1.685099408079     1.283719957957     1.007825032230
         H            0.420133988868     1.036891408079     0.771239957957     1.007825032230
         C            2.588441988868    -1.254570591921    -0.613883042043    12.000000000000
         H            3.207834988868    -1.488467591921    -1.482764042043     1.007825032230
         H            2.994497988868    -1.836504591921     0.218385957957     1.007825032230
         C            1.155509988868    -1.695590591921    -0.899371042043    12.000000000000
         H            0.738477988868    -1.117066591921    -1.726496042043     1.007825032230
         H            1.121979988868    -2.748105591921    -1.182440042043     1.007825032230
         H            0.518974988868    -1.548510591921    -0.030192042043     1.007825032230
      Gh(C)          -0.705852011132     2.262986408079    -0.961996042043    12.000000000000
      Gh(C)          -1.751783011132     1.706732408079    -0.338197042043    12.000000000000
      Gh(C)          -2.270915011132     0.330639408079    -0.604083042043    12.000000000000
      Gh(C)          -2.361503011132    -0.519260591921     0.664792957957    12.000000000000
      Gh(C)          -2.860814011132    -1.926291591921     0.363310957957    12.000000000000
      Gh(H)          -0.172508011132     1.725983408079    -1.737173042043     1.007825032230
      Gh(H)          -0.378131011132     3.267073408079    -0.728880042043     1.007825032230
      Gh(H)          -2.267008011132     2.280116408079     0.428072957957     1.007825032230
      Gh(H)          -3.270404011132     0.402353408079    -1.046154042043     1.007825032230
      Gh(H)          -1.631423011132    -0.166122591921    -1.338434042043     1.007825032230
      Gh(H)          -1.380580011132    -0.564325591921     1.141360957957     1.007825032230
      Gh(H)          -3.033629011132    -0.029100591921     1.373923957957     1.007825032230
      Gh(H)          -3.846277011132    -1.899068591921    -0.104135042043     1.007825032230
      Gh(H)          -2.180843011132    -2.436451591921    -0.320363042043     1.007825032230
      Gh(H)          -2.935007011132    -2.525127591921     1.270390957957     1.007825032230

  Running in c1 symmetry.

  Rotational constants: A =      0.04513  B =      0.02229  C =      0.01847 [cm^-1]
  Rotational constants: A =   1352.81895  B =    668.16286  C =    553.60964 [MHz]
  Nuclear repulsion =  192.147587112170470

  Charge       = 0
  Multiplicity = 1
  Electrons    = 42
  Nalpha       = 21
  Nbeta        = 21

  ==> Algorithm <==

  SCF Algorithm Type is DF.
  DIIS enabled.
  MOM disabled.
  Fractional occupation disabled.
  Guess Type is SAD.
  Energy threshold   = 1.00e-08
  Density threshold  = 1.00e-08
  Integral threshold = 0.00e+00

  ==> Primary Basis <==

  Basis Set: JUN-CC-PVTZ
    Blend: JUN-CC-PVTZ
    Number of shells: 250
    Number of basis function: 670
    Number of Cartesian functions: 750
    Spherical Harmonics?: true
    Max angular momentum: 3

   => Loading Basis Set <=

    Name: (JUN-CC-PVTZ AUX)
    Role: JKFIT
    Keyword: DF_BASIS_SCF
    atoms 1-2, 9, 12, 16-20             entry C          line   152 file /home/r08543048/miniconda3/share/psi4/basis/jun-cc-pvtz-jkfit.gbs 
    atoms 3-4, 6-8, 10-11, 13-15, 21-30 entry H          line    70 file /home/r08543048/miniconda3/share/psi4/basis/jun-cc-pvtz-jkfit.gbs 
    atoms 5                             entry O          line   272 file /home/r08543048/miniconda3/share/psi4/basis/jun-cc-pvtz-jkfit.gbs 

  ==> Pre-Iterations <==

   -------------------------------------------------------
    Irrep   Nso     Nmo     Nalpha   Nbeta   Ndocc  Nsocc
   -------------------------------------------------------
     A        670     670       0       0       0       0
   -------------------------------------------------------
    Total     670     670      21      21      21       0
   -------------------------------------------------------

  ==> Integral Setup <==

  ==> DiskDFJK: Density-Fitted J/K Matrices <==

    J tasked:                  Yes
    K tasked:                  Yes
    wK tasked:                  No
    OpenMP threads:              1
    Integrals threads:           1
    Memory [MiB]:            15735
    Algorithm:                Core
    Integral Cache:           LOAD
    Schwarz Cutoff:          1E-12
    Fitting Condition:       1E-10

   => Auxiliary Basis Set <=

  Basis Set: (JUN-CC-PVTZ AUX)
    Blend: JUN-CC-PVTZ-JKFIT
    Number of shells: 490
    Number of basis function: 1550
    Number of Cartesian functions: 1860
    Spherical Harmonics?: true
    Max angular momentum: 4

  Minimum eigenvalue in the overlap matrix is 2.4882689478E-05.
  Using Symmetric Orthogonalization.

  SCF Guess: Superposition of Atomic Densities via on-the-fly atomic UHF.

  ==> Iterations <==

                           Total Energy        Delta E     RMS |[F,P]|

   @DF-RHF iter SAD:  -231.56079579991942   -2.31561e+02   0.00000e+00 
   @DF-RHF iter   1:  -232.00812941877339   -4.47334e-01   9.44342e-04 DIIS
   @DF-RHF iter   2:  -232.18505004902696   -1.76921e-01   5.00345e-04 DIIS
   @DF-RHF iter   3:  -232.23314034956007   -4.80903e-02   8.59403e-05 DIIS
   @DF-RHF iter   4:  -232.23587549710189   -2.73515e-03   2.91523e-05 DIIS
   @DF-RHF iter   5:  -232.23609447579318   -2.18979e-04   7.37733e-06 DIIS
   @DF-RHF iter   6:  -232.23611204115903   -1.75654e-05   1.68995e-06 DIIS
   @DF-RHF iter   7:  -232.23611335691544   -1.31576e-06   4.13727e-07 DIIS
   @DF-RHF iter   8:  -232.23611343958368   -8.26682e-08   1.31739e-07 DIIS
   @DF-RHF iter   9:  -232.23611344835803   -8.77435e-09   3.64486e-08 DIIS
   @DF-RHF iter  10:  -232.23611344913900   -7.80972e-10   8.50470e-09 DIIS
  Energy and wave function converged.


  ==> Post-Iterations <==

    Orbital Energies [Eh]
    ---------------------

    Doubly Occupied:                                                      

       1A    -20.555180     2A    -11.271876     3A    -11.220495  
       4A    -11.216418     5A    -11.202056     6A     -1.355390  
       7A     -1.067929     8A     -0.973094     9A     -0.865347  
      10A     -0.791147    11A     -0.677657    12A     -0.638691  
      13A     -0.628398    14A     -0.578911    15A     -0.560853  
      16A     -0.536848    17A     -0.504207    18A     -0.493395  
      19A     -0.473606    20A     -0.460117    21A     -0.425182  

    Virtual:                                                              

      22A      0.027713    23A      0.040221    24A      0.050394  
      25A      0.052925    26A      0.062013    27A      0.065425  
      28A      0.068529    29A      0.076402    30A      0.079089  
      31A      0.090055    32A      0.094087    33A      0.097991  
      34A      0.104103    35A      0.107246    36A      0.108073  
      37A      0.114953    38A      0.121708    39A      0.126036  
      40A      0.130910    41A      0.137071    42A      0.140805  
      43A      0.144799    44A      0.146778    45A      0.152331  
      46A      0.158727    47A      0.160606    48A      0.168658  
      49A      0.172058    50A      0.176279    51A      0.181419  
      52A      0.185119    53A      0.191395    54A      0.198366  
      55A      0.205769    56A      0.211399    57A      0.216593  
      58A      0.220483    59A      0.240097    60A      0.246359  
      61A      0.257368    62A      0.262431    63A      0.276536  
      64A      0.279203    65A      0.282760    66A      0.291478  
      67A      0.294047    68A      0.297311    69A      0.303317  
      70A      0.307446    71A      0.313235    72A      0.317572  
      73A      0.321727    74A      0.327568    75A      0.335773  
      76A      0.337681    77A      0.344609    78A      0.344909  
      79A      0.351082    80A      0.355126    81A      0.358843  
      82A      0.365379    83A      0.371903    84A      0.373287  
      85A      0.378323    86A      0.381308    87A      0.390413  
      88A      0.393527    89A      0.398377    90A      0.404564  
      91A      0.405454    92A      0.409260    93A      0.411343  
      94A      0.418913    95A      0.427143    96A      0.430178  
      97A      0.444346    98A      0.448561    99A      0.459435  
     100A      0.460348   101A      0.468010   102A      0.469640  
     103A      0.478423   104A      0.483236   105A      0.492241  
     106A      0.498218   107A      0.502028   108A      0.505295  
     109A      0.511649   110A      0.522465   111A      0.530688  
     112A      0.533118   113A      0.537518   114A      0.541683  
     115A      0.552789   116A      0.559010   117A      0.566027  
     118A      0.568995   119A      0.572041   120A      0.575494  
     121A      0.583097   122A      0.592779   123A      0.599828  
     124A      0.601583   125A      0.611906   126A      0.614753  
     127A      0.619525   128A      0.622560   129A      0.623632  
     130A      0.634250   131A      0.642028   132A      0.656062  
     133A      0.658832   134A      0.664102   135A      0.665743  
     136A      0.675423   137A      0.683756   138A      0.685102  
     139A      0.696961   140A      0.699980   141A      0.708475  
     142A      0.711216   143A      0.714452   144A      0.731770  
     145A      0.735495   146A      0.744902   147A      0.753889  
     148A      0.759876   149A      0.761849   150A      0.767007  
     151A      0.781474   152A      0.788606   153A      0.793177  
     154A      0.797485   155A      0.804612   156A      0.814194  
     157A      0.815078   158A      0.826898   159A      0.834537  
     160A      0.836228   161A      0.850890   162A      0.857856  
     163A      0.863948   164A      0.876176   165A      0.887834  
     166A      0.897617   167A      0.907631   168A      0.918220  
     169A      0.928597   170A      0.935987   171A      0.948233  
     172A      0.953265   173A      0.969521   174A      0.987366  
     175A      1.006011   176A      1.009153   177A      1.022534  
     178A      1.050735   179A      1.053960   180A      1.065808  
     181A      1.085808   182A      1.092989   183A      1.098368  
     184A      1.118873   185A      1.127515   186A      1.130722  
     187A      1.145572   188A      1.154406   189A      1.162164  
     190A      1.171335   191A      1.183082   192A      1.192026  
     193A      1.203858   194A      1.212898   195A      1.217609  
     196A      1.226234   197A      1.228362   198A      1.235328  
     199A      1.238873   200A      1.257365   201A      1.271964  
     202A      1.275765   203A      1.276957   204A      1.285414  
     205A      1.295184   206A      1.298305   207A      1.304322  
     208A      1.311491   209A      1.321936   210A      1.326881  
     211A      1.331567   212A      1.337672   213A      1.342079  
     214A      1.355297   215A      1.367055   216A      1.372525  
     217A      1.377831   218A      1.391429   219A      1.392454  
     220A      1.397789   221A      1.408459   222A      1.412671  
     223A      1.419871   224A      1.421706   225A      1.429837  
     226A      1.443764   227A      1.456394   228A      1.458892  
     229A      1.461400   230A      1.470458   231A      1.478758  
     232A      1.485625   233A      1.489932   234A      1.501404  
     235A      1.506105   236A      1.511788   237A      1.516653  
     238A      1.525498   239A      1.532395   240A      1.544349  
     241A      1.549145   242A      1.553264   243A      1.556737  
     244A      1.566102   245A      1.574464   246A      1.578300  
     247A      1.584186   248A      1.588926   249A      1.600407  
     250A      1.608226   251A      1.610799   252A      1.614970  
     253A      1.625423   254A      1.635326   255A      1.640409  
     256A      1.650407   257A      1.660840   258A      1.663418  
     259A      1.679396   260A      1.682971   261A      1.694459  
     262A      1.700905   263A      1.702661   264A      1.714837  
     265A      1.716014   266A      1.730475   267A      1.741060  
     268A      1.746124   269A      1.758668   270A      1.762808  
     271A      1.766103   272A      1.793378   273A      1.797562  
     274A      1.815177   275A      1.819456   276A      1.825486  
     277A      1.846598   278A      1.852615   279A      1.879012  
     280A      1.884908   281A      1.892355   282A      1.897204  
     283A      1.907194   284A      1.920463   285A      1.924465  
     286A      1.935632   287A      1.958565   288A      1.986216  
     289A      1.994218   290A      2.000027   291A      2.015339  
     292A      2.020232   293A      2.056400   294A      2.061100  
     295A      2.086632   296A      2.091621   297A      2.110727  
     298A      2.119052   299A      2.142567   300A      2.158397  
     301A      2.185023   302A      2.209346   303A      2.248021  
     304A      2.254051   305A      2.286458   306A      2.315418  
     307A      2.352134   308A      2.368165   309A      2.396008  
     310A      2.411476   311A      2.432037   312A      2.461100  
     313A      2.471084   314A      2.487860   315A      2.492271  
     316A      2.520936   317A      2.549024   318A      2.567250  
     319A      2.594319   320A      2.621481   321A      2.648469  
     322A      2.669753   323A      2.748683   324A      2.771408  
     325A      2.814390   326A      2.825208   327A      2.836616  
     328A      2.870820   329A      2.894125   330A      2.908684  
     331A      2.928039   332A      2.944146   333A      2.958186  
     334A      2.973858   335A      2.997444   336A      3.038847  
     337A      3.044181   338A      3.076882   339A      3.086115  
     340A      3.103670   341A      3.123903   342A      3.162055  
     343A      3.180352   344A      3.202077   345A      3.212238  
     346A      3.223520   347A      3.256707   348A      3.277897  
     349A      3.281167   350A      3.323261   351A      3.334198  
     352A      3.371471   353A      3.397896   354A      3.402501  
     355A      3.414053   356A      3.443106   357A      3.448784  
     358A      3.453488   359A      3.466163   360A      3.469520  
     361A      3.475097   362A      3.487888   363A      3.492787  
     364A      3.505293   365A      3.515187   366A      3.518290  
     367A      3.526780   368A      3.529911   369A      3.552226  
     370A      3.561506   371A      3.567179   372A      3.573877  
     373A      3.575174   374A      3.587516   375A      3.596830  
     376A      3.602089   377A      3.614625   378A      3.618961  
     379A      3.626369   380A      3.632210   381A      3.643999  
     382A      3.650928   383A      3.664482   384A      3.684589  
     385A      3.689610   386A      3.694473   387A      3.702775  
     388A      3.717024   389A      3.723331   390A      3.740274  
     391A      3.752272   392A      3.770318   393A      3.773265  
     394A      3.783969   395A      3.788665   396A      3.798802  
     397A      3.801852   398A      3.823671   399A      3.831910  
     400A      3.835657   401A      3.836743   402A      3.859697  
     403A      3.861716   404A      3.869963   405A      3.882770  
     406A      3.891541   407A      3.902887   408A      3.911534  
     409A      3.922073   410A      3.927112   411A      3.936515  
     412A      3.943738   413A      3.956128   414A      3.960884  
     415A      3.970466   416A      3.978369   417A      3.985243  
     418A      3.996728   419A      4.013308   420A      4.019084  
     421A      4.039450   422A      4.053794   423A      4.067874  
     424A      4.088316   425A      4.096030   426A      4.106182  
     427A      4.112224   428A      4.116730   429A      4.128181  
     430A      4.143294   431A      4.168338   432A      4.171767  
     433A      4.186820   434A      4.193573   435A      4.197310  
     436A      4.207764   437A      4.216169   438A      4.227830  
     439A      4.237553   440A      4.249081   441A      4.257849  
     442A      4.263656   443A      4.274585   444A      4.284097  
     445A      4.299430   446A      4.301824   447A      4.307957  
     448A      4.326115   449A      4.346931   450A      4.353497  
     451A      4.360085   452A      4.366966   453A      4.376774  
     454A      4.384857   455A      4.394565   456A      4.407506  
     457A      4.414433   458A      4.423772   459A      4.434670  
     460A      4.438484   461A      4.447338   462A      4.453561  
     463A      4.469475   464A      4.474820   465A      4.491865  
     466A      4.506300   467A      4.509082   468A      4.520411  
     469A      4.523590   470A      4.533029   471A      4.542786  
     472A      4.545114   473A      4.560249   474A      4.562182  
     475A      4.571158   476A      4.575736   477A      4.580509  
     478A      4.596700   479A      4.610555   480A      4.612767  
     481A      4.616425   482A      4.625270   483A      4.634073  
     484A      4.643767   485A      4.644886   486A      4.648935  
     487A      4.657410   488A      4.663501   489A      4.676914  
     490A      4.688354   491A      4.691101   492A      4.710104  
     493A      4.723171   494A      4.726132   495A      4.734803  
     496A      4.745851   497A      4.756428   498A      4.761147  
     499A      4.776355   500A      4.783930   501A      4.792487  
     502A      4.793942   503A      4.808147   504A      4.814341  
     505A      4.833153   506A      4.842460   507A      4.844156  
     508A      4.846115   509A      4.851026   510A      4.863423  
     511A      4.880421   512A      4.889275   513A      4.897213  
     514A      4.900516   515A      4.906217   516A      4.910748  
     517A      4.924158   518A      4.925389   519A      4.942871  
     520A      4.951575   521A      4.958018   522A      4.966308  
     523A      4.975654   524A      4.989594   525A      5.001755  
     526A      5.009173   527A      5.021905   528A      5.027926  
     529A      5.045767   530A      5.053620   531A      5.070568  
     532A      5.073287   533A      5.074658   534A      5.080648  
     535A      5.092540   536A      5.109325   537A      5.138545  
     538A      5.144175   539A      5.162854   540A      5.176650  
     541A      5.178328   542A      5.184969   543A      5.202532  
     544A      5.210240   545A      5.217464   546A      5.241069  
     547A      5.255144   548A      5.267456   549A      5.293320  
     550A      5.304216   551A      5.312346   552A      5.329556  
     553A      5.337222   554A      5.339963   555A      5.357852  
     556A      5.375106   557A      5.392170   558A      5.398892  
     559A      5.424355   560A      5.445569   561A      5.454505  
     562A      5.465102   563A      5.474581   564A      5.476773  
     565A      5.495115   566A      5.521625   567A      5.553388  
     568A      5.563909   569A      5.590683   570A      5.606630  
     571A      5.621505   572A      5.654353   573A      5.660703  
     574A      5.669810   575A      5.679026   576A      5.691292  
     577A      5.702825   578A      5.732122   579A      5.778636  
     580A      5.781190   581A      5.790713   582A      5.801787  
     583A      5.827225   584A      5.836814   585A      5.851314  
     586A      5.865218   587A      5.874676   588A      5.880111  
     589A      5.936183   590A      5.960242   591A      5.963771  
     592A      5.979581   593A      5.997398   594A      6.007039  
     595A      6.025755   596A      6.059479   597A      6.066635  
     598A      6.076801   599A      6.087352   600A      6.117715  
     601A      6.128578   602A      6.197669   603A      6.218385  
     604A      6.260508   605A      6.292688   606A      6.313531  
     607A      6.334860   608A      6.363341   609A      6.405682  
     610A      6.435231   611A      6.453914   612A      6.469330  
     613A      6.483652   614A      6.519231   615A      6.535404  
     616A      6.568422   617A      6.594430   618A      6.600784  
     619A      6.640286   620A      6.660976   621A      6.695236  
     622A      6.751944   623A      6.797030   624A      6.830873  
     625A      6.939206   626A      6.988002   627A      7.039194  
     628A      7.081230   629A      7.109908   630A      7.252850  
     631A      7.325839   632A      7.332431   633A      7.405200  
     634A      7.422333   635A      7.474111   636A      7.549484  
     637A      7.571836   638A      7.596578   639A      7.654663  
     640A      7.692676   641A      7.711612   642A      7.724198  
     643A      7.746676   644A      7.830954   645A      7.882412  
     646A      7.904258   647A      7.921810   648A      7.971897  
     649A      8.058464   650A      8.158955   651A      8.215408  
     652A      8.304816   653A      8.410244   654A      8.621491  
     655A      8.878998   656A      9.483570   657A      9.669213  
     658A      9.780457   659A      9.924856   660A     10.225845  
     661A     13.624625   662A     13.854649   663A     14.108217  
     664A     14.244165   665A     14.824477   666A     41.647097  
     667A     44.225581   668A     45.606602   669A     45.996205  
     670A     47.313805  

    Final Occupation by Irrep:
              A 
    DOCC [    21 ]

  @DF-RHF Final Energy:  -232.23611344913900

   => Energetics <=

    Nuclear Repulsion Energy =            192.1475871121704699
    One-Electron Energy =                -695.7738081458179522
    Two-Electron Energy =                 271.3901075845084847
    Total Energy =                       -232.2361134491389976

Computation Completed


Properties will be evaluated at   0.000000,   0.000000,   0.000000 [a0]

Properties computed using the SCF density matrix

  Nuclear Dipole Moment: [e a0]
     X:   152.0397      Y:   -25.4339      Z:     9.3238

  Electronic Dipole Moment: [e a0]
     X:  -151.7287      Y:    25.8260      Z:    -9.7857

  Dipole Moment: [e a0]
     X:     0.3110      Y:     0.3921      Z:    -0.4619     Total:     0.6811

  Dipole Moment: [D]
     X:     0.7905      Y:     0.9966      Z:    -1.1741     Total:     1.7311


*** tstop() called on r282 at Fri Sep 10 16:12:31 2021
Module time:
	user time   =     110.89 seconds =       1.85 minutes
	system time =       1.40 seconds =       0.02 minutes
	total time  =        112 seconds =       1.87 minutes
Total time:
	user time   =     291.46 seconds =       4.86 minutes
	system time =       5.78 seconds =       0.10 minutes
	total time  =        297 seconds =       4.95 minutes

  //>>>>>>>>>>>>>>>>>>>>>>>>>>>>>>>>>>>//
  //            Monomer B HF           //
  //<<<<<<<<<<<<<<<<<<<<<<<<<<<<<<<<<<<//


*** tstart() called on r282
*** at Fri Sep 10 16:12:31 2021

   => Loading Basis Set <=

    Name: JUN-CC-PVTZ
    Role: ORBITAL
    Keyword: BASIS
    atoms 1-2, 9, 12, 16-20             entry C          line   217 file /home/r08543048/miniconda3/share/psi4/basis/jun-cc-pvtz.gbs 
    atoms 3-4, 6-8, 10-11, 13-15, 21-30 entry H          line    36 file /home/r08543048/miniconda3/share/psi4/basis/jun-cc-pvtz.gbs 
    atoms 5                             entry O          line   305 file /home/r08543048/miniconda3/share/psi4/basis/jun-cc-pvtz.gbs 


         ---------------------------------------------------------
                                   SCF
               by Justin Turney, Rob Parrish, Andy Simmonett
                          and Daniel G. A. Smith
                              RHF Reference
                        1 Threads,  20980 MiB Core
         ---------------------------------------------------------

  ==> Geometry <==

    Molecular point group: c1
    Full point group: C1

    Geometry (in Angstrom), charge = 0, multiplicity = 1:

       Center              X                  Y                   Z               Mass       
    ------------   -----------------  -----------------  -----------------  -----------------
      Gh(C)           2.740119988868     0.233204408079    -0.296261042043    12.000000000000
      Gh(C)           2.304487988868     0.642384408079     1.102925957957    12.000000000000
      Gh(H)           2.191141988868     0.827372408079    -1.034522042043     1.007825032230
      Gh(H)           3.792490988868     0.516532408079    -0.394489042043     1.007825032230
      Gh(O)           0.916129988868     0.453962408079     1.363734957957    15.994914619570
      Gh(H)           2.823700988868     0.029436408079     1.841152957957     1.007825032230
      Gh(H)           2.586319988868     1.685099408079     1.283719957957     1.007825032230
      Gh(H)           0.420133988868     1.036891408079     0.771239957957     1.007825032230
      Gh(C)           2.588441988868    -1.254570591921    -0.613883042043    12.000000000000
      Gh(H)           3.207834988868    -1.488467591921    -1.482764042043     1.007825032230
      Gh(H)           2.994497988868    -1.836504591921     0.218385957957     1.007825032230
      Gh(C)           1.155509988868    -1.695590591921    -0.899371042043    12.000000000000
      Gh(H)           0.738477988868    -1.117066591921    -1.726496042043     1.007825032230
      Gh(H)           1.121979988868    -2.748105591921    -1.182440042043     1.007825032230
      Gh(H)           0.518974988868    -1.548510591921    -0.030192042043     1.007825032230
         C           -0.705852011132     2.262986408079    -0.961996042043    12.000000000000
         C           -1.751783011132     1.706732408079    -0.338197042043    12.000000000000
         C           -2.270915011132     0.330639408079    -0.604083042043    12.000000000000
         C           -2.361503011132    -0.519260591921     0.664792957957    12.000000000000
         C           -2.860814011132    -1.926291591921     0.363310957957    12.000000000000
         H           -0.172508011132     1.725983408079    -1.737173042043     1.007825032230
         H           -0.378131011132     3.267073408079    -0.728880042043     1.007825032230
         H           -2.267008011132     2.280116408079     0.428072957957     1.007825032230
         H           -3.270404011132     0.402353408079    -1.046154042043     1.007825032230
         H           -1.631423011132    -0.166122591921    -1.338434042043     1.007825032230
         H           -1.380580011132    -0.564325591921     1.141360957957     1.007825032230
         H           -3.033629011132    -0.029100591921     1.373923957957     1.007825032230
         H           -3.846277011132    -1.899068591921    -0.104135042043     1.007825032230
         H           -2.180843011132    -2.436451591921    -0.320363042043     1.007825032230
         H           -2.935007011132    -2.525127591921     1.270390957957     1.007825032230

  Running in c1 symmetry.

  Rotational constants: A =      0.04513  B =      0.02229  C =      0.01847 [cm^-1]
  Rotational constants: A =   1352.81895  B =    668.16286  C =    553.60964 [MHz]
  Nuclear repulsion =  170.313390202314963

  Charge       = 0
  Multiplicity = 1
  Electrons    = 40
  Nalpha       = 20
  Nbeta        = 20

  ==> Algorithm <==

  SCF Algorithm Type is DF.
  DIIS enabled.
  MOM disabled.
  Fractional occupation disabled.
  Guess Type is SAD.
  Energy threshold   = 1.00e-08
  Density threshold  = 1.00e-08
  Integral threshold = 0.00e+00

  ==> Primary Basis <==

  Basis Set: JUN-CC-PVTZ
    Blend: JUN-CC-PVTZ
    Number of shells: 250
    Number of basis function: 670
    Number of Cartesian functions: 750
    Spherical Harmonics?: true
    Max angular momentum: 3

   => Loading Basis Set <=

    Name: (JUN-CC-PVTZ AUX)
    Role: JKFIT
    Keyword: DF_BASIS_SCF
    atoms 1-2, 9, 12, 16-20             entry C          line   152 file /home/r08543048/miniconda3/share/psi4/basis/jun-cc-pvtz-jkfit.gbs 
    atoms 3-4, 6-8, 10-11, 13-15, 21-30 entry H          line    70 file /home/r08543048/miniconda3/share/psi4/basis/jun-cc-pvtz-jkfit.gbs 
    atoms 5                             entry O          line   272 file /home/r08543048/miniconda3/share/psi4/basis/jun-cc-pvtz-jkfit.gbs 

  ==> Pre-Iterations <==

   -------------------------------------------------------
    Irrep   Nso     Nmo     Nalpha   Nbeta   Ndocc  Nsocc
   -------------------------------------------------------
     A        670     670       0       0       0       0
   -------------------------------------------------------
    Total     670     670      20      20      20       0
   -------------------------------------------------------

  ==> Integral Setup <==

  ==> DiskDFJK: Density-Fitted J/K Matrices <==

    J tasked:                  Yes
    K tasked:                  Yes
    wK tasked:                  No
    OpenMP threads:              1
    Integrals threads:           1
    Memory [MiB]:            15735
    Algorithm:                Core
    Integral Cache:           LOAD
    Schwarz Cutoff:          1E-12
    Fitting Condition:       1E-10

   => Auxiliary Basis Set <=

  Basis Set: (JUN-CC-PVTZ AUX)
    Blend: JUN-CC-PVTZ-JKFIT
    Number of shells: 490
    Number of basis function: 1550
    Number of Cartesian functions: 1860
    Spherical Harmonics?: true
    Max angular momentum: 4

  Minimum eigenvalue in the overlap matrix is 2.4882689478E-05.
  Using Symmetric Orthogonalization.

  SCF Guess: Superposition of Atomic Densities via on-the-fly atomic UHF.

  ==> Iterations <==

                           Total Energy        Delta E     RMS |[F,P]|

   @DF-RHF iter SAD:  -194.44940071018976   -1.94449e+02   0.00000e+00 
   @DF-RHF iter   1:  -194.99850141365823   -5.49101e-01   8.70137e-04 DIIS
   @DF-RHF iter   2:  -195.17548768546425   -1.76986e-01   3.80688e-04 DIIS
   @DF-RHF iter   3:  -195.20966179734671   -3.41741e-02   7.33457e-05 DIIS
   @DF-RHF iter   4:  -195.21199623938475   -2.33444e-03   2.43926e-05 DIIS
   @DF-RHF iter   5:  -195.21216152087652   -1.65281e-04   5.16696e-06 DIIS
   @DF-RHF iter   6:  -195.21217204895214   -1.05281e-05   1.16054e-06 DIIS
   @DF-RHF iter   7:  -195.21217255061177   -5.01660e-07   3.33480e-07 DIIS
   @DF-RHF iter   8:  -195.21217259543272   -4.48210e-08   7.72923e-08 DIIS
   @DF-RHF iter   9:  -195.21217259898583   -3.55311e-09   2.76852e-08 DIIS
   @DF-RHF iter  10:  -195.21217259950942   -5.23585e-10   9.34988e-09 DIIS
  Energy and wave function converged.


  ==> Post-Iterations <==

    Orbital Energies [Eh]
    ---------------------

    Doubly Occupied:                                                      

       1A    -11.231203     2A    -11.222197     3A    -11.219721  
       4A    -11.217410     5A    -11.211686     6A     -1.089275  
       7A     -1.022090     8A     -0.922386     9A     -0.811714  
      10A     -0.757199    11A     -0.649741    12A     -0.617327  
      13A     -0.590729    14A     -0.566819    15A     -0.537934  
      16A     -0.510939    17A     -0.483084    18A     -0.474314  
      19A     -0.469608    20A     -0.355332  

    Virtual:                                                              

      21A      0.031823    22A      0.044531    23A      0.048565  
      24A      0.052797    25A      0.062139    26A      0.065668  
      27A      0.069049    28A      0.076646    29A      0.078658  
      30A      0.087504    31A      0.095434    32A      0.098975  
      33A      0.103827    34A      0.105568    35A      0.109165  
      36A      0.116738    37A      0.123051    38A      0.128808  
      39A      0.130297    40A      0.137591    41A      0.141343  
      42A      0.146221    43A      0.149282    44A      0.150201  
      45A      0.157843    46A      0.161680    47A      0.166267  
      48A      0.168841    49A      0.174005    50A      0.182268  
      51A      0.193103    52A      0.194384    53A      0.199304  
      54A      0.203872    55A      0.208726    56A      0.213395  
      57A      0.222115    58A      0.226551    59A      0.233009  
      60A      0.239548    61A      0.251749    62A      0.254410  
      63A      0.266227    64A      0.277981    65A      0.280736  
      66A      0.281647    67A      0.296938    68A      0.304281  
      69A      0.308459    70A      0.313671    71A      0.314248  
      72A      0.317562    73A      0.325093    74A      0.330416  
      75A      0.334093    76A      0.337327    77A      0.343581  
      78A      0.346411    79A      0.351594    80A      0.359669  
      81A      0.364918    82A      0.371216    83A      0.374419  
      84A      0.378511    85A      0.385459    86A      0.392737  
      87A      0.396136    88A      0.397633    89A      0.399948  
      90A      0.405765    91A      0.412081    92A      0.423576  
      93A      0.425403    94A      0.430948    95A      0.436734  
      96A      0.444084    97A      0.450647    98A      0.454262  
      99A      0.462212   100A      0.464598   101A      0.472112  
     102A      0.477682   103A      0.482913   104A      0.490418  
     105A      0.497533   106A      0.501929   107A      0.505482  
     108A      0.514502   109A      0.520917   110A      0.524728  
     111A      0.533749   112A      0.536086   113A      0.540885  
     114A      0.545048   115A      0.551152   116A      0.557836  
     117A      0.559491   118A      0.568530   119A      0.573588  
     120A      0.577430   121A      0.587048   122A      0.592230  
     123A      0.596000   124A      0.603340   125A      0.605240  
     126A      0.620138   127A      0.624428   128A      0.629573  
     129A      0.635124   130A      0.638545   131A      0.644404  
     132A      0.654279   133A      0.657491   134A      0.668192  
     135A      0.670129   136A      0.671341   137A      0.683120  
     138A      0.690294   139A      0.695976   140A      0.703739  
     141A      0.709677   142A      0.729301   143A      0.733249  
     144A      0.744120   145A      0.747778   146A      0.761956  
     147A      0.767490   148A      0.777267   149A      0.782398  
     150A      0.786501   151A      0.794180   152A      0.804062  
     153A      0.813638   154A      0.824254   155A      0.833855  
     156A      0.837938   157A      0.840116   158A      0.851307  
     159A      0.861274   160A      0.868764   161A      0.870221  
     162A      0.876448   163A      0.882946   164A      0.894186  
     165A      0.903309   166A      0.908239   167A      0.923675  
     168A      0.929185   169A      0.948826   170A      0.952064  
     171A      0.958959   172A      0.966661   173A      0.979532  
     174A      0.993040   175A      1.008550   176A      1.011453  
     177A      1.028082   178A      1.038781   179A      1.054403  
     180A      1.062291   181A      1.069994   182A      1.087738  
     183A      1.091541   184A      1.098751   185A      1.107198  
     186A      1.110067   187A      1.119508   188A      1.122675  
     189A      1.138263   190A      1.149182   191A      1.154539  
     192A      1.160620   193A      1.174847   194A      1.177843  
     195A      1.199079   196A      1.204968   197A      1.210900  
     198A      1.225102   199A      1.235069   200A      1.239728  
     201A      1.253264   202A      1.255464   203A      1.265252  
     204A      1.267272   205A      1.275676   206A      1.278584  
     207A      1.289233   208A      1.301139   209A      1.305301  
     210A      1.310453   211A      1.322479   212A      1.326371  
     213A      1.333421   214A      1.343616   215A      1.348924  
     216A      1.362801   217A      1.369316   218A      1.373610  
     219A      1.384047   220A      1.388789   221A      1.397339  
     222A      1.400966   223A      1.406153   224A      1.421219  
     225A      1.434223   226A      1.440835   227A      1.441964  
     228A      1.455648   229A      1.459398   230A      1.465453  
     231A      1.482355   232A      1.484822   233A      1.490304  
     234A      1.499161   235A      1.505757   236A      1.509384  
     237A      1.519020   238A      1.526724   239A      1.533352  
     240A      1.543387   241A      1.549966   242A      1.552408  
     243A      1.561178   244A      1.570683   245A      1.585775  
     246A      1.592735   247A      1.599416   248A      1.608446  
     249A      1.611994   250A      1.613897   251A      1.618530  
     252A      1.632004   253A      1.640070   254A      1.648540  
     255A      1.650987   256A      1.663822   257A      1.679037  
     258A      1.679909   259A      1.693532   260A      1.695066  
     261A      1.704196   262A      1.711981   263A      1.730289  
     264A      1.731567   265A      1.744097   266A      1.752902  
     267A      1.766066   268A      1.769036   269A      1.794188  
     270A      1.797863   271A      1.807146   272A      1.809894  
     273A      1.825845   274A      1.834893   275A      1.844554  
     276A      1.864707   277A      1.877162   278A      1.879275  
     279A      1.887283   280A      1.898854   281A      1.917016  
     282A      1.926656   283A      1.936652   284A      1.944667  
     285A      1.967732   286A      1.981711   287A      1.988630  
     288A      1.991996   289A      2.006539   290A      2.022551  
     291A      2.035215   292A      2.073555   293A      2.092754  
     294A      2.101212   295A      2.124471   296A      2.138044  
     297A      2.144916   298A      2.164240   299A      2.179670  
     300A      2.191503   301A      2.216930   302A      2.230795  
     303A      2.283738   304A      2.301991   305A      2.311117  
     306A      2.372786   307A      2.396223   308A      2.436228  
     309A      2.468318   310A      2.500147   311A      2.530563  
     312A      2.535516   313A      2.584286   314A      2.593863  
     315A      2.611745   316A      2.664597   317A      2.721030  
     318A      2.740695   319A      2.770376   320A      2.779367  
     321A      2.798702   322A      2.801083   323A      2.833794  
     324A      2.847492   325A      2.861219   326A      2.868828  
     327A      2.884176   328A      2.898509   329A      2.918365  
     330A      2.935699   331A      2.943929   332A      2.973676  
     333A      2.978840   334A      2.999802   335A      3.012604  
     336A      3.035147   337A      3.043131   338A      3.046398  
     339A      3.073280   340A      3.095820   341A      3.112081  
     342A      3.122197   343A      3.142152   344A      3.146675  
     345A      3.164496   346A      3.174035   347A      3.186215  
     348A      3.197148   349A      3.220157   350A      3.235354  
     351A      3.237290   352A      3.249227   353A      3.280819  
     354A      3.302873   355A      3.310078   356A      3.328162  
     357A      3.346776   358A      3.360381   359A      3.365572  
     360A      3.377960   361A      3.390646   362A      3.405452  
     363A      3.414307   364A      3.432316   365A      3.453167  
     366A      3.467120   367A      3.472275   368A      3.490906  
     369A      3.494247   370A      3.496400   371A      3.512656  
     372A      3.522113   373A      3.523274   374A      3.541151  
     375A      3.544451   376A      3.554257   377A      3.561122  
     378A      3.567225   379A      3.584657   380A      3.587713  
     381A      3.596018   382A      3.598880   383A      3.603640  
     384A      3.616491   385A      3.630554   386A      3.634722  
     387A      3.642934   388A      3.652273   389A      3.658593  
     390A      3.687673   391A      3.695720   392A      3.705970  
     393A      3.717879   394A      3.727317   395A      3.741989  
     396A      3.749816   397A      3.751335   398A      3.762088  
     399A      3.771930   400A      3.776491   401A      3.791032  
     402A      3.794224   403A      3.808680   404A      3.821740  
     405A      3.828519   406A      3.836800   407A      3.848774  
     408A      3.863459   409A      3.872073   410A      3.875378  
     411A      3.889338   412A      3.893222   413A      3.905208  
     414A      3.917404   415A      3.939142   416A      3.941959  
     417A      3.952238   418A      3.963339   419A      3.973416  
     420A      3.979476   421A      3.982321   422A      3.998069  
     423A      4.000729   424A      4.011181   425A      4.031180  
     426A      4.040876   427A      4.050503   428A      4.073169  
     429A      4.087723   430A      4.090230   431A      4.101330  
     432A      4.128358   433A      4.147264   434A      4.151313  
     435A      4.165852   436A      4.169973   437A      4.189011  
     438A      4.200516   439A      4.203205   440A      4.209266  
     441A      4.218714   442A      4.232989   443A      4.247208  
     444A      4.257740   445A      4.267934   446A      4.273329  
     447A      4.279865   448A      4.297907   449A      4.313470  
     450A      4.329578   451A      4.336122   452A      4.344937  
     453A      4.355716   454A      4.367012   455A      4.382782  
     456A      4.386248   457A      4.398313   458A      4.401293  
     459A      4.408841   460A      4.414592   461A      4.421023  
     462A      4.433769   463A      4.441319   464A      4.456136  
     465A      4.458341   466A      4.465471   467A      4.475193  
     468A      4.491352   469A      4.493679   470A      4.507551  
     471A      4.508745   472A      4.521463   473A      4.525885  
     474A      4.540783   475A      4.547431   476A      4.555115  
     477A      4.566528   478A      4.567542   479A      4.576486  
     480A      4.590540   481A      4.600303   482A      4.614147  
     483A      4.618149   484A      4.625440   485A      4.636001  
     486A      4.647420   487A      4.657364   488A      4.664528  
     489A      4.675729   490A      4.683351   491A      4.690100  
     492A      4.706080   493A      4.717745   494A      4.734578  
     495A      4.744798   496A      4.749093   497A      4.757551  
     498A      4.766097   499A      4.777710   500A      4.785475  
     501A      4.790978   502A      4.795704   503A      4.808774  
     504A      4.811432   505A      4.828478   506A      4.842414  
     507A      4.850066   508A      4.859422   509A      4.866765  
     510A      4.872585   511A      4.879197   512A      4.886917  
     513A      4.895238   514A      4.895951   515A      4.908021  
     516A      4.912212   517A      4.923379   518A      4.933212  
     519A      4.952635   520A      4.959412   521A      4.968846  
     522A      4.974342   523A      4.994030   524A      4.997197  
     525A      5.004441   526A      5.005721   527A      5.037855  
     528A      5.040340   529A      5.048058   530A      5.055137  
     531A      5.070763   532A      5.072215   533A      5.079721  
     534A      5.095853   535A      5.118584   536A      5.126045  
     537A      5.134111   538A      5.139510   539A      5.143836  
     540A      5.158584   541A      5.164842   542A      5.174623  
     543A      5.180408   544A      5.201197   545A      5.217799  
     546A      5.224339   547A      5.240892   548A      5.245027  
     549A      5.268084   550A      5.288556   551A      5.292845  
     552A      5.302370   553A      5.310356   554A      5.339291  
     555A      5.354132   556A      5.365645   557A      5.373393  
     558A      5.392833   559A      5.394076   560A      5.422505  
     561A      5.443035   562A      5.446722   563A      5.459195  
     564A      5.461223   565A      5.480243   566A      5.491225  
     567A      5.527584   568A      5.559657   569A      5.572206  
     570A      5.584826   571A      5.599865   572A      5.618088  
     573A      5.643925   574A      5.651846   575A      5.655346  
     576A      5.668446   577A      5.706713   578A      5.725463  
     579A      5.730181   580A      5.760515   581A      5.782640  
     582A      5.787229   583A      5.808084   584A      5.826945  
     585A      5.833649   586A      5.875712   587A      5.887937  
     588A      5.929621   589A      5.941791   590A      5.946728  
     591A      5.963909   592A      5.973482   593A      5.998840  
     594A      6.010851   595A      6.035903   596A      6.068192  
     597A      6.104099   598A      6.137801   599A      6.152024  
     600A      6.175243   601A      6.226350   602A      6.235347  
     603A      6.250379   604A      6.279139   605A      6.369939  
     606A      6.395870   607A      6.401607   608A      6.423495  
     609A      6.438019   610A      6.472218   611A      6.487081  
     612A      6.500655   613A      6.525934   614A      6.544187  
     615A      6.569699   616A      6.613189   617A      6.651859  
     618A      6.657873   619A      6.715292   620A      6.762048  
     621A      6.821889   622A      6.931789   623A      6.951260  
     624A      7.011219   625A      7.151130   626A      7.308946  
     627A      7.394535   628A      7.445878   629A      7.508151  
     630A      7.568352   631A      7.614182   632A      7.669577  
     633A      7.704729   634A      7.705105   635A      7.756973  
     636A      7.764975   637A      7.826243   638A      7.859444  
     639A      7.906869   640A      7.954356   641A      8.005873  
     642A      8.117359   643A      8.258164   644A      8.360138  
     645A      8.394468   646A      8.568751   647A      8.761832  
     648A      9.563108   649A      9.578297   650A      9.645396  
     651A      9.852694   652A      9.893368   653A      9.973177  
     654A     10.090716   655A     10.189088   656A     10.455077  
     657A     11.299180   658A     11.767781   659A     12.596979  
     660A     12.824475   661A     13.684475   662A     13.895427  
     663A     14.480238   664A     14.613400   665A     15.426327  
     666A     43.766773   667A     44.370273   668A     45.398944  
     669A     45.984609   670A     61.889470  

    Final Occupation by Irrep:
              A 
    DOCC [    20 ]

  @DF-RHF Final Energy:  -195.21217259950942

   => Energetics <=

    Nuclear Repulsion Energy =            170.3133902023149631
    One-Electron Energy =                -599.1297068371097794
    Two-Electron Energy =                 233.6041440352854011
    Total Energy =                       -195.2121725995094152

Computation Completed


Properties will be evaluated at   0.000000,   0.000000,   0.000000 [a0]

Properties computed using the SCF density matrix

  Nuclear Dipole Moment: [e a0]
     X:  -152.6918      Y:    21.1350      Z:   -11.9401

  Electronic Dipole Moment: [e a0]
     X:   152.5785      Y:   -21.2673      Z:    12.0008

  Dipole Moment: [e a0]
     X:    -0.1133      Y:    -0.1323      Z:     0.0607     Total:     0.1845

  Dipole Moment: [D]
     X:    -0.2880      Y:    -0.3362      Z:     0.1544     Total:     0.4688


*** tstop() called on r282 at Fri Sep 10 16:14:23 2021
Module time:
	user time   =     109.79 seconds =       1.83 minutes
	system time =       1.43 seconds =       0.02 minutes
	total time  =        112 seconds =       1.87 minutes
Total time:
	user time   =     401.25 seconds =       6.69 minutes
	system time =       7.21 seconds =       0.12 minutes
	total time  =        409 seconds =       6.82 minutes
  Constructing Basis Sets for SAPT...

   => Loading Basis Set <=

    Name: (JUN-CC-PVTZ AUX)
    Role: RIFIT
    Keyword: DF_BASIS_SAPT
    atoms 1-2, 9, 12, 16-20             entry C          line   132 file /home/r08543048/miniconda3/share/psi4/basis/jun-cc-pvtz-ri.gbs 
    atoms 3-4, 6-8, 10-11, 13-15, 21-30 entry H          line    30 file /home/r08543048/miniconda3/share/psi4/basis/jun-cc-pvtz-ri.gbs 
    atoms 5                             entry O          line   244 file /home/r08543048/miniconda3/share/psi4/basis/jun-cc-pvtz-ri.gbs 


  //>>>>>>>>>>>>>>>>>>>>>>>>>>>>>>>>>>>//
  //               SAPT0               //
  //<<<<<<<<<<<<<<<<<<<<<<<<<<<<<<<<<<<//


*** tstart() called on r282
*** at Fri Sep 10 16:14:23 2021

        SAPT0  
    Ed Hohenstein
     6 June 2009

      Orbital Information
  --------------------------
    NSO        =       670
    NMO        =       670
    NRI        =      1570
    NOCC A     =        21
    NOCC B     =        20
    FOCC A     =         0
    FOCC B     =         0
    NVIR A     =       649
    NVIR B     =       650

    Elst10,r            =    -0.009728845288 [Eh]
    Exch10              =     0.014624553266 [Eh]
    Exch10 (S^2)        =     0.014546109466 [Eh]

    Iter     Energy [mEh]          dE [mEh]         Residual      Time [s]
       1      -0.85661408       0.856614084       4.118489607             2
       2      -1.01394441       0.157330323       1.204939268             5
       3      -1.02530144       0.011357036       0.314824648             7
       4      -1.02213336      -0.003168079       0.123909216             9
       5      -1.02145241      -0.000680958       0.030821829            12
       6      -1.02165479       0.000202386       0.012018827            14
       7      -1.02172574       0.000070949       0.003106149            17
       8      -1.02170727      -0.000018473       0.001016338            19
       9      -1.02170342      -0.000003843       0.000277900            22
      10      -1.02170471       0.000001284       0.000097638            24
      11      -1.02170501       0.000000300       0.000025263            27
      12      -1.02170486      -0.000000145       0.000006119            29
      13      -1.02170486       0.000000000       0.000001873            32
      14      -1.02170487       0.000000007       0.000000473            34

    CHF Iterations converged


    Iter     Energy [mEh]          dE [mEh]         Residual      Time [s]
       1      -4.26217235       4.262172347      11.205859996             2
       2      -5.36058133       1.098408984       4.425196798             5
       3      -5.48596122       0.125379886       1.442184964             7
       4      -5.45947759      -0.026483628       0.497763700            10
       5      -5.44876571      -0.010711882       0.145428541            12
       6      -5.45149301       0.002727302       0.060142121            14
       7      -5.45220878       0.000715772       0.015987681            17
       8      -5.45189101      -0.000317766       0.003823695            19
       9      -5.45187652      -0.000014500       0.000944682            21
      10      -5.45188956       0.000013042       0.000281735            24
      11      -5.45189035       0.000000798       0.000079676            26
      12      -5.45188940      -0.000000959       0.000019233            28
      13      -5.45188937      -0.000000023       0.000005282            31
      14      -5.45188942       0.000000046       0.000001541            33
      15      -5.45188942       0.000000003       0.000000484            35

    CHF Iterations converged

    Ind20,r (A<-B)      =    -0.001021704870 [Eh]
    Ind20,r (B<-A)      =    -0.005451889421 [Eh]
    Ind20,r             =    -0.006473594292 [Eh]
    Exch-Ind20,r (A<-B) =     0.000785185274 [Eh]
    Exch-Ind20,r (B<-A) =     0.003899329967 [Eh]
    Exch-Ind20,r        =     0.004684515241 [Eh]
    Disp20              =    -0.012274465077 [Eh]
    Disp20 (SS)         =    -0.006137232539 [Eh]
    Disp20 (OS)         =    -0.006137232539 [Eh]
    Exch-Disp20         =     0.001509163680 [Eh]
    Exch-Disp20 (SS)    =     0.000980356377 [Eh]
    Exch-Disp20 (OS)    =     0.000528807303 [Eh]

    SAPT Results 
  --------------------------------------------------------------------------------------------------------
    Electrostatics                 -9.72884529 [mEh]      -6.10494259 [kcal/mol]     -25.54307978 [kJ/mol]
      Elst10,r                     -9.72884529 [mEh]      -6.10494259 [kcal/mol]     -25.54307978 [kJ/mol]

    Exchange                       14.62455327 [mEh]       9.17704572 [kcal/mol]      38.39675931 [kJ/mol]
      Exch10                       14.62455327 [mEh]       9.17704572 [kcal/mol]      38.39675931 [kJ/mol]
      Exch10(S^2)                  14.54610947 [mEh]       9.12782150 [kcal/mol]      38.19080514 [kJ/mol]

    Induction                      -3.41098467 [mEh]      -2.14042520 [kcal/mol]      -8.95553902 [kJ/mol]
      Ind20,r                      -6.47359429 [mEh]      -4.06224175 [kcal/mol]     -16.99641947 [kJ/mol]
      Exch-Ind20,r                  4.68451524 [mEh]       2.93957769 [kcal/mol]      12.29919307 [kJ/mol]
      delta HF,r (2)               -1.62190562 [mEh]      -1.01776114 [kcal/mol]      -4.25831262 [kJ/mol]

    Dispersion                    -10.76530140 [mEh]      -6.75532861 [kcal/mol]     -28.26429492 [kJ/mol]
      Disp20                      -12.27446508 [mEh]      -7.70234312 [kcal/mol]     -32.22660362 [kJ/mol]
      Exch-Disp20                   1.50916368 [mEh]       0.94701451 [kcal/mol]       3.96230870 [kJ/mol]
      Disp20 (SS)                  -6.13723254 [mEh]      -3.85117156 [kcal/mol]     -16.11330181 [kJ/mol]
      Disp20 (OS)                  -6.13723254 [mEh]      -3.85117156 [kcal/mol]     -16.11330181 [kJ/mol]
      Exch-Disp20 (SS)              0.98035638 [mEh]       0.61518291 [kcal/mol]       2.57392531 [kJ/mol]
      Exch-Disp20 (OS)              0.52880730 [mEh]       0.33183159 [kcal/mol]       1.38838338 [kJ/mol]

  Total HF                          1.48472331 [mEh]       0.93167794 [kcal/mol]       3.89814050 [kJ/mol]
  Total SAPT0                      -9.28057809 [mEh]      -5.82365067 [kcal/mol]     -24.36615442 [kJ/mol]

  Special recipe for scaled SAPT0 (see Manual):
    Electrostatics sSAPT0          -9.72884529 [mEh]      -6.10494259 [kcal/mol]     -25.54307978 [kJ/mol]
    Exchange sSAPT0                14.62455327 [mEh]       9.17704572 [kcal/mol]      38.39675931 [kJ/mol]
    Induction sSAPT0               -3.33478771 [mEh]      -2.09261088 [kcal/mol]      -8.75548394 [kJ/mol]
    Dispersion sSAPT0             -10.74075378 [mEh]      -6.73992475 [kcal/mol]     -28.19984517 [kJ/mol]
  Total sSAPT0                     -9.17983352 [mEh]      -5.76043250 [kcal/mol]     -24.10164958 [kJ/mol]
  --------------------------------------------------------------------------------------------------------

*** tstop() called on r282 at Fri Sep 10 16:20:16 2021
Module time:
	user time   =     309.03 seconds =       5.15 minutes
	system time =      40.17 seconds =       0.67 minutes
	total time  =        353 seconds =       5.88 minutes
Total time:
	user time   =     710.48 seconds =      11.84 minutes
	system time =      47.38 seconds =       0.79 minutes
	total time  =        762 seconds =      12.70 minutes

    Psi4 stopped on: Friday, 10 September 2021 04:20PM
    Psi4 wall time for execution: 0:12:42.45

*** Psi4 exiting successfully. Buy a developer a beer!
