
    -----------------------------------------------------------------------
          Psi4: An Open-Source Ab Initio Electronic Structure Package
                               Psi4 1.3.2 release

                         Git: Rev {HEAD} ecbda83 


    R. M. Parrish, L. A. Burns, D. G. A. Smith, A. C. Simmonett,
    A. E. DePrince III, E. G. Hohenstein, U. Bozkaya, A. Yu. Sokolov,
    R. Di Remigio, R. M. Richard, J. F. Gonthier, A. M. James,
    H. R. McAlexander, A. Kumar, M. Saitow, X. Wang, B. P. Pritchard,
    P. Verma, H. F. Schaefer III, K. Patkowski, R. A. King, E. F. Valeev,
    F. A. Evangelista, J. M. Turney, T. D. Crawford, and C. D. Sherrill,
    J. Chem. Theory Comput. 13(7) pp 3185--3197 (2017).
    (doi: 10.1021/acs.jctc.7b00174)


                         Additional Contributions by
    P. Kraus, H. Kruse, M. H. Lechner, M. C. Schieber, R. A. Shaw,
    A. Alenaizan, R. Galvelis, Z. L. Glick, S. Lehtola, and J. P. Misiewicz

    -----------------------------------------------------------------------


    Psi4 started on: Friday, 10 September 2021 04:27PM

    Process ID: 56851
    Host:       r282
    PSIDATADIR: /home/r08543048/miniconda3/share/psi4
    Memory:     500.0 MiB
    Threads:    1
    
  ==> Input File <==

--------------------------------------------------------------------------
# Any line starting with the # character is a comment line
#! Sample  computation

memory 22 gb

molecule Dimer {
0 1
 C  3.118867   -0.439850   -0.665950
 C  1.887749   -1.095786   -0.069298
 O  1.550623   -0.557081    1.204961
 H  2.945368    0.623014   -0.835083
 H  3.376228   -0.900583   -1.620657
 H  3.963964   -0.543748    0.012360
 H  1.039111   -1.010793   -0.757241
 H  2.067919   -2.157088    0.097282
 H  1.176609    0.321160    1.051532
 
 
 
 
 
 

    
    
 --
0 1
 C    0.321329    2.234929   -0.195344
 C   -0.834052    1.730308    0.254114
 C   -1.650284    0.700043   -0.457610
 C   -1.942395   -0.524156    0.412072
 C   -2.767683   -1.563459   -0.335381
 H    0.732471    1.918808   -1.146576
 H    0.865974    2.984179    0.362979
 H   -1.220164    2.079278    1.208292
 H   -2.603742    1.144388   -0.762420
 H   -1.136168    0.394326   -1.373338
 H   -1.001095   -0.960549    0.751226
 H   -2.476700   -0.201446    1.309321
 H   -3.720084   -1.143769   -0.662263
 H   -2.236924   -1.913457   -1.221813
 H   -2.978926   -2.429248    0.291095




units angstrom

no_reorient
symmetry c1
}

set globals{
  basis jun-cc-pvtz
}

energy('sapt0')


--------------------------------------------------------------------------

  Memory set to  20.489 GiB by Python driver.

  //>>>>>>>>>>>>>>>>>>>>>>>>>>>>>>>>>>>//
  //              Dimer HF             //
  //<<<<<<<<<<<<<<<<<<<<<<<<<<<<<<<<<<<//


*** tstart() called on r282
*** at Fri Sep 10 16:27:48 2021

   => Loading Basis Set <=

    Name: JUN-CC-PVTZ
    Role: ORBITAL
    Keyword: BASIS
    atoms 1-2, 10-14 entry C          line   217 file /home/r08543048/miniconda3/share/psi4/basis/jun-cc-pvtz.gbs 
    atoms 3          entry O          line   305 file /home/r08543048/miniconda3/share/psi4/basis/jun-cc-pvtz.gbs 
    atoms 4-9, 15-24 entry H          line    36 file /home/r08543048/miniconda3/share/psi4/basis/jun-cc-pvtz.gbs 


         ---------------------------------------------------------
                                   SCF
               by Justin Turney, Rob Parrish, Andy Simmonett
                          and Daniel G. A. Smith
                              RHF Reference
                        1 Threads,  20980 MiB Core
         ---------------------------------------------------------

  ==> Geometry <==

    Molecular point group: c1
    Full point group: C1

    Geometry (in Angstrom), charge = 0, multiplicity = 1:

       Center              X                  Y                   Z               Mass       
    ------------   -----------------  -----------------  -----------------  -----------------
         C            3.108628831895    -0.455216044912    -0.694053610224    12.000000000000
         C            1.877510831895    -1.111152044912    -0.097401610224    12.000000000000
         O            1.540384831895    -0.572447044912     1.176857389776    15.994914619570
         H            2.935129831895     0.607647955088    -0.863186610224     1.007825032230
         H            3.365989831895    -0.915949044912    -1.648760610224     1.007825032230
         H            3.953725831895    -0.559114044912    -0.015743610224     1.007825032230
         H            1.028872831895    -1.026159044912    -0.785344610224     1.007825032230
         H            2.057680831895    -2.172454044912     0.069178389776     1.007825032230
         H            1.166370831895     0.305793955088     1.023428389776     1.007825032230
         C            0.311090831895     2.219562955088    -0.223447610224    12.000000000000
         C           -0.844290168105     1.714941955088     0.226010389776    12.000000000000
         C           -1.660522168105     0.684676955088    -0.485713610224    12.000000000000
         C           -1.952633168105    -0.539522044912     0.383968389776    12.000000000000
         C           -2.777921168105    -1.578825044912    -0.363484610224    12.000000000000
         H            0.722232831895     1.903441955088    -1.174679610224     1.007825032230
         H            0.855735831895     2.968812955088     0.334875389776     1.007825032230
         H           -1.230402168105     2.063911955088     1.180188389776     1.007825032230
         H           -2.613980168105     1.129021955088    -0.790523610224     1.007825032230
         H           -1.146406168105     0.378959955088    -1.401441610224     1.007825032230
         H           -1.011333168105    -0.975915044912     0.723122389776     1.007825032230
         H           -2.486938168105    -0.216812044912     1.281217389776     1.007825032230
         H           -3.730322168105    -1.159135044912    -0.690366610224     1.007825032230
         H           -2.247162168105    -1.928823044912    -1.249916610224     1.007825032230
         H           -2.989164168105    -2.444614044912     0.262991389776     1.007825032230

  Running in c1 symmetry.

  Rotational constants: A =      0.06908  B =      0.03262  C =      0.02553 [cm^-1]
  Rotational constants: A =   2071.00797  B =    977.79267  C =    765.40897 [MHz]
  Nuclear repulsion =  383.748900686960667

  Charge       = 0
  Multiplicity = 1
  Electrons    = 66
  Nalpha       = 33
  Nbeta        = 33

  ==> Algorithm <==

  SCF Algorithm Type is DF.
  DIIS enabled.
  MOM disabled.
  Fractional occupation disabled.
  Guess Type is SAD.
  Energy threshold   = 1.00e-08
  Density threshold  = 1.00e-08
  Integral threshold = 0.00e+00

  ==> Primary Basis <==

  Basis Set: JUN-CC-PVTZ
    Blend: JUN-CC-PVTZ
    Number of shells: 200
    Number of basis function: 536
    Number of Cartesian functions: 600
    Spherical Harmonics?: true
    Max angular momentum: 3

   => Loading Basis Set <=

    Name: (JUN-CC-PVTZ AUX)
    Role: JKFIT
    Keyword: DF_BASIS_SCF
    atoms 1-2, 10-14 entry C          line   152 file /home/r08543048/miniconda3/share/psi4/basis/jun-cc-pvtz-jkfit.gbs 
    atoms 3          entry O          line   272 file /home/r08543048/miniconda3/share/psi4/basis/jun-cc-pvtz-jkfit.gbs 
    atoms 4-9, 15-24 entry H          line    70 file /home/r08543048/miniconda3/share/psi4/basis/jun-cc-pvtz-jkfit.gbs 

  ==> Pre-Iterations <==

   -------------------------------------------------------
    Irrep   Nso     Nmo     Nalpha   Nbeta   Ndocc  Nsocc
   -------------------------------------------------------
     A        536     536       0       0       0       0
   -------------------------------------------------------
    Total     536     536      33      33      33       0
   -------------------------------------------------------

  ==> Integral Setup <==

  ==> DiskDFJK: Density-Fitted J/K Matrices <==

    J tasked:                  Yes
    K tasked:                  Yes
    wK tasked:                  No
    OpenMP threads:              1
    Integrals threads:           1
    Memory [MiB]:            15735
    Algorithm:                Core
    Integral Cache:           SAVE
    Schwarz Cutoff:          1E-12
    Fitting Condition:       1E-10

   => Auxiliary Basis Set <=

  Basis Set: (JUN-CC-PVTZ AUX)
    Blend: JUN-CC-PVTZ-JKFIT
    Number of shells: 392
    Number of basis function: 1240
    Number of Cartesian functions: 1488
    Spherical Harmonics?: true
    Max angular momentum: 4

  Minimum eigenvalue in the overlap matrix is 2.6525874173E-05.
  Using Symmetric Orthogonalization.

  SCF Guess: Superposition of Atomic Densities via on-the-fly atomic UHF.

  ==> Iterations <==

                           Total Energy        Delta E     RMS |[F,P]|

   @DF-RHF iter SAD:  -348.07039781761023   -3.48070e+02   0.00000e+00 
   @DF-RHF iter   1:  -349.01995659976933   -9.49559e-01   1.41039e-03 DIIS
   @DF-RHF iter   2:  -349.29516303407212   -2.75206e-01   6.60388e-04 DIIS
   @DF-RHF iter   3:  -349.35104992919429   -5.58869e-02   1.30865e-04 DIIS
   @DF-RHF iter   4:  -349.35490298893393   -3.85306e-03   5.00115e-05 DIIS
   @DF-RHF iter   5:  -349.35529504822637   -3.92059e-04   9.24489e-06 DIIS
   @DF-RHF iter   6:  -349.35531630664138   -2.12584e-05   2.30959e-06 DIIS
   @DF-RHF iter   7:  -349.35531773873362   -1.43209e-06   6.55936e-07 DIIS
   @DF-RHF iter   8:  -349.35531786719338   -1.28460e-07   2.08669e-07 DIIS
   @DF-RHF iter   9:  -349.35531788264495   -1.54516e-08   6.35558e-08 DIIS
   @DF-RHF iter  10:  -349.35531788439874   -1.75379e-09   2.95832e-08 DIIS
   @DF-RHF iter  11:  -349.35531788463373   -2.34991e-10   7.38155e-09 DIIS
  Energy and wave function converged.


  ==> Post-Iterations <==

    Orbital Energies [Eh]
    ---------------------

    Doubly Occupied:                                                      

       1A    -20.542109     2A    -11.268124     3A    -11.244973  
       4A    -11.229111     5A    -11.229043     6A    -11.219426  
       7A    -11.212793     8A    -11.211201     9A     -1.345324  
      10A     -1.097591    11A     -1.029722    12A     -1.007034  
      13A     -0.929443    14A     -0.839184    15A     -0.815341  
      16A     -0.768385    17A     -0.685158    18A     -0.656650  
      19A     -0.624746    20A     -0.615811    21A     -0.600425  
      22A     -0.589819    23A     -0.571153    24A     -0.545977  
      25A     -0.540446    26A     -0.520498    27A     -0.516227  
      28A     -0.486675    29A     -0.479701    30A     -0.474091  
      31A     -0.473194    32A     -0.434263    33A     -0.369716  

    Virtual:                                                              

      34A      0.047066    35A      0.049569    36A      0.055201  
      37A      0.060932    38A      0.070090    39A      0.071460  
      40A      0.080469    41A      0.086564    42A      0.093609  
      43A      0.099677    44A      0.102892    45A      0.112311  
      46A      0.114329    47A      0.116021    48A      0.128399  
      49A      0.135184    50A      0.141467    51A      0.142888  
      52A      0.150023    53A      0.154976    54A      0.164036  
      55A      0.176498    56A      0.189127    57A      0.192778  
      58A      0.199735    59A      0.202454    60A      0.206954  
      61A      0.208422    62A      0.219724    63A      0.232946  
      64A      0.247407    65A      0.255644    66A      0.264467  
      67A      0.270748    68A      0.275054    69A      0.277106  
      70A      0.288375    71A      0.289471    72A      0.295048  
      73A      0.307302    74A      0.308764    75A      0.312913  
      76A      0.315289    77A      0.317770    78A      0.323973  
      79A      0.329847    80A      0.339039    81A      0.346967  
      82A      0.351046    83A      0.354062    84A      0.357222  
      85A      0.360098    86A      0.367838    87A      0.374485  
      88A      0.384397    89A      0.389231    90A      0.392846  
      91A      0.401691    92A      0.406502    93A      0.420571  
      94A      0.422893    95A      0.427747    96A      0.430924  
      97A      0.442750    98A      0.450988    99A      0.453370  
     100A      0.458908   101A      0.467383   102A      0.484226  
     103A      0.488386   104A      0.490508   105A      0.502688  
     106A      0.516552   107A      0.520913   108A      0.525058  
     109A      0.530737   110A      0.532368   111A      0.543406  
     112A      0.547487   113A      0.556412   114A      0.565579  
     115A      0.571544   116A      0.582658   117A      0.586453  
     118A      0.594498   119A      0.601618   120A      0.609377  
     121A      0.618276   122A      0.639228   123A      0.647409  
     124A      0.664485   125A      0.671919   126A      0.678347  
     127A      0.697685   128A      0.699831   129A      0.707724  
     130A      0.715004   131A      0.729367   132A      0.732070  
     133A      0.737729   134A      0.756473   135A      0.771260  
     136A      0.779341   137A      0.789489   138A      0.792198  
     139A      0.797038   140A      0.807203   141A      0.812700  
     142A      0.823059   143A      0.829382   144A      0.836931  
     145A      0.838270   146A      0.853024   147A      0.854047  
     148A      0.862024   149A      0.866997   150A      0.871430  
     151A      0.886389   152A      0.892338   153A      0.899968  
     154A      0.909448   155A      0.912646   156A      0.914644  
     157A      0.924113   158A      0.929171   159A      0.943408  
     160A      0.964038   161A      0.973857   162A      0.980663  
     163A      0.992410   164A      1.003816   165A      1.013848  
     166A      1.017189   167A      1.029931   168A      1.050569  
     169A      1.057542   170A      1.072272   171A      1.077572  
     172A      1.086103   173A      1.094823   174A      1.114588  
     175A      1.134252   176A      1.140844   177A      1.149563  
     178A      1.161115   179A      1.165140   180A      1.188096  
     181A      1.214256   182A      1.218532   183A      1.221348  
     184A      1.225342   185A      1.258037   186A      1.260025  
     187A      1.271267   188A      1.279959   189A      1.305081  
     190A      1.311179   191A      1.328668   192A      1.337500  
     193A      1.346281   194A      1.352781   195A      1.366497  
     196A      1.371257   197A      1.378249   198A      1.385882  
     199A      1.391064   200A      1.398014   201A      1.408557  
     202A      1.426163   203A      1.441909   204A      1.443303  
     205A      1.449143   206A      1.460117   207A      1.475755  
     208A      1.482459   209A      1.499421   210A      1.505720  
     211A      1.523556   212A      1.526439   213A      1.538243  
     214A      1.539676   215A      1.547505   216A      1.564425  
     217A      1.574513   218A      1.581257   219A      1.582755  
     220A      1.595383   221A      1.599926   222A      1.610529  
     223A      1.618574   224A      1.637208   225A      1.646457  
     226A      1.667026   227A      1.672485   228A      1.678479  
     229A      1.692989   230A      1.698401   231A      1.715950  
     232A      1.735860   233A      1.743228   234A      1.746213  
     235A      1.752211   236A      1.773593   237A      1.784637  
     238A      1.801042   239A      1.812087   240A      1.830995  
     241A      1.847540   242A      1.861491   243A      1.866466  
     244A      1.880387   245A      1.894128   246A      1.905261  
     247A      1.928935   248A      1.942450   249A      1.945060  
     250A      1.965706   251A      1.973185   252A      1.986653  
     253A      2.023865   254A      2.050588   255A      2.086154  
     256A      2.132607   257A      2.145919   258A      2.209615  
     259A      2.279790   260A      2.398530   261A      2.426797  
     262A      2.464273   263A      2.579316   264A      2.612767  
     265A      2.735743   266A      2.745209   267A      2.763906  
     268A      2.789025   269A      2.803821   270A      2.822962  
     271A      2.829585   272A      2.837378   273A      2.841131  
     274A      2.846401   275A      2.853165   276A      2.875657  
     277A      2.877224   278A      2.890966   279A      2.906985  
     280A      2.925496   281A      2.940497   282A      2.960375  
     283A      2.968886   284A      2.977705   285A      3.001859  
     286A      3.008322   287A      3.026386   288A      3.037096  
     289A      3.054194   290A      3.094142   291A      3.100832  
     292A      3.109272   293A      3.124304   294A      3.128760  
     295A      3.137808   296A      3.148382   297A      3.149733  
     298A      3.174963   299A      3.179985   300A      3.193016  
     301A      3.206534   302A      3.209174   303A      3.227539  
     304A      3.236501   305A      3.245987   306A      3.256933  
     307A      3.277814   308A      3.288573   309A      3.300755  
     310A      3.306081   311A      3.317875   312A      3.323016  
     313A      3.337998   314A      3.343754   315A      3.361088  
     316A      3.366863   317A      3.378911   318A      3.381992  
     319A      3.392476   320A      3.403721   321A      3.414316  
     322A      3.415899   323A      3.439361   324A      3.451826  
     325A      3.463089   326A      3.467351   327A      3.479709  
     328A      3.487281   329A      3.490024   330A      3.497983  
     331A      3.506105   332A      3.514641   333A      3.517025  
     334A      3.526175   335A      3.537035   336A      3.543165  
     337A      3.554894   338A      3.562918   339A      3.566841  
     340A      3.570987   341A      3.583169   342A      3.593525  
     343A      3.599971   344A      3.611327   345A      3.627943  
     346A      3.644623   347A      3.647529   348A      3.664372  
     349A      3.674038   350A      3.682530   351A      3.694473  
     352A      3.719801   353A      3.728532   354A      3.742318  
     355A      3.758661   356A      3.768376   357A      3.775761  
     358A      3.795989   359A      3.811749   360A      3.817126  
     361A      3.828774   362A      3.837968   363A      3.850047  
     364A      3.855411   365A      3.865457   366A      3.901450  
     367A      3.914064   368A      3.923796   369A      3.934886  
     370A      3.950115   371A      3.966478   372A      3.973039  
     373A      3.980515   374A      3.986732   375A      4.008827  
     376A      4.022371   377A      4.025696   378A      4.056699  
     379A      4.062943   380A      4.081798   381A      4.108001  
     382A      4.118437   383A      4.125517   384A      4.154060  
     385A      4.176840   386A      4.187275   387A      4.198195  
     388A      4.203700   389A      4.228848   390A      4.234414  
     391A      4.238917   392A      4.261305   393A      4.270093  
     394A      4.271555   395A      4.278974   396A      4.299534  
     397A      4.313682   398A      4.322547   399A      4.333274  
     400A      4.342726   401A      4.354377   402A      4.367513  
     403A      4.373098   404A      4.376968   405A      4.396489  
     406A      4.398241   407A      4.411845   408A      4.418848  
     409A      4.432667   410A      4.436994   411A      4.443862  
     412A      4.446471   413A      4.459395   414A      4.471690  
     415A      4.488678   416A      4.490107   417A      4.492794  
     418A      4.501484   419A      4.505465   420A      4.518460  
     421A      4.536958   422A      4.545859   423A      4.567915  
     424A      4.577990   425A      4.583489   426A      4.612605  
     427A      4.619202   428A      4.630170   429A      4.643698  
     430A      4.668678   431A      4.676287   432A      4.690306  
     433A      4.708275   434A      4.715475   435A      4.735845  
     436A      4.755201   437A      4.770673   438A      4.795415  
     439A      4.802951   440A      4.806268   441A      4.839729  
     442A      4.853791   443A      4.867067   444A      4.880411  
     445A      4.885118   446A      4.924058   447A      4.948964  
     448A      4.959495   449A      4.999158   450A      5.023041  
     451A      5.032199   452A      5.038270   453A      5.068468  
     454A      5.108710   455A      5.144602   456A      5.162588  
     457A      5.183143   458A      5.189413   459A      5.209808  
     460A      5.218944   461A      5.229644   462A      5.243187  
     463A      5.252605   464A      5.278427   465A      5.283083  
     466A      5.285593   467A      5.290884   468A      5.295304  
     469A      5.313853   470A      5.340346   471A      5.369574  
     472A      5.384178   473A      5.407491   474A      5.429624  
     475A      5.436149   476A      5.459440   477A      5.473525  
     478A      5.475921   479A      5.514167   480A      5.554583  
     481A      5.575197   482A      5.579667   483A      5.608596  
     484A      5.617370   485A      5.645138   486A      5.652397  
     487A      5.715168   488A      5.742062   489A      5.749441  
     490A      5.754886   491A      5.763948   492A      5.772682  
     493A      5.796694   494A      5.812996   495A      5.853328  
     496A      5.867878   497A      5.895302   498A      5.923293  
     499A      5.930853   500A      5.947789   501A      5.955749  
     502A      5.995554   503A      6.011812   504A      6.026086  
     505A      6.129052   506A      6.132594   507A      6.220280  
     508A      6.304280   509A      6.396992   510A      6.411972  
     511A      6.483854   512A      6.502802   513A      6.515304  
     514A      6.522480   515A      6.533280   516A      6.545501  
     517A      6.595997   518A      6.635202   519A      6.703445  
     520A      6.939749   521A      7.081493   522A      7.249662  
     523A      7.342180   524A      7.427828   525A      7.538616  
     526A      7.659268   527A      7.885124   528A      8.151444  
     529A     12.475452   530A     13.779279   531A     13.810188  
     532A     14.003194   533A     14.449199   534A     14.545561  
     535A     14.657560   536A     15.397247  

    Final Occupation by Irrep:
              A 
    DOCC [    33 ]

  @DF-RHF Final Energy:  -349.35531788463373

   => Energetics <=

    Nuclear Repulsion Energy =            383.7489006869606669
    One-Electron Energy =               -1233.8617222776742892
    Two-Electron Energy =                 500.7575037060798309
    Total Energy =                       -349.3553178846337346

Computation Completed


Properties will be evaluated at   0.000000,   0.000000,   0.000000 [a0]

Properties computed using the SCF density matrix

  Nuclear Dipole Moment: [e a0]
     X:    -1.2769      Y:    -1.9165      Z:    -3.5051

  Electronic Dipole Moment: [e a0]
     X:     0.9593      Y:     2.1675      Z:     2.9128

  Dipole Moment: [e a0]
     X:    -0.3176      Y:     0.2510      Z:    -0.5924     Total:     0.7175

  Dipole Moment: [D]
     X:    -0.8074      Y:     0.6381      Z:    -1.5057     Total:     1.8237


*** tstop() called on r282 at Fri Sep 10 16:29:04 2021
Module time:
	user time   =      74.21 seconds =       1.24 minutes
	system time =       1.74 seconds =       0.03 minutes
	total time  =         76 seconds =       1.27 minutes
Total time:
	user time   =      74.21 seconds =       1.24 minutes
	system time =       1.74 seconds =       0.03 minutes
	total time  =         76 seconds =       1.27 minutes

  //>>>>>>>>>>>>>>>>>>>>>>>>>>>>>>>>>>>//
  //            Monomer A HF           //
  //<<<<<<<<<<<<<<<<<<<<<<<<<<<<<<<<<<<//


*** tstart() called on r282
*** at Fri Sep 10 16:29:04 2021

   => Loading Basis Set <=

    Name: JUN-CC-PVTZ
    Role: ORBITAL
    Keyword: BASIS
    atoms 1-2, 10-14 entry C          line   217 file /home/r08543048/miniconda3/share/psi4/basis/jun-cc-pvtz.gbs 
    atoms 3          entry O          line   305 file /home/r08543048/miniconda3/share/psi4/basis/jun-cc-pvtz.gbs 
    atoms 4-9, 15-24 entry H          line    36 file /home/r08543048/miniconda3/share/psi4/basis/jun-cc-pvtz.gbs 


         ---------------------------------------------------------
                                   SCF
               by Justin Turney, Rob Parrish, Andy Simmonett
                          and Daniel G. A. Smith
                              RHF Reference
                        1 Threads,  20980 MiB Core
         ---------------------------------------------------------

  ==> Geometry <==

    Molecular point group: c1
    Full point group: C1

    Geometry (in Angstrom), charge = 0, multiplicity = 1:

       Center              X                  Y                   Z               Mass       
    ------------   -----------------  -----------------  -----------------  -----------------
         C            3.108628831895    -0.455216044912    -0.694053610224    12.000000000000
         C            1.877510831895    -1.111152044912    -0.097401610224    12.000000000000
         O            1.540384831895    -0.572447044912     1.176857389776    15.994914619570
         H            2.935129831895     0.607647955088    -0.863186610224     1.007825032230
         H            3.365989831895    -0.915949044912    -1.648760610224     1.007825032230
         H            3.953725831895    -0.559114044912    -0.015743610224     1.007825032230
         H            1.028872831895    -1.026159044912    -0.785344610224     1.007825032230
         H            2.057680831895    -2.172454044912     0.069178389776     1.007825032230
         H            1.166370831895     0.305793955088     1.023428389776     1.007825032230
      Gh(C)           0.311090831895     2.219562955088    -0.223447610224    12.000000000000
      Gh(C)          -0.844290168105     1.714941955088     0.226010389776    12.000000000000
      Gh(C)          -1.660522168105     0.684676955088    -0.485713610224    12.000000000000
      Gh(C)          -1.952633168105    -0.539522044912     0.383968389776    12.000000000000
      Gh(C)          -2.777921168105    -1.578825044912    -0.363484610224    12.000000000000
      Gh(H)           0.722232831895     1.903441955088    -1.174679610224     1.007825032230
      Gh(H)           0.855735831895     2.968812955088     0.334875389776     1.007825032230
      Gh(H)          -1.230402168105     2.063911955088     1.180188389776     1.007825032230
      Gh(H)          -2.613980168105     1.129021955088    -0.790523610224     1.007825032230
      Gh(H)          -1.146406168105     0.378959955088    -1.401441610224     1.007825032230
      Gh(H)          -1.011333168105    -0.975915044912     0.723122389776     1.007825032230
      Gh(H)          -2.486938168105    -0.216812044912     1.281217389776     1.007825032230
      Gh(H)          -3.730322168105    -1.159135044912    -0.690366610224     1.007825032230
      Gh(H)          -2.247162168105    -1.928823044912    -1.249916610224     1.007825032230
      Gh(H)          -2.989164168105    -2.444614044912     0.262991389776     1.007825032230

  Running in c1 symmetry.

  Rotational constants: A =      0.06908  B =      0.03262  C =      0.02553 [cm^-1]
  Rotational constants: A =   2071.00797  B =    977.79267  C =    765.40897 [MHz]
  Nuclear repulsion =   81.736029736963047

  Charge       = 0
  Multiplicity = 1
  Electrons    = 26
  Nalpha       = 13
  Nbeta        = 13

  ==> Algorithm <==

  SCF Algorithm Type is DF.
  DIIS enabled.
  MOM disabled.
  Fractional occupation disabled.
  Guess Type is SAD.
  Energy threshold   = 1.00e-08
  Density threshold  = 1.00e-08
  Integral threshold = 0.00e+00

  ==> Primary Basis <==

  Basis Set: JUN-CC-PVTZ
    Blend: JUN-CC-PVTZ
    Number of shells: 200
    Number of basis function: 536
    Number of Cartesian functions: 600
    Spherical Harmonics?: true
    Max angular momentum: 3

   => Loading Basis Set <=

    Name: (JUN-CC-PVTZ AUX)
    Role: JKFIT
    Keyword: DF_BASIS_SCF
    atoms 1-2, 10-14 entry C          line   152 file /home/r08543048/miniconda3/share/psi4/basis/jun-cc-pvtz-jkfit.gbs 
    atoms 3          entry O          line   272 file /home/r08543048/miniconda3/share/psi4/basis/jun-cc-pvtz-jkfit.gbs 
    atoms 4-9, 15-24 entry H          line    70 file /home/r08543048/miniconda3/share/psi4/basis/jun-cc-pvtz-jkfit.gbs 

  ==> Pre-Iterations <==

   -------------------------------------------------------
    Irrep   Nso     Nmo     Nalpha   Nbeta   Ndocc  Nsocc
   -------------------------------------------------------
     A        536     536       0       0       0       0
   -------------------------------------------------------
    Total     536     536      13      13      13       0
   -------------------------------------------------------

  ==> Integral Setup <==

  ==> DiskDFJK: Density-Fitted J/K Matrices <==

    J tasked:                  Yes
    K tasked:                  Yes
    wK tasked:                  No
    OpenMP threads:              1
    Integrals threads:           1
    Memory [MiB]:            15735
    Algorithm:                Core
    Integral Cache:           LOAD
    Schwarz Cutoff:          1E-12
    Fitting Condition:       1E-10

   => Auxiliary Basis Set <=

  Basis Set: (JUN-CC-PVTZ AUX)
    Blend: JUN-CC-PVTZ-JKFIT
    Number of shells: 392
    Number of basis function: 1240
    Number of Cartesian functions: 1488
    Spherical Harmonics?: true
    Max angular momentum: 4

  Minimum eigenvalue in the overlap matrix is 2.6525874173E-05.
  Using Symmetric Orthogonalization.

  SCF Guess: Superposition of Atomic Densities via on-the-fly atomic UHF.

  ==> Iterations <==

                           Total Energy        Delta E     RMS |[F,P]|

   @DF-RHF iter SAD:  -153.43079879644415   -1.53431e+02   0.00000e+00 
   @DF-RHF iter   1:  -154.01122738145989   -5.80429e-01   9.38854e-04 DIIS
   @DF-RHF iter   2:  -154.11565795660704   -1.04431e-01   5.02239e-04 DIIS
   @DF-RHF iter   3:  -154.14237602581724   -2.67181e-02   8.62009e-05 DIIS
   @DF-RHF iter   4:  -154.14391878531515   -1.54276e-03   3.28083e-05 DIIS
   @DF-RHF iter   5:  -154.14410494160470   -1.86156e-04   6.21952e-06 DIIS
   @DF-RHF iter   6:  -154.14411491935599   -9.97775e-06   1.41024e-06 DIIS
   @DF-RHF iter   7:  -154.14411561036474   -6.91009e-07   4.01602e-07 DIIS
   @DF-RHF iter   8:  -154.14411566171228   -5.13475e-08   1.29117e-07 DIIS
   @DF-RHF iter   9:  -154.14411566762729   -5.91501e-09   3.34866e-08 DIIS
   @DF-RHF iter  10:  -154.14411566806817   -4.40878e-10   6.96966e-09 DIIS
  Energy and wave function converged.


  ==> Post-Iterations <==

    Orbital Energies [Eh]
    ---------------------

    Doubly Occupied:                                                      

       1A    -20.556355     2A    -11.274369     3A    -11.216115  
       4A     -1.356289     5A     -1.012722     6A     -0.845295  
       7A     -0.690629     8A     -0.624113     9A     -0.598025  
      10A     -0.549127    11A     -0.525621    12A     -0.480895  
      13A     -0.444005  

    Virtual:                                                              

      14A      0.025723    15A      0.038361    16A      0.049424  
      17A      0.055773    18A      0.065223    19A      0.066381  
      20A      0.076764    21A      0.083004    22A      0.085232  
      23A      0.097005    24A      0.100528    25A      0.102708  
      26A      0.110783    27A      0.112965    28A      0.116329  
      29A      0.127192    30A      0.135782    31A      0.138164  
      32A      0.143356    33A      0.150122    34A      0.153148  
      35A      0.159838    36A      0.165302    37A      0.167088  
      38A      0.176387    39A      0.187433    40A      0.197448  
      41A      0.201650    42A      0.216221    43A      0.226128  
      44A      0.241145    45A      0.245905    46A      0.261017  
      47A      0.268293    48A      0.270981    49A      0.275898  
      50A      0.286331    51A      0.288185    52A      0.291473  
      53A      0.301456    54A      0.305198    55A      0.312233  
      56A      0.315926    57A      0.317570    58A      0.324161  
      59A      0.330059    60A      0.337401    61A      0.343791  
      62A      0.347886    63A      0.356166    64A      0.367443  
      65A      0.368183    66A      0.376217    67A      0.382595  
      68A      0.385471    69A      0.395731    70A      0.398968  
      71A      0.402679    72A      0.406522    73A      0.416795  
      74A      0.425388    75A      0.436986    76A      0.444034  
      77A      0.444955    78A      0.451306    79A      0.458270  
      80A      0.474257    81A      0.481976    82A      0.482971  
      83A      0.496288    84A      0.506323    85A      0.510242  
      86A      0.516198    87A      0.518592    88A      0.531132  
      89A      0.532671    90A      0.542764    91A      0.554196  
      92A      0.561220    93A      0.564142    94A      0.575081  
      95A      0.586082    96A      0.591872    97A      0.600024  
      98A      0.608241    99A      0.615380   100A      0.622847  
     101A      0.631304   102A      0.633120   103A      0.635653  
     104A      0.655818   105A      0.660556   106A      0.665214  
     107A      0.678153   108A      0.684412   109A      0.696577  
     110A      0.701430   111A      0.710032   112A      0.716224  
     113A      0.726541   114A      0.744270   115A      0.747332  
     116A      0.756471   117A      0.759201   118A      0.775166  
     119A      0.790863   120A      0.797293   121A      0.804306  
     122A      0.807468   123A      0.831582   124A      0.840195  
     125A      0.846734   126A      0.852900   127A      0.875211  
     128A      0.887499   129A      0.891836   130A      0.895767  
     131A      0.927318   132A      0.931996   133A      0.940451  
     134A      0.963857   135A      0.990204   136A      1.036261  
     137A      1.043343   138A      1.055363   139A      1.059587  
     140A      1.077509   141A      1.098610   142A      1.103201  
     143A      1.115761   144A      1.116801   145A      1.126226  
     146A      1.132138   147A      1.147886   148A      1.160756  
     149A      1.169123   150A      1.177314   151A      1.200742  
     152A      1.204745   153A      1.214361   154A      1.222035  
     155A      1.231706   156A      1.248505   157A      1.250871  
     158A      1.263668   159A      1.268246   160A      1.272320  
     161A      1.282151   162A      1.299734   163A      1.302159  
     164A      1.314244   165A      1.321543   166A      1.330761  
     167A      1.337659   168A      1.349540   169A      1.354618  
     170A      1.365634   171A      1.377282   172A      1.386147  
     173A      1.386812   174A      1.402536   175A      1.404203  
     176A      1.414533   177A      1.422452   178A      1.427733  
     179A      1.433712   180A      1.445329   181A      1.450244  
     182A      1.454297   183A      1.470351   184A      1.479879  
     185A      1.486523   186A      1.494456   187A      1.510427  
     188A      1.515323   189A      1.518054   190A      1.538776  
     191A      1.542310   192A      1.545096   193A      1.549650  
     194A      1.555437   195A      1.569067   196A      1.572640  
     197A      1.585219   198A      1.590270   199A      1.604327  
     200A      1.618628   201A      1.620909   202A      1.627359  
     203A      1.639533   204A      1.649062   205A      1.660832  
     206A      1.678235   207A      1.685676   208A      1.704419  
     209A      1.715757   210A      1.723437   211A      1.726507  
     212A      1.755176   213A      1.768219   214A      1.782789  
     215A      1.794383   216A      1.800599   217A      1.817778  
     218A      1.834588   219A      1.843708   220A      1.857553  
     221A      1.872948   222A      1.887798   223A      1.912423  
     224A      1.930194   225A      1.940620   226A      1.957528  
     227A      1.965005   228A      1.990033   229A      2.011719  
     230A      2.032097   231A      2.063586   232A      2.092114  
     233A      2.114705   234A      2.147520   235A      2.169239  
     236A      2.192732   237A      2.215139   238A      2.229821  
     239A      2.252039   240A      2.271089   241A      2.340872  
     242A      2.351099   243A      2.386405   244A      2.404522  
     245A      2.422024   246A      2.429883   247A      2.438995  
     248A      2.465815   249A      2.476434   250A      2.493710  
     251A      2.538185   252A      2.558569   253A      2.596626  
     254A      2.605433   255A      2.631806   256A      2.656728  
     257A      2.684205   258A      2.759996   259A      2.811443  
     260A      2.840489   261A      2.851642   262A      2.894581  
     263A      2.904535   264A      2.938778   265A      2.960194  
     266A      2.996104   267A      3.052616   268A      3.121983  
     269A      3.138083   270A      3.216755   271A      3.232700  
     272A      3.278222   273A      3.292037   274A      3.330570  
     275A      3.351532   276A      3.373122   277A      3.426116  
     278A      3.431216   279A      3.450479   280A      3.463086  
     281A      3.476743   282A      3.481487   283A      3.497536  
     284A      3.507295   285A      3.525539   286A      3.542588  
     287A      3.548995   288A      3.556279   289A      3.565110  
     290A      3.576243   291A      3.584669   292A      3.595603  
     293A      3.605579   294A      3.611400   295A      3.623899  
     296A      3.646111   297A      3.654093   298A      3.667601  
     299A      3.676220   300A      3.690562   301A      3.708616  
     302A      3.720467   303A      3.734885   304A      3.745055  
     305A      3.764308   306A      3.768326   307A      3.782047  
     308A      3.797138   309A      3.811042   310A      3.820764  
     311A      3.832607   312A      3.837566   313A      3.845080  
     314A      3.859959   315A      3.877272   316A      3.883584  
     317A      3.891477   318A      3.897865   319A      3.914507  
     320A      3.917547   321A      3.945222   322A      3.950348  
     323A      3.963874   324A      3.972842   325A      4.000908  
     326A      4.027018   327A      4.033846   328A      4.043576  
     329A      4.065365   330A      4.078820   331A      4.084229  
     332A      4.095277   333A      4.100180   334A      4.116000  
     335A      4.142820   336A      4.162276   337A      4.171424  
     338A      4.181138   339A      4.183197   340A      4.200902  
     341A      4.216452   342A      4.226125   343A      4.232546  
     344A      4.262265   345A      4.265680   346A      4.271656  
     347A      4.274983   348A      4.292389   349A      4.310495  
     350A      4.330404   351A      4.334805   352A      4.339793  
     353A      4.359208   354A      4.381950   355A      4.393974  
     356A      4.411134   357A      4.418172   358A      4.428796  
     359A      4.441038   360A      4.445232   361A      4.446993  
     362A      4.464813   363A      4.473022   364A      4.482392  
     365A      4.494113   366A      4.505896   367A      4.513639  
     368A      4.528315   369A      4.532782   370A      4.542868  
     371A      4.561355   372A      4.571558   373A      4.592232  
     374A      4.597337   375A      4.606349   376A      4.611981  
     377A      4.624126   378A      4.633698   379A      4.643521  
     380A      4.644483   381A      4.656865   382A      4.670968  
     383A      4.672916   384A      4.689875   385A      4.701462  
     386A      4.714510   387A      4.730752   388A      4.740542  
     389A      4.747601   390A      4.762331   391A      4.775512  
     392A      4.793026   393A      4.797037   394A      4.806429  
     395A      4.816834   396A      4.820344   397A      4.835634  
     398A      4.843218   399A      4.850489   400A      4.863061  
     401A      4.868476   402A      4.882378   403A      4.887659  
     404A      4.902891   405A      4.905614   406A      4.919181  
     407A      4.928108   408A      4.942849   409A      4.951566  
     410A      4.953544   411A      4.966212   412A      4.998758  
     413A      5.003108   414A      5.009192   415A      5.015228  
     416A      5.025694   417A      5.044689   418A      5.060857  
     419A      5.070633   420A      5.099749   421A      5.114952  
     422A      5.132938   423A      5.142712   424A      5.161102  
     425A      5.167536   426A      5.182883   427A      5.194869  
     428A      5.214705   429A      5.224768   430A      5.241661  
     431A      5.244296   432A      5.276550   433A      5.288175  
     434A      5.289010   435A      5.312150   436A      5.329942  
     437A      5.343837   438A      5.384498   439A      5.401823  
     440A      5.423954   441A      5.448815   442A      5.458348  
     443A      5.471427   444A      5.488796   445A      5.543800  
     446A      5.570039   447A      5.574820   448A      5.602581  
     449A      5.617399   450A      5.651925   451A      5.663459  
     452A      5.679883   453A      5.685857   454A      5.723767  
     455A      5.737561   456A      5.745874   457A      5.761239  
     458A      5.777995   459A      5.837192   460A      5.850407  
     461A      5.868434   462A      5.890671   463A      5.936242  
     464A      5.949629   465A      5.985416   466A      5.996354  
     467A      6.000708   468A      6.049324   469A      6.061243  
     470A      6.071778   471A      6.108222   472A      6.121366  
     473A      6.197177   474A      6.234634   475A      6.275919  
     476A      6.298208   477A      6.322299   478A      6.352948  
     479A      6.388610   480A      6.391092   481A      6.418864  
     482A      6.436225   483A      6.474547   484A      6.498386  
     485A      6.509973   486A      6.526128   487A      6.539968  
     488A      6.649196   489A      6.683350   490A      6.743975  
     491A      6.786541   492A      6.821508   493A      6.925398  
     494A      6.936221   495A      7.023425   496A      7.073111  
     497A      7.100177   498A      7.239435   499A      7.314147  
     500A      7.337776   501A      7.395849   502A      7.424454  
     503A      7.463992   504A      7.526626   505A      7.539484  
     506A      7.585143   507A      7.645587   508A      7.653986  
     509A      7.687756   510A      7.707407   511A      7.733654  
     512A      7.820164   513A      7.874545   514A      7.884516  
     515A      7.898276   516A      7.970931   517A      8.048717  
     518A      8.136492   519A      8.152514   520A      8.293668  
     521A      8.381014   522A      8.612184   523A      8.863155  
     524A      9.462814   525A      9.647712   526A      9.767212  
     527A      9.895929   528A     10.220425   529A     13.800653  
     530A     13.958554   531A     14.643065   532A     41.399943  
     533A     44.115201   534A     45.520240   535A     45.909778  
     536A     47.273910  

    Final Occupation by Irrep:
              A 
    DOCC [    13 ]

  @DF-RHF Final Energy:  -154.14411566806817

   => Energetics <=

    Nuclear Repulsion Energy =             81.7360297369630473
    One-Electron Energy =                -371.4131697801188920
    Two-Electron Energy =                 135.5330243750877059
    Total Energy =                       -154.1441156680681672

Computation Completed


Properties will be evaluated at   0.000000,   0.000000,   0.000000 [a0]

Properties computed using the SCF density matrix

  Nuclear Dipole Moment: [e a0]
     X:   107.2376      Y:   -33.5200      Z:     4.6217

  Electronic Dipole Moment: [e a0]
     X:  -107.2835      Y:    33.8172      Z:    -5.2771

  Dipole Moment: [e a0]
     X:    -0.0459      Y:     0.2972      Z:    -0.6554     Total:     0.7211

  Dipole Moment: [D]
     X:    -0.1167      Y:     0.7554      Z:    -1.6658     Total:     1.8328


*** tstop() called on r282 at Fri Sep 10 16:29:51 2021
Module time:
	user time   =      46.07 seconds =       0.77 minutes
	system time =       0.73 seconds =       0.01 minutes
	total time  =         47 seconds =       0.78 minutes
Total time:
	user time   =     120.29 seconds =       2.00 minutes
	system time =       2.47 seconds =       0.04 minutes
	total time  =        123 seconds =       2.05 minutes

  //>>>>>>>>>>>>>>>>>>>>>>>>>>>>>>>>>>>//
  //            Monomer B HF           //
  //<<<<<<<<<<<<<<<<<<<<<<<<<<<<<<<<<<<//


*** tstart() called on r282
*** at Fri Sep 10 16:29:51 2021

   => Loading Basis Set <=

    Name: JUN-CC-PVTZ
    Role: ORBITAL
    Keyword: BASIS
    atoms 1-2, 10-14 entry C          line   217 file /home/r08543048/miniconda3/share/psi4/basis/jun-cc-pvtz.gbs 
    atoms 3          entry O          line   305 file /home/r08543048/miniconda3/share/psi4/basis/jun-cc-pvtz.gbs 
    atoms 4-9, 15-24 entry H          line    36 file /home/r08543048/miniconda3/share/psi4/basis/jun-cc-pvtz.gbs 


         ---------------------------------------------------------
                                   SCF
               by Justin Turney, Rob Parrish, Andy Simmonett
                          and Daniel G. A. Smith
                              RHF Reference
                        1 Threads,  20980 MiB Core
         ---------------------------------------------------------

  ==> Geometry <==

    Molecular point group: c1
    Full point group: C1

    Geometry (in Angstrom), charge = 0, multiplicity = 1:

       Center              X                  Y                   Z               Mass       
    ------------   -----------------  -----------------  -----------------  -----------------
      Gh(C)           3.108628831895    -0.455216044912    -0.694053610224    12.000000000000
      Gh(C)           1.877510831895    -1.111152044912    -0.097401610224    12.000000000000
      Gh(O)           1.540384831895    -0.572447044912     1.176857389776    15.994914619570
      Gh(H)           2.935129831895     0.607647955088    -0.863186610224     1.007825032230
      Gh(H)           3.365989831895    -0.915949044912    -1.648760610224     1.007825032230
      Gh(H)           3.953725831895    -0.559114044912    -0.015743610224     1.007825032230
      Gh(H)           1.028872831895    -1.026159044912    -0.785344610224     1.007825032230
      Gh(H)           2.057680831895    -2.172454044912     0.069178389776     1.007825032230
      Gh(H)           1.166370831895     0.305793955088     1.023428389776     1.007825032230
         C            0.311090831895     2.219562955088    -0.223447610224    12.000000000000
         C           -0.844290168105     1.714941955088     0.226010389776    12.000000000000
         C           -1.660522168105     0.684676955088    -0.485713610224    12.000000000000
         C           -1.952633168105    -0.539522044912     0.383968389776    12.000000000000
         C           -2.777921168105    -1.578825044912    -0.363484610224    12.000000000000
         H            0.722232831895     1.903441955088    -1.174679610224     1.007825032230
         H            0.855735831895     2.968812955088     0.334875389776     1.007825032230
         H           -1.230402168105     2.063911955088     1.180188389776     1.007825032230
         H           -2.613980168105     1.129021955088    -0.790523610224     1.007825032230
         H           -1.146406168105     0.378959955088    -1.401441610224     1.007825032230
         H           -1.011333168105    -0.975915044912     0.723122389776     1.007825032230
         H           -2.486938168105    -0.216812044912     1.281217389776     1.007825032230
         H           -3.730322168105    -1.159135044912    -0.690366610224     1.007825032230
         H           -2.247162168105    -1.928823044912    -1.249916610224     1.007825032230
         H           -2.989164168105    -2.444614044912     0.262991389776     1.007825032230

  Running in c1 symmetry.

  Rotational constants: A =      0.06908  B =      0.03262  C =      0.02553 [cm^-1]
  Rotational constants: A =   2071.00797  B =    977.79267  C =    765.40897 [MHz]
  Nuclear repulsion =  170.295321464829613

  Charge       = 0
  Multiplicity = 1
  Electrons    = 40
  Nalpha       = 20
  Nbeta        = 20

  ==> Algorithm <==

  SCF Algorithm Type is DF.
  DIIS enabled.
  MOM disabled.
  Fractional occupation disabled.
  Guess Type is SAD.
  Energy threshold   = 1.00e-08
  Density threshold  = 1.00e-08
  Integral threshold = 0.00e+00

  ==> Primary Basis <==

  Basis Set: JUN-CC-PVTZ
    Blend: JUN-CC-PVTZ
    Number of shells: 200
    Number of basis function: 536
    Number of Cartesian functions: 600
    Spherical Harmonics?: true
    Max angular momentum: 3

   => Loading Basis Set <=

    Name: (JUN-CC-PVTZ AUX)
    Role: JKFIT
    Keyword: DF_BASIS_SCF
    atoms 1-2, 10-14 entry C          line   152 file /home/r08543048/miniconda3/share/psi4/basis/jun-cc-pvtz-jkfit.gbs 
    atoms 3          entry O          line   272 file /home/r08543048/miniconda3/share/psi4/basis/jun-cc-pvtz-jkfit.gbs 
    atoms 4-9, 15-24 entry H          line    70 file /home/r08543048/miniconda3/share/psi4/basis/jun-cc-pvtz-jkfit.gbs 

  ==> Pre-Iterations <==

   -------------------------------------------------------
    Irrep   Nso     Nmo     Nalpha   Nbeta   Ndocc  Nsocc
   -------------------------------------------------------
     A        536     536       0       0       0       0
   -------------------------------------------------------
    Total     536     536      20      20      20       0
   -------------------------------------------------------

  ==> Integral Setup <==

  ==> DiskDFJK: Density-Fitted J/K Matrices <==

    J tasked:                  Yes
    K tasked:                  Yes
    wK tasked:                  No
    OpenMP threads:              1
    Integrals threads:           1
    Memory [MiB]:            15735
    Algorithm:                Core
    Integral Cache:           LOAD
    Schwarz Cutoff:          1E-12
    Fitting Condition:       1E-10

   => Auxiliary Basis Set <=

  Basis Set: (JUN-CC-PVTZ AUX)
    Blend: JUN-CC-PVTZ-JKFIT
    Number of shells: 392
    Number of basis function: 1240
    Number of Cartesian functions: 1488
    Spherical Harmonics?: true
    Max angular momentum: 4

  Minimum eigenvalue in the overlap matrix is 2.6525874173E-05.
  Using Symmetric Orthogonalization.

  SCF Guess: Superposition of Atomic Densities via on-the-fly atomic UHF.

  ==> Iterations <==

                           Total Energy        Delta E     RMS |[F,P]|

   @DF-RHF iter SAD:  -194.44857022509328   -1.94449e+02   0.00000e+00 
   @DF-RHF iter   1:  -194.99858957347831   -5.50019e-01   1.08757e-03 DIIS
   @DF-RHF iter   2:  -195.17554181272959   -1.76952e-01   4.75869e-04 DIIS
   @DF-RHF iter   3:  -195.20971738889074   -3.41756e-02   9.16903e-05 DIIS
   @DF-RHF iter   4:  -195.21205207833859   -2.33469e-03   3.05320e-05 DIIS
   @DF-RHF iter   5:  -195.21221774667066   -1.65668e-04   6.44874e-06 DIIS
   @DF-RHF iter   6:  -195.21222826188543   -1.05152e-05   1.44885e-06 DIIS
   @DF-RHF iter   7:  -195.21222876160195   -4.99717e-07   4.16615e-07 DIIS
   @DF-RHF iter   8:  -195.21222880643012   -4.48282e-08   9.62455e-08 DIIS
   @DF-RHF iter   9:  -195.21222880997027   -3.54015e-09   3.44246e-08 DIIS
   @DF-RHF iter  10:  -195.21222881049334   -5.23073e-10   1.16069e-08 DIIS
   @DF-RHF iter  11:  -195.21222881055203   -5.86908e-11   3.55145e-09 DIIS
  Energy and wave function converged.


  ==> Post-Iterations <==

    Orbital Energies [Eh]
    ---------------------

    Doubly Occupied:                                                      

       1A    -11.231187     2A    -11.222246     3A    -11.219742  
       4A    -11.217426     5A    -11.211701     6A     -1.089203  
       7A     -1.022100     8A     -0.922488     9A     -0.811925  
      10A     -0.757156    11A     -0.649752    12A     -0.617046  
      13A     -0.590580    14A     -0.566974    15A     -0.537986  
      16A     -0.510846    17A     -0.483438    18A     -0.473865  
      19A     -0.469733    20A     -0.355466  

    Virtual:                                                              

      21A      0.037994    22A      0.048193    23A      0.053082  
      24A      0.055718    25A      0.067942    26A      0.070075  
      27A      0.075860    28A      0.081976    29A      0.090646  
      30A      0.097083    31A      0.102335    32A      0.104504  
      33A      0.112656    34A      0.116980    35A      0.124348  
      36A      0.132081    37A      0.135609    38A      0.140377  
      39A      0.151035    40A      0.157109    41A      0.159802  
      42A      0.165331    43A      0.176289    44A      0.184408  
      45A      0.191122    46A      0.193675    47A      0.197954  
      48A      0.206104    49A      0.215218    50A      0.222259  
      51A      0.232612    52A      0.235693    53A      0.241243  
      54A      0.251318    55A      0.271640    56A      0.272029  
      57A      0.288268    58A      0.291859    59A      0.298711  
      60A      0.305013    61A      0.312878    62A      0.313383  
      63A      0.318105    64A      0.321592    65A      0.326262  
      66A      0.329896    67A      0.343671    68A      0.346486  
      69A      0.351101    70A      0.358131    71A      0.363934  
      72A      0.367738    73A      0.380052    74A      0.382432  
      75A      0.388255    76A      0.393256    77A      0.396727  
      78A      0.408278    79A      0.412278    80A      0.416823  
      81A      0.431051    82A      0.437788    83A      0.439085  
      84A      0.443168    85A      0.445015    86A      0.459739  
      87A      0.461222    88A      0.473944    89A      0.475972  
      90A      0.483885    91A      0.503467    92A      0.507300  
      93A      0.510461    94A      0.513697    95A      0.528825  
      96A      0.535141    97A      0.540751    98A      0.545383  
      99A      0.551916   100A      0.555365   101A      0.561752  
     102A      0.566748   103A      0.574348   104A      0.583615  
     105A      0.588113   106A      0.604241   107A      0.609613  
     108A      0.623558   109A      0.634859   110A      0.642544  
     111A      0.649234   112A      0.658679   113A      0.669579  
     114A      0.678378   115A      0.692207   116A      0.706779  
     117A      0.713242   118A      0.725250   119A      0.739702  
     120A      0.745537   121A      0.759753   122A      0.771827  
     123A      0.783601   124A      0.792546   125A      0.806720  
     126A      0.808910   127A      0.817391   128A      0.829324  
     129A      0.833458   130A      0.843818   131A      0.845715  
     132A      0.861007   133A      0.869159   134A      0.875312  
     135A      0.883876   136A      0.895906   137A      0.905415  
     138A      0.910533   139A      0.920116   140A      0.939121  
     141A      0.941915   142A      0.964758   143A      0.969995  
     144A      0.979972   145A      1.000195   146A      1.008129  
     147A      1.018922   148A      1.020280   149A      1.024119  
     150A      1.046765   151A      1.053138   152A      1.057665  
     153A      1.066566   154A      1.072870   155A      1.083832  
     156A      1.101049   157A      1.105353   158A      1.134096  
     159A      1.138735   160A      1.152188   161A      1.156020  
     162A      1.169033   163A      1.180217   164A      1.185115  
     165A      1.197004   166A      1.205767   167A      1.221889  
     168A      1.230618   169A      1.233270   170A      1.258933  
     171A      1.262827   172A      1.275284   173A      1.278336  
     174A      1.287075   175A      1.292415   176A      1.297630  
     177A      1.314698   178A      1.324709   179A      1.333764  
     180A      1.343660   181A      1.362964   182A      1.371279  
     183A      1.385683   184A      1.388569   185A      1.403112  
     186A      1.417937   187A      1.420674   188A      1.424786  
     189A      1.431128   190A      1.451899   191A      1.463075  
     192A      1.469451   193A      1.485197   194A      1.493974  
     195A      1.511012   196A      1.516493   197A      1.526757  
     198A      1.538367   199A      1.551571   200A      1.557617  
     201A      1.567885   202A      1.578537   203A      1.583355  
     204A      1.594604   205A      1.600689   206A      1.611578  
     207A      1.613830   208A      1.623492   209A      1.630020  
     210A      1.640759   211A      1.653388   212A      1.657832  
     213A      1.669207   214A      1.696328   215A      1.705014  
     216A      1.711736   217A      1.724283   218A      1.725208  
     219A      1.755539   220A      1.762545   221A      1.776073  
     222A      1.782822   223A      1.799783   224A      1.819172  
     225A      1.833914   226A      1.848175   227A      1.853811  
     228A      1.875492   229A      1.888997   230A      1.912015  
     231A      1.921060   232A      1.938064   233A      1.949317  
     234A      1.967469   235A      1.979332   236A      1.987232  
     237A      1.999790   238A      2.026737   239A      2.050655  
     240A      2.071129   241A      2.092666   242A      2.125524  
     243A      2.134389   244A      2.143387   245A      2.172940  
     246A      2.267771   247A      2.288343   248A      2.345932  
     249A      2.368095   250A      2.437268   251A      2.516806  
     252A      2.560706   253A      2.676603   254A      2.688763  
     255A      2.756338   256A      2.775730   257A      2.788799  
     258A      2.794492   259A      2.808831   260A      2.835570  
     261A      2.840655   262A      2.843795   263A      2.863037  
     264A      2.867250   265A      2.877613   266A      2.914178  
     267A      2.942616   268A      2.956270   269A      2.963803  
     270A      2.988078   271A      2.990054   272A      3.008149  
     273A      3.023444   274A      3.046325   275A      3.055569  
     276A      3.065653   277A      3.098847   278A      3.112002  
     279A      3.124385   280A      3.140893   281A      3.143800  
     282A      3.165441   283A      3.175310   284A      3.190637  
     285A      3.212051   286A      3.219233   287A      3.236027  
     288A      3.244961   289A      3.264928   290A      3.286839  
     291A      3.308885   292A      3.317496   293A      3.335561  
     294A      3.346787   295A      3.351919   296A      3.376495  
     297A      3.393865   298A      3.395754   299A      3.414454  
     300A      3.424522   301A      3.447671   302A      3.451437  
     303A      3.463484   304A      3.478808   305A      3.491536  
     306A      3.497275   307A      3.509283   308A      3.521033  
     309A      3.524767   310A      3.542232   311A      3.547917  
     312A      3.554659   313A      3.560363   314A      3.573560  
     315A      3.587679   316A      3.593679   317A      3.599732  
     318A      3.609208   319A      3.617815   320A      3.637499  
     321A      3.641733   322A      3.646915   323A      3.660683  
     324A      3.676215   325A      3.686845   326A      3.691695  
     327A      3.734547   328A      3.740776   329A      3.760692  
     330A      3.767289   331A      3.787338   332A      3.795723  
     333A      3.803604   334A      3.821457   335A      3.830043  
     336A      3.832057   337A      3.855481   338A      3.872529  
     339A      3.873147   340A      3.897198   341A      3.907327  
     342A      3.922909   343A      3.935281   344A      3.939987  
     345A      3.955237   346A      3.959903   347A      3.986731  
     348A      3.998083   349A      4.006836   350A      4.012539  
     351A      4.029426   352A      4.040919   353A      4.056534  
     354A      4.082037   355A      4.105648   356A      4.107097  
     357A      4.129661   358A      4.144844   359A      4.159568  
     360A      4.184232   361A      4.193727   362A      4.201606  
     363A      4.214499   364A      4.240384   365A      4.247561  
     366A      4.258877   367A      4.270259   368A      4.279176  
     369A      4.301512   370A      4.311602   371A      4.323467  
     372A      4.333032   373A      4.344842   374A      4.362853  
     375A      4.374508   376A      4.378516   377A      4.381910  
     378A      4.390642   379A      4.408826   380A      4.422155  
     381A      4.430847   382A      4.446035   383A      4.452294  
     384A      4.457361   385A      4.477807   386A      4.482859  
     387A      4.491443   388A      4.499006   389A      4.508962  
     390A      4.519099   391A      4.526856   392A      4.541421  
     393A      4.544433   394A      4.564506   395A      4.573458  
     396A      4.580909   397A      4.600452   398A      4.613810  
     399A      4.624984   400A      4.635684   401A      4.647879  
     402A      4.668138   403A      4.675692   404A      4.691286  
     405A      4.722116   406A      4.728166   407A      4.742538  
     408A      4.755462   409A      4.763282   410A      4.766840  
     411A      4.774899   412A      4.786546   413A      4.800188  
     414A      4.804402   415A      4.817117   416A      4.831822  
     417A      4.845339   418A      4.855677   419A      4.874352  
     420A      4.886416   421A      4.888651   422A      4.897653  
     423A      4.904540   424A      4.925155   425A      4.944364  
     426A      4.951348   427A      4.968239   428A      4.987756  
     429A      4.999574   430A      5.018793   431A      5.027310  
     432A      5.037287   433A      5.054091   434A      5.074325  
     435A      5.082153   436A      5.094626   437A      5.110258  
     438A      5.136371   439A      5.158378   440A      5.172185  
     441A      5.188613   442A      5.198067   443A      5.232166  
     444A      5.238219   445A      5.259218   446A      5.273510  
     447A      5.286230   448A      5.290980   449A      5.301215  
     450A      5.320249   451A      5.345192   452A      5.359156  
     453A      5.388874   454A      5.398064   455A      5.430603  
     456A      5.436361   457A      5.447057   458A      5.469486  
     459A      5.483421   460A      5.522230   461A      5.559801  
     462A      5.572166   463A      5.612802   464A      5.626718  
     465A      5.649698   466A      5.657036   467A      5.710931  
     468A      5.727909   469A      5.751350   470A      5.757097  
     471A      5.776456   472A      5.799683   473A      5.818370  
     474A      5.850503   475A      5.875131   476A      5.886068  
     477A      5.926566   478A      5.942078   479A      5.961666  
     480A      5.994671   481A      6.023985   482A      6.044250  
     483A      6.083393   484A      6.131906   485A      6.154999  
     486A      6.195554   487A      6.232848   488A      6.286443  
     489A      6.325090   490A      6.353316   491A      6.428892  
     492A      6.460275   493A      6.465462   494A      6.495213  
     495A      6.517134   496A      6.536640   497A      6.601960  
     498A      6.635051   499A      6.713682   500A      6.756292  
     501A      6.862599   502A      7.012536   503A      7.142532  
     504A      7.337108   505A      7.408014   506A      7.471457  
     507A      7.565438   508A      7.607044   509A      7.667102  
     510A      7.696941   511A      7.811002   512A      7.867264  
     513A      7.977902   514A      7.999376   515A      8.319898  
     516A      8.363813   517A      8.560906   518A      9.523057  
     519A      9.721691   520A      9.854981   521A      9.901548  
     522A     10.050294   523A     10.178353   524A     10.335334  
     525A     11.288571   526A     11.722968   527A     12.486525  
     528A     12.791921   529A     13.597315   530A     13.863300  
     531A     14.452437   532A     14.546981   533A     15.408260  
     534A     44.286441   535A     45.578378   536A     61.615274  

    Final Occupation by Irrep:
              A 
    DOCC [    20 ]

  @DF-RHF Final Energy:  -195.21222881055203

   => Energetics <=

    Nuclear Repulsion Energy =            170.2953214648296125
    One-Electron Energy =                -599.0933791909225192
    Two-Electron Energy =                 233.5858289155408727
    Total Energy =                       -195.2122288105520340

Computation Completed


Properties will be evaluated at   0.000000,   0.000000,   0.000000 [a0]

Properties computed using the SCF density matrix

  Nuclear Dipole Moment: [e a0]
     X:  -108.5145      Y:    31.6035      Z:    -8.1268

  Electronic Dipole Moment: [e a0]
     X:   108.3732      Y:   -31.7198      Z:     8.1427

  Dipole Moment: [e a0]
     X:    -0.1412      Y:    -0.1163      Z:     0.0158     Total:     0.1837

  Dipole Moment: [D]
     X:    -0.3590      Y:    -0.2957      Z:     0.0402     Total:     0.4668


*** tstop() called on r282 at Fri Sep 10 16:30:44 2021
Module time:
	user time   =      52.35 seconds =       0.87 minutes
	system time =       0.85 seconds =       0.01 minutes
	total time  =         53 seconds =       0.88 minutes
Total time:
	user time   =     172.65 seconds =       2.88 minutes
	system time =       3.32 seconds =       0.06 minutes
	total time  =        176 seconds =       2.93 minutes
  Constructing Basis Sets for SAPT...

   => Loading Basis Set <=

    Name: (JUN-CC-PVTZ AUX)
    Role: RIFIT
    Keyword: DF_BASIS_SAPT
    atoms 1-2, 10-14 entry C          line   132 file /home/r08543048/miniconda3/share/psi4/basis/jun-cc-pvtz-ri.gbs 
    atoms 3          entry O          line   244 file /home/r08543048/miniconda3/share/psi4/basis/jun-cc-pvtz-ri.gbs 
    atoms 4-9, 15-24 entry H          line    30 file /home/r08543048/miniconda3/share/psi4/basis/jun-cc-pvtz-ri.gbs 


  //>>>>>>>>>>>>>>>>>>>>>>>>>>>>>>>>>>>//
  //               SAPT0               //
  //<<<<<<<<<<<<<<<<<<<<<<<<<<<<<<<<<<<//


*** tstart() called on r282
*** at Fri Sep 10 16:30:44 2021

        SAPT0  
    Ed Hohenstein
     6 June 2009

      Orbital Information
  --------------------------
    NSO        =       536
    NMO        =       536
    NRI        =      1256
    NOCC A     =        13
    NOCC B     =        20
    FOCC A     =         0
    FOCC B     =         0
    NVIR A     =       523
    NVIR B     =       516

    Elst10,r            =    -0.008991689984 [Eh]
    Exch10              =     0.012954732526 [Eh]
    Exch10 (S^2)        =     0.012882766625 [Eh]

    Iter     Energy [mEh]          dE [mEh]         Residual      Time [s]
       1      -0.68507930       0.685079303       3.840809941             1
       2      -0.80443347       0.119354163       1.159927115             3
       3      -0.81554307       0.011109605       0.308717542             4
       4      -0.81265935      -0.002883723       0.130800412             5
       5      -0.81191095      -0.000748399       0.028520595             6
       6      -0.81205421       0.000143262       0.010328553             7
       7      -0.81212899       0.000074775       0.002376001             8
       8      -0.81211164      -0.000017343       0.000675109            10
       9      -0.81211143      -0.000000215       0.000198581            11
      10      -0.81211230       0.000000874       0.000069257            12
      11      -0.81211234       0.000000036       0.000017444            13
      12      -0.81211225      -0.000000086       0.000003954            14
      13      -0.81211226       0.000000010       0.000000993            15

    CHF Iterations converged


    Iter     Energy [mEh]          dE [mEh]         Residual      Time [s]
       1      -4.20304282       4.203042818      11.055576217             2
       2      -5.29676305       1.093720236       4.367701114             3
       3      -5.42519299       0.128429938       1.345958456             4
       4      -5.40077946      -0.024413529       0.477463795             5
       5      -5.39018010      -0.010599364       0.135547313             7
       6      -5.39256795       0.002387850       0.057286897             8
       7      -5.39324294       0.000674991       0.015859474             9
       8      -5.39294302      -0.000299916       0.003942487            10
       9      -5.39292694      -0.000016083       0.000945580            11
      10      -5.39293969       0.000012747       0.000286522            13
      11      -5.39294063       0.000000940       0.000080765            14
      12      -5.39293964      -0.000000985       0.000019117            15
      13      -5.39293963      -0.000000011       0.000005555            16
      14      -5.39293968       0.000000048       0.000001653            18
      15      -5.39293968       0.000000002       0.000000514            19

    CHF Iterations converged

    Ind20,r (A<-B)      =    -0.000812112264 [Eh]
    Ind20,r (B<-A)      =    -0.005392939682 [Eh]
    Ind20,r             =    -0.006205051946 [Eh]
    Exch-Ind20,r (A<-B) =     0.000592182997 [Eh]
    Exch-Ind20,r (B<-A) =     0.004049791708 [Eh]
    Exch-Ind20,r        =     0.004641974705 [Eh]
    Disp20              =    -0.010316471826 [Eh]
    Disp20 (SS)         =    -0.005158235913 [Eh]
    Disp20 (OS)         =    -0.005158235913 [Eh]
    Exch-Disp20         =     0.001369991119 [Eh]
    Exch-Disp20 (SS)    =     0.000885391257 [Eh]
    Exch-Disp20 (OS)    =     0.000484599863 [Eh]

    SAPT Results 
  --------------------------------------------------------------------------------------------------------
    Electrostatics                 -8.99168998 [mEh]      -5.64237065 [kcal/mol]     -23.60767880 [kJ/mol]
      Elst10,r                     -8.99168998 [mEh]      -5.64237065 [kcal/mol]     -23.60767880 [kJ/mol]

    Exchange                       12.95473253 [mEh]       8.12921739 [kcal/mol]      34.01264556 [kJ/mol]
      Exch10                       12.95473253 [mEh]       8.12921739 [kcal/mol]      34.01264556 [kJ/mol]
      Exch10(S^2)                  12.88276663 [mEh]       8.08405811 [kcal/mol]      33.82369912 [kJ/mol]

    Induction                      -2.93644856 [mEh]      -1.84264929 [kcal/mol]      -7.70964462 [kJ/mol]
      Ind20,r                      -6.20505195 [mEh]      -3.89372888 [kcal/mol]     -16.29136164 [kJ/mol]
      Exch-Ind20,r                  4.64197470 [mEh]       2.91288310 [kcal/mol]      12.18750291 [kJ/mol]
      delta HF,r (2)               -1.37337131 [mEh]      -0.86180351 [kcal/mol]      -3.60578589 [kJ/mol]

    Dispersion                     -8.94648071 [mEh]      -5.61400140 [kcal/mol]     -23.48898186 [kJ/mol]
      Disp20                      -10.31647183 [mEh]      -6.47368381 [kcal/mol]     -27.08589305 [kJ/mol]
      Exch-Disp20                   1.36999112 [mEh]       0.85968241 [kcal/mol]       3.59691119 [kJ/mol]
      Disp20 (SS)                  -5.15823591 [mEh]      -3.23684190 [kcal/mol]     -13.54294652 [kJ/mol]
      Disp20 (OS)                  -5.15823591 [mEh]      -3.23684190 [kcal/mol]     -13.54294652 [kJ/mol]
      Exch-Disp20 (SS)              0.88539126 [mEh]       0.55559140 [kcal/mol]       2.32459442 [kJ/mol]
      Exch-Disp20 (OS)              0.48459986 [mEh]       0.30409100 [kcal/mol]       1.27231676 [kJ/mol]

  Total HF                          1.02659399 [mEh]       0.64419745 [kcal/mol]       2.69532214 [kJ/mol]
  Total SAPT0                      -7.91988672 [mEh]      -4.96980395 [kcal/mol]     -20.79365972 [kJ/mol]

  Special recipe for scaled SAPT0 (see Manual):
    Electrostatics sSAPT0          -8.99168998 [mEh]      -5.64237065 [kcal/mol]     -23.60767880 [kJ/mol]
    Exchange sSAPT0                12.95473253 [mEh]       8.12921739 [kcal/mol]      34.01264556 [kJ/mol]
    Induction sSAPT0               -2.85821997 [mEh]      -1.79356011 [kcal/mol]      -7.50425551 [kJ/mol]
    Dispersion sSAPT0              -8.92339302 [mEh]      -5.59951366 [kcal/mol]     -23.42836514 [kJ/mol]
  Total sSAPT0                     -7.81857045 [mEh]      -4.90622703 [kcal/mol]     -20.52765389 [kJ/mol]
  --------------------------------------------------------------------------------------------------------

*** tstop() called on r282 at Fri Sep 10 16:33:16 2021
Module time:
	user time   =     130.11 seconds =       2.17 minutes
	system time =      21.56 seconds =       0.36 minutes
	total time  =        152 seconds =       2.53 minutes
Total time:
	user time   =     302.91 seconds =       5.05 minutes
	system time =      24.88 seconds =       0.41 minutes
	total time  =        328 seconds =       5.47 minutes

    Psi4 stopped on: Friday, 10 September 2021 04:33PM
    Psi4 wall time for execution: 0:05:28.19

*** Psi4 exiting successfully. Buy a developer a beer!
