
    -----------------------------------------------------------------------
          Psi4: An Open-Source Ab Initio Electronic Structure Package
                               Psi4 1.3.2 release

                         Git: Rev {HEAD} ecbda83 


    R. M. Parrish, L. A. Burns, D. G. A. Smith, A. C. Simmonett,
    A. E. DePrince III, E. G. Hohenstein, U. Bozkaya, A. Yu. Sokolov,
    R. Di Remigio, R. M. Richard, J. F. Gonthier, A. M. James,
    H. R. McAlexander, A. Kumar, M. Saitow, X. Wang, B. P. Pritchard,
    P. Verma, H. F. Schaefer III, K. Patkowski, R. A. King, E. F. Valeev,
    F. A. Evangelista, J. M. Turney, T. D. Crawford, and C. D. Sherrill,
    J. Chem. Theory Comput. 13(7) pp 3185--3197 (2017).
    (doi: 10.1021/acs.jctc.7b00174)


                         Additional Contributions by
    P. Kraus, H. Kruse, M. H. Lechner, M. C. Schieber, R. A. Shaw,
    A. Alenaizan, R. Galvelis, Z. L. Glick, S. Lehtola, and J. P. Misiewicz

    -----------------------------------------------------------------------


    Psi4 started on: Friday, 10 September 2021 04:47PM

    Process ID: 56873
    Host:       r282
    PSIDATADIR: /home/r08543048/miniconda3/share/psi4
    Memory:     500.0 MiB
    Threads:    1
    
  ==> Input File <==

--------------------------------------------------------------------------
# Any line starting with the # character is a comment line
#! Sample  computation

memory 22 gb

molecule Dimer {
0 1
 C -1.764102   -0.648685   -0.730383
 C -1.333549   -1.456006    0.485896
 H -0.901142   -0.513774   -1.391573
 H -2.484113   -1.259887   -1.282998
 O -0.238202   -0.890647    1.201417
 H -2.154515   -1.511388    1.202466
 H -1.095121   -2.479805    0.178464
 H  0.515642   -0.865786    0.595864
 C -2.397401    0.706866   -0.420948
 H -2.872157    1.081691   -1.330779
 H -3.201242    0.561331    0.306357
 C -1.422068    1.759770    0.097345
 H -0.604322    1.903288   -0.612109
 H -1.921855    2.720119    0.226237
 H -0.989678    1.460068    1.048834

    
    
 --
0 1
 C   2.542486   -1.025986   -0.734619
 C   2.262021    0.278242   -0.631112
 C   2.551079    1.115778    0.572474
 H   2.309892   -1.581248   -1.632740
 H   3.021023   -1.559708    0.077335
 H   1.786544    0.774351   -1.471601
 H   1.629761    1.536577    0.978150
 H   3.033718    0.528133    1.352111
 H   3.202391    1.951346    0.312726
   
   
   
   
   





units angstrom

no_reorient
symmetry c1
}

set globals{
  basis jun-cc-pvtz
}

energy('sapt0')


--------------------------------------------------------------------------

  Memory set to  20.489 GiB by Python driver.

  //>>>>>>>>>>>>>>>>>>>>>>>>>>>>>>>>>>>//
  //              Dimer HF             //
  //<<<<<<<<<<<<<<<<<<<<<<<<<<<<<<<<<<<//


*** tstart() called on r282
*** at Fri Sep 10 16:47:41 2021

   => Loading Basis Set <=

    Name: JUN-CC-PVTZ
    Role: ORBITAL
    Keyword: BASIS
    atoms 1-2, 9, 12, 16-18             entry C          line   217 file /home/r08543048/miniconda3/share/psi4/basis/jun-cc-pvtz.gbs 
    atoms 3-4, 6-8, 10-11, 13-15, 19-24 entry H          line    36 file /home/r08543048/miniconda3/share/psi4/basis/jun-cc-pvtz.gbs 
    atoms 5                             entry O          line   305 file /home/r08543048/miniconda3/share/psi4/basis/jun-cc-pvtz.gbs 


         ---------------------------------------------------------
                                   SCF
               by Justin Turney, Rob Parrish, Andy Simmonett
                          and Daniel G. A. Smith
                              RHF Reference
                        1 Threads,  20980 MiB Core
         ---------------------------------------------------------

  ==> Geometry <==

    Molecular point group: c1
    Full point group: C1

    Geometry (in Angstrom), charge = 0, multiplicity = 1:

       Center              X                  Y                   Z               Mass       
    ------------   -----------------  -----------------  -----------------  -----------------
         C           -1.770308701027    -0.625267140016    -0.742662085420    12.000000000000
         C           -1.339755701027    -1.432588140016     0.473616914580    12.000000000000
         H           -0.907348701027    -0.490356140016    -1.403852085420     1.007825032230
         H           -2.490319701027    -1.236469140016    -1.295277085420     1.007825032230
         O           -0.244408701027    -0.867229140016     1.189137914580    15.994914619570
         H           -2.160721701027    -1.487970140016     1.190186914580     1.007825032230
         H           -1.101327701027    -2.456387140016     0.166184914580     1.007825032230
         H            0.509435298973    -0.842368140016     0.583584914580     1.007825032230
         C           -2.403607701027     0.730283859984    -0.433227085420    12.000000000000
         H           -2.878363701027     1.105108859984    -1.343058085420     1.007825032230
         H           -3.207448701027     0.584748859984     0.294077914580     1.007825032230
         C           -1.428274701027     1.783187859984     0.085065914580    12.000000000000
         H           -0.610528701027     1.926705859984    -0.624388085420     1.007825032230
         H           -1.928061701027     2.743536859984     0.213957914580     1.007825032230
         H           -0.995884701027     1.483485859984     1.036554914580     1.007825032230
         C            2.536279298973    -1.002568140016    -0.746898085420    12.000000000000
         C            2.255814298973     0.301659859984    -0.643391085420    12.000000000000
         C            2.544872298973     1.139195859984     0.560194914580    12.000000000000
         H            2.303685298973    -1.557830140016    -1.645019085420     1.007825032230
         H            3.014816298973    -1.536290140016     0.065055914580     1.007825032230
         H            1.780337298973     0.797768859984    -1.483880085420     1.007825032230
         H            1.623554298973     1.559994859984     0.965870914580     1.007825032230
         H            3.027511298973     0.551550859984     1.339831914580     1.007825032230
         H            3.196184298973     1.974763859984     0.300446914580     1.007825032230

  Running in c1 symmetry.

  Rotational constants: A =      0.07695  B =      0.03285  C =      0.02811 [cm^-1]
  Rotational constants: A =   2307.02763  B =    984.86729  C =    842.60623 [MHz]
  Nuclear repulsion =  389.193632977371749

  Charge       = 0
  Multiplicity = 1
  Electrons    = 66
  Nalpha       = 33
  Nbeta        = 33

  ==> Algorithm <==

  SCF Algorithm Type is DF.
  DIIS enabled.
  MOM disabled.
  Fractional occupation disabled.
  Guess Type is SAD.
  Energy threshold   = 1.00e-08
  Density threshold  = 1.00e-08
  Integral threshold = 0.00e+00

  ==> Primary Basis <==

  Basis Set: JUN-CC-PVTZ
    Blend: JUN-CC-PVTZ
    Number of shells: 200
    Number of basis function: 536
    Number of Cartesian functions: 600
    Spherical Harmonics?: true
    Max angular momentum: 3

   => Loading Basis Set <=

    Name: (JUN-CC-PVTZ AUX)
    Role: JKFIT
    Keyword: DF_BASIS_SCF
    atoms 1-2, 9, 12, 16-18             entry C          line   152 file /home/r08543048/miniconda3/share/psi4/basis/jun-cc-pvtz-jkfit.gbs 
    atoms 3-4, 6-8, 10-11, 13-15, 19-24 entry H          line    70 file /home/r08543048/miniconda3/share/psi4/basis/jun-cc-pvtz-jkfit.gbs 
    atoms 5                             entry O          line   272 file /home/r08543048/miniconda3/share/psi4/basis/jun-cc-pvtz-jkfit.gbs 

  ==> Pre-Iterations <==

   -------------------------------------------------------
    Irrep   Nso     Nmo     Nalpha   Nbeta   Ndocc  Nsocc
   -------------------------------------------------------
     A        536     536       0       0       0       0
   -------------------------------------------------------
    Total     536     536      33      33      33       0
   -------------------------------------------------------

  ==> Integral Setup <==

  ==> DiskDFJK: Density-Fitted J/K Matrices <==

    J tasked:                  Yes
    K tasked:                  Yes
    wK tasked:                  No
    OpenMP threads:              1
    Integrals threads:           1
    Memory [MiB]:            15735
    Algorithm:                Core
    Integral Cache:           SAVE
    Schwarz Cutoff:          1E-12
    Fitting Condition:       1E-10

   => Auxiliary Basis Set <=

  Basis Set: (JUN-CC-PVTZ AUX)
    Blend: JUN-CC-PVTZ-JKFIT
    Number of shells: 392
    Number of basis function: 1240
    Number of Cartesian functions: 1488
    Spherical Harmonics?: true
    Max angular momentum: 4

  Minimum eigenvalue in the overlap matrix is 3.5992053018E-05.
  Using Symmetric Orthogonalization.

  SCF Guess: Superposition of Atomic Densities via on-the-fly atomic UHF.

  ==> Iterations <==

                           Total Energy        Delta E     RMS |[F,P]|

   @DF-RHF iter SAD:  -348.06668714117552   -3.48067e+02   0.00000e+00 
   @DF-RHF iter   1:  -349.00708338576771   -9.40396e-01   1.43226e-03 DIIS
   @DF-RHF iter   2:  -349.28396393007426   -2.76881e-01   7.02788e-04 DIIS
   @DF-RHF iter   3:  -349.34813217990734   -6.41682e-02   1.32235e-04 DIIS
   @DF-RHF iter   4:  -349.35222558320783   -4.09340e-03   4.59053e-05 DIIS
   @DF-RHF iter   5:  -349.35257833335112   -3.52750e-04   1.04512e-05 DIIS
   @DF-RHF iter   6:  -349.35260127510048   -2.29417e-05   2.75606e-06 DIIS
   @DF-RHF iter   7:  -349.35260317708020   -1.90198e-06   6.99529e-07 DIIS
   @DF-RHF iter   8:  -349.35260333584381   -1.58764e-07   2.41354e-07 DIIS
   @DF-RHF iter   9:  -349.35260335630761   -2.04638e-08   7.21663e-08 DIIS
   @DF-RHF iter  10:  -349.35260335882117   -2.51356e-09   3.74411e-08 DIIS
   @DF-RHF iter  11:  -349.35260335921703   -3.95858e-10   8.97191e-09 DIIS
  Energy and wave function converged.


  ==> Post-Iterations <==

    Orbital Energies [Eh]
    ---------------------

    Doubly Occupied:                                                      

       1A    -20.539477     2A    -11.264088     3A    -11.247222  
       4A    -11.229248     5A    -11.224469     6A    -11.215389  
       7A    -11.214098     8A    -11.201333     9A     -1.343420  
      10A     -1.076452    11A     -1.064284    12A     -0.968363  
      13A     -0.941469    14A     -0.861489    15A     -0.786465  
      16A     -0.768652    17A     -0.669867    18A     -0.650247  
      19A     -0.633694    20A     -0.620595    21A     -0.592524  
      22A     -0.581767    23A     -0.568417    24A     -0.555853  
      25A     -0.532216    26A     -0.528003    27A     -0.503153  
      28A     -0.498606    29A     -0.491037    30A     -0.469726  
      31A     -0.455495    32A     -0.416943    33A     -0.371021  

    Virtual:                                                              

      34A      0.048753    35A      0.052338    36A      0.055415  
      37A      0.059887    38A      0.068614    39A      0.072498  
      40A      0.075814    41A      0.088638    42A      0.091964  
      43A      0.100012    44A      0.105746    45A      0.108713  
      46A      0.114895    47A      0.116952    48A      0.125974  
      49A      0.136956    50A      0.138505    51A      0.144104  
      52A      0.148336    53A      0.156957    54A      0.159625  
      55A      0.167715    56A      0.174191    57A      0.182251  
      58A      0.191480    59A      0.201867    60A      0.211171  
      61A      0.215613    62A      0.223225    63A      0.232355  
      64A      0.246811    65A      0.255866    66A      0.262128  
      67A      0.274547    68A      0.277479    69A      0.286298  
      70A      0.290252    71A      0.295635    72A      0.302575  
      73A      0.306653    74A      0.312074    75A      0.317440  
      76A      0.321462    77A      0.324447    78A      0.333254  
      79A      0.339427    80A      0.341420    81A      0.343345  
      82A      0.352442    83A      0.360132    84A      0.361802  
      85A      0.366606    86A      0.377356    87A      0.379190  
      88A      0.388098    89A      0.392251    90A      0.396292  
      91A      0.399906    92A      0.405706    93A      0.411964  
      94A      0.413800    95A      0.425025    96A      0.432450  
      97A      0.442324    98A      0.452662    99A      0.455146  
     100A      0.468923   101A      0.477958   102A      0.480876  
     103A      0.485319   104A      0.496011   105A      0.507199  
     106A      0.511265   107A      0.522963   108A      0.533230  
     109A      0.539350   110A      0.544143   111A      0.548059  
     112A      0.552367   113A      0.559983   114A      0.572167  
     115A      0.574652   116A      0.579606   117A      0.583183  
     118A      0.587667   119A      0.595087   120A      0.619615  
     121A      0.623644   122A      0.633574   123A      0.642584  
     124A      0.669587   125A      0.677603   126A      0.680893  
     127A      0.696783   128A      0.699136   129A      0.704592  
     130A      0.711063   131A      0.717602   132A      0.723989  
     133A      0.726883   134A      0.745522   135A      0.749420  
     136A      0.761968   137A      0.765475   138A      0.772082  
     139A      0.780688   140A      0.792551   141A      0.801336  
     142A      0.805961   143A      0.815514   144A      0.825008  
     145A      0.828959   146A      0.839089   147A      0.846825  
     148A      0.856928   149A      0.863004   150A      0.868249  
     151A      0.880194   152A      0.890799   153A      0.895743  
     154A      0.905074   155A      0.906105   156A      0.914771  
     157A      0.927181   158A      0.929678   159A      0.943707  
     160A      0.970115   161A      0.978335   162A      0.983695  
     163A      0.987373   164A      1.006671   165A      1.018828  
     166A      1.029153   167A      1.035698   168A      1.059993  
     169A      1.067801   170A      1.070027   171A      1.079236  
     172A      1.099619   173A      1.106500   174A      1.117446  
     175A      1.129625   176A      1.144319   177A      1.149030  
     178A      1.171509   179A      1.183722   180A      1.190439  
     181A      1.215019   182A      1.222498   183A      1.232934  
     184A      1.250949   185A      1.258646   186A      1.268063  
     187A      1.278314   188A      1.298474   189A      1.301609  
     190A      1.322425   191A      1.327388   192A      1.342147  
     193A      1.353912   194A      1.369329   195A      1.375220  
     196A      1.380933   197A      1.388883   198A      1.396601  
     199A      1.409282   200A      1.415985   201A      1.431586  
     202A      1.434831   203A      1.441398   204A      1.461608  
     205A      1.466809   206A      1.470183   207A      1.485540  
     208A      1.489806   209A      1.499935   210A      1.518039  
     211A      1.525647   212A      1.532295   213A      1.535723  
     214A      1.554473   215A      1.565133   216A      1.567539  
     217A      1.582809   218A      1.593736   219A      1.605063  
     220A      1.608997   221A      1.610806   222A      1.618712  
     223A      1.636842   224A      1.649294   225A      1.655444  
     226A      1.664018   227A      1.671826   228A      1.681416  
     229A      1.690130   230A      1.708844   231A      1.716007  
     232A      1.731067   233A      1.734658   234A      1.748750  
     235A      1.762582   236A      1.782455   237A      1.788051  
     238A      1.801259   239A      1.818967   240A      1.827182  
     241A      1.848811   242A      1.863289   243A      1.879496  
     244A      1.888587   245A      1.893347   246A      1.911656  
     247A      1.924807   248A      1.929814   249A      1.950364  
     250A      1.973508   251A      1.991033   252A      2.006329  
     253A      2.020218   254A      2.039444   255A      2.088820  
     256A      2.105283   257A      2.112271   258A      2.212851  
     259A      2.275560   260A      2.419723   261A      2.468836  
     262A      2.489811   263A      2.513602   264A      2.638175  
     265A      2.716116   266A      2.736508   267A      2.781921  
     268A      2.791647   269A      2.794083   270A      2.800483  
     271A      2.820619   272A      2.823258   273A      2.836872  
     274A      2.864135   275A      2.868680   276A      2.883866  
     277A      2.905248   278A      2.923593   279A      2.928777  
     280A      2.936786   281A      2.938820   282A      2.964173  
     283A      2.995566   284A      3.011883   285A      3.022817  
     286A      3.035007   287A      3.056660   288A      3.058971  
     289A      3.067260   290A      3.084178   291A      3.084930  
     292A      3.094886   293A      3.110255   294A      3.118154  
     295A      3.128663   296A      3.139165   297A      3.165521  
     298A      3.175116   299A      3.181421   300A      3.184634  
     301A      3.197258   302A      3.202513   303A      3.218955  
     304A      3.229053   305A      3.247133   306A      3.254554  
     307A      3.275634   308A      3.283064   309A      3.294089  
     310A      3.305731   311A      3.318257   312A      3.333395  
     313A      3.340928   314A      3.347590   315A      3.356689  
     316A      3.369643   317A      3.390445   318A      3.397843  
     319A      3.411467   320A      3.419231   321A      3.426424  
     322A      3.437616   323A      3.445624   324A      3.452133  
     325A      3.458077   326A      3.459456   327A      3.474615  
     328A      3.485095   329A      3.490060   330A      3.495534  
     331A      3.497003   332A      3.507079   333A      3.514465  
     334A      3.528299   335A      3.544183   336A      3.545969  
     337A      3.561438   338A      3.568729   339A      3.578468  
     340A      3.584780   341A      3.588793   342A      3.607695  
     343A      3.611205   344A      3.621071   345A      3.630256  
     346A      3.655746   347A      3.671343   348A      3.678802  
     349A      3.692704   350A      3.699057   351A      3.708113  
     352A      3.741811   353A      3.751443   354A      3.754901  
     355A      3.771976   356A      3.778962   357A      3.788596  
     358A      3.800825   359A      3.805948   360A      3.816211  
     361A      3.818476   362A      3.830474   363A      3.847140  
     364A      3.856849   365A      3.866284   366A      3.879643  
     367A      3.919334   368A      3.928891   369A      3.934064  
     370A      3.951596   371A      3.970129   372A      3.975860  
     373A      3.987408   374A      3.990738   375A      4.015723  
     376A      4.020017   377A      4.029462   378A      4.046569  
     379A      4.077168   380A      4.093002   381A      4.094187  
     382A      4.113228   383A      4.134645   384A      4.143293  
     385A      4.149005   386A      4.178094   387A      4.195787  
     388A      4.197601   389A      4.208224   390A      4.226178  
     391A      4.252544   392A      4.259559   393A      4.272790  
     394A      4.284419   395A      4.296206   396A      4.308381  
     397A      4.319075   398A      4.320499   399A      4.339959  
     400A      4.348864   401A      4.359119   402A      4.370509  
     403A      4.378637   404A      4.387354   405A      4.396673  
     406A      4.406411   407A      4.412619   408A      4.426601  
     409A      4.433127   410A      4.442158   411A      4.453299  
     412A      4.466395   413A      4.473428   414A      4.484659  
     415A      4.499246   416A      4.513831   417A      4.522508  
     418A      4.525296   419A      4.539820   420A      4.546077  
     421A      4.560008   422A      4.579618   423A      4.584859  
     424A      4.594573   425A      4.605854   426A      4.626051  
     427A      4.641815   428A      4.649163   429A      4.655376  
     430A      4.662006   431A      4.670966   432A      4.687184  
     433A      4.705679   434A      4.715234   435A      4.743475  
     436A      4.755881   437A      4.796744   438A      4.806436  
     439A      4.818053   440A      4.827774   441A      4.846069  
     442A      4.849136   443A      4.856883   444A      4.870371  
     445A      4.904130   446A      4.917477   447A      4.930904  
     448A      4.941285   449A      4.969684   450A      5.025816  
     451A      5.038318   452A      5.069847   453A      5.074604  
     454A      5.079775   455A      5.101237   456A      5.134340  
     457A      5.175245   458A      5.187961   459A      5.205983  
     460A      5.206767   461A      5.232510   462A      5.242523  
     463A      5.253373   464A      5.291306   465A      5.309077  
     466A      5.313074   467A      5.318101   468A      5.330150  
     469A      5.341998   470A      5.353480   471A      5.377175  
     472A      5.382839   473A      5.401503   474A      5.435369  
     475A      5.443933   476A      5.467716   477A      5.477641  
     478A      5.505320   479A      5.531932   480A      5.562266  
     481A      5.568021   482A      5.587957   483A      5.616108  
     484A      5.638016   485A      5.655970   486A      5.663599  
     487A      5.684736   488A      5.689234   489A      5.757121  
     490A      5.772684   491A      5.782360   492A      5.787086  
     493A      5.802939   494A      5.822771   495A      5.848142  
     496A      5.858319   497A      5.867907   498A      5.878160  
     499A      5.941598   500A      5.945533   501A      5.976357  
     502A      5.981775   503A      6.016848   504A      6.069763  
     505A      6.094407   506A      6.120304   507A      6.213603  
     508A      6.328292   509A      6.394711   510A      6.447840  
     511A      6.466430   512A      6.479439   513A      6.519219  
     514A      6.543315   515A      6.546866   516A      6.578009  
     517A      6.588978   518A      6.642840   519A      6.691703  
     520A      6.985022   521A      7.088561   522A      7.254211  
     523A      7.357126   524A      7.433855   525A      7.559792  
     526A      7.692893   527A      7.916250   528A      8.199653  
     529A     12.528247   530A     13.637789   531A     13.823192  
     532A     14.028449   533A     14.205020   534A     14.659070  
     535A     14.760118   536A     15.345160  

    Final Occupation by Irrep:
              A 
    DOCC [    33 ]

  @DF-RHF Final Energy:  -349.35260335921703

   => Energetics <=

    Nuclear Repulsion Energy =            389.1936329773717489
    One-Electron Energy =               -1244.9223116148514237
    Two-Electron Energy =                 506.3760752782626469
    Total Energy =                       -349.3526033592170279

Computation Completed


Properties will be evaluated at   0.000000,   0.000000,   0.000000 [a0]

Properties computed using the SCF density matrix

  Nuclear Dipole Moment: [e a0]
     X:    -0.7741      Y:     2.9207      Z:    -1.5315

  Electronic Dipole Moment: [e a0]
     X:     0.8891      Y:    -2.9099      Z:     0.9222

  Dipole Moment: [e a0]
     X:     0.1150      Y:     0.0108      Z:    -0.6093     Total:     0.6201

  Dipole Moment: [D]
     X:     0.2922      Y:     0.0275      Z:    -1.5486     Total:     1.5762


*** tstop() called on r282 at Fri Sep 10 16:49:08 2021
Module time:
	user time   =      85.26 seconds =       1.42 minutes
	system time =       1.72 seconds =       0.03 minutes
	total time  =         87 seconds =       1.45 minutes
Total time:
	user time   =      85.26 seconds =       1.42 minutes
	system time =       1.72 seconds =       0.03 minutes
	total time  =         87 seconds =       1.45 minutes

  //>>>>>>>>>>>>>>>>>>>>>>>>>>>>>>>>>>>//
  //            Monomer A HF           //
  //<<<<<<<<<<<<<<<<<<<<<<<<<<<<<<<<<<<//


*** tstart() called on r282
*** at Fri Sep 10 16:49:08 2021

   => Loading Basis Set <=

    Name: JUN-CC-PVTZ
    Role: ORBITAL
    Keyword: BASIS
    atoms 1-2, 9, 12, 16-18             entry C          line   217 file /home/r08543048/miniconda3/share/psi4/basis/jun-cc-pvtz.gbs 
    atoms 3-4, 6-8, 10-11, 13-15, 19-24 entry H          line    36 file /home/r08543048/miniconda3/share/psi4/basis/jun-cc-pvtz.gbs 
    atoms 5                             entry O          line   305 file /home/r08543048/miniconda3/share/psi4/basis/jun-cc-pvtz.gbs 


         ---------------------------------------------------------
                                   SCF
               by Justin Turney, Rob Parrish, Andy Simmonett
                          and Daniel G. A. Smith
                              RHF Reference
                        1 Threads,  20980 MiB Core
         ---------------------------------------------------------

  ==> Geometry <==

    Molecular point group: c1
    Full point group: C1

    Geometry (in Angstrom), charge = 0, multiplicity = 1:

       Center              X                  Y                   Z               Mass       
    ------------   -----------------  -----------------  -----------------  -----------------
         C           -1.770308701027    -0.625267140016    -0.742662085420    12.000000000000
         C           -1.339755701027    -1.432588140016     0.473616914580    12.000000000000
         H           -0.907348701027    -0.490356140016    -1.403852085420     1.007825032230
         H           -2.490319701027    -1.236469140016    -1.295277085420     1.007825032230
         O           -0.244408701027    -0.867229140016     1.189137914580    15.994914619570
         H           -2.160721701027    -1.487970140016     1.190186914580     1.007825032230
         H           -1.101327701027    -2.456387140016     0.166184914580     1.007825032230
         H            0.509435298973    -0.842368140016     0.583584914580     1.007825032230
         C           -2.403607701027     0.730283859984    -0.433227085420    12.000000000000
         H           -2.878363701027     1.105108859984    -1.343058085420     1.007825032230
         H           -3.207448701027     0.584748859984     0.294077914580     1.007825032230
         C           -1.428274701027     1.783187859984     0.085065914580    12.000000000000
         H           -0.610528701027     1.926705859984    -0.624388085420     1.007825032230
         H           -1.928061701027     2.743536859984     0.213957914580     1.007825032230
         H           -0.995884701027     1.483485859984     1.036554914580     1.007825032230
      Gh(C)           2.536279298973    -1.002568140016    -0.746898085420    12.000000000000
      Gh(C)           2.255814298973     0.301659859984    -0.643391085420    12.000000000000
      Gh(C)           2.544872298973     1.139195859984     0.560194914580    12.000000000000
      Gh(H)           2.303685298973    -1.557830140016    -1.645019085420     1.007825032230
      Gh(H)           3.014816298973    -1.536290140016     0.065055914580     1.007825032230
      Gh(H)           1.780337298973     0.797768859984    -1.483880085420     1.007825032230
      Gh(H)           1.623554298973     1.559994859984     0.965870914580     1.007825032230
      Gh(H)           3.027511298973     0.551550859984     1.339831914580     1.007825032230
      Gh(H)           3.196184298973     1.974763859984     0.300446914580     1.007825032230

  Running in c1 symmetry.

  Rotational constants: A =      0.07695  B =      0.03285  C =      0.02811 [cm^-1]
  Rotational constants: A =   2307.02763  B =    984.86729  C =    842.60623 [MHz]
  Nuclear repulsion =  192.297392724449281

  Charge       = 0
  Multiplicity = 1
  Electrons    = 42
  Nalpha       = 21
  Nbeta        = 21

  ==> Algorithm <==

  SCF Algorithm Type is DF.
  DIIS enabled.
  MOM disabled.
  Fractional occupation disabled.
  Guess Type is SAD.
  Energy threshold   = 1.00e-08
  Density threshold  = 1.00e-08
  Integral threshold = 0.00e+00

  ==> Primary Basis <==

  Basis Set: JUN-CC-PVTZ
    Blend: JUN-CC-PVTZ
    Number of shells: 200
    Number of basis function: 536
    Number of Cartesian functions: 600
    Spherical Harmonics?: true
    Max angular momentum: 3

   => Loading Basis Set <=

    Name: (JUN-CC-PVTZ AUX)
    Role: JKFIT
    Keyword: DF_BASIS_SCF
    atoms 1-2, 9, 12, 16-18             entry C          line   152 file /home/r08543048/miniconda3/share/psi4/basis/jun-cc-pvtz-jkfit.gbs 
    atoms 3-4, 6-8, 10-11, 13-15, 19-24 entry H          line    70 file /home/r08543048/miniconda3/share/psi4/basis/jun-cc-pvtz-jkfit.gbs 
    atoms 5                             entry O          line   272 file /home/r08543048/miniconda3/share/psi4/basis/jun-cc-pvtz-jkfit.gbs 

  ==> Pre-Iterations <==

   -------------------------------------------------------
    Irrep   Nso     Nmo     Nalpha   Nbeta   Ndocc  Nsocc
   -------------------------------------------------------
     A        536     536       0       0       0       0
   -------------------------------------------------------
    Total     536     536      21      21      21       0
   -------------------------------------------------------

  ==> Integral Setup <==

  ==> DiskDFJK: Density-Fitted J/K Matrices <==

    J tasked:                  Yes
    K tasked:                  Yes
    wK tasked:                  No
    OpenMP threads:              1
    Integrals threads:           1
    Memory [MiB]:            15735
    Algorithm:                Core
    Integral Cache:           LOAD
    Schwarz Cutoff:          1E-12
    Fitting Condition:       1E-10

   => Auxiliary Basis Set <=

  Basis Set: (JUN-CC-PVTZ AUX)
    Blend: JUN-CC-PVTZ-JKFIT
    Number of shells: 392
    Number of basis function: 1240
    Number of Cartesian functions: 1488
    Spherical Harmonics?: true
    Max angular momentum: 4

  Minimum eigenvalue in the overlap matrix is 3.5992053018E-05.
  Using Symmetric Orthogonalization.

  SCF Guess: Superposition of Atomic Densities via on-the-fly atomic UHF.

  ==> Iterations <==

                           Total Energy        Delta E     RMS |[F,P]|

   @DF-RHF iter SAD:  -231.56612842003238   -2.31566e+02   0.00000e+00 
   @DF-RHF iter   1:  -232.00791440731331   -4.41786e-01   1.18071e-03 DIIS
   @DF-RHF iter   2:  -232.18495059146761   -1.77036e-01   6.25947e-04 DIIS
   @DF-RHF iter   3:  -232.23310805923251   -4.81575e-02   1.07271e-04 DIIS
   @DF-RHF iter   4:  -232.23584605164388   -2.73799e-03   3.61718e-05 DIIS
   @DF-RHF iter   5:  -232.23606222604212   -2.16174e-04   9.25216e-06 DIIS
   @DF-RHF iter   6:  -232.23607970155791   -1.74755e-05   2.09277e-06 DIIS
   @DF-RHF iter   7:  -232.23608099162612   -1.29007e-06   5.08924e-07 DIIS
   @DF-RHF iter   8:  -232.23608107136673   -7.97406e-08   1.61611e-07 DIIS
   @DF-RHF iter   9:  -232.23608107982619   -8.45947e-09   4.49275e-08 DIIS
   @DF-RHF iter  10:  -232.23608108058301   -7.56813e-10   1.05173e-08 DIIS
   @DF-RHF iter  11:  -232.23608108062439   -4.13820e-11   2.68127e-09 DIIS
  Energy and wave function converged.


  ==> Post-Iterations <==

    Orbital Energies [Eh]
    ---------------------

    Doubly Occupied:                                                      

       1A    -20.555079     2A    -11.271843     3A    -11.221047  
       4A    -11.216737     5A    -11.201753     6A     -1.355844  
       7A     -1.068341     8A     -0.972509     9A     -0.866246  
      10A     -0.790755    11A     -0.677520    12A     -0.638928  
      13A     -0.627706    14A     -0.580555    15A     -0.560511  
      16A     -0.536123    17A     -0.504597    18A     -0.495220  
      19A     -0.473158    20A     -0.460008    21A     -0.425143  

    Virtual:                                                              

      22A      0.030132    23A      0.046460    24A      0.052723  
      25A      0.056350    26A      0.066539    27A      0.070327  
      28A      0.072130    29A      0.085144    30A      0.088819  
      31A      0.097374    32A      0.101384    33A      0.106231  
      34A      0.112285    35A      0.115234    36A      0.117845  
      37A      0.127569    38A      0.135471    39A      0.140399  
      40A      0.147146    41A      0.148287    42A      0.154850  
      43A      0.155991    44A      0.164830    45A      0.171460  
      46A      0.180697    47A      0.199980    48A      0.203860  
      49A      0.210579    50A      0.219593    51A      0.231431  
      52A      0.246847    53A      0.247894    54A      0.264664  
      55A      0.273464    56A      0.278441    57A      0.283788  
      58A      0.288363    59A      0.289571    60A      0.298786  
      61A      0.306082    62A      0.313986    63A      0.319473  
      64A      0.321216    65A      0.327006    66A      0.334386  
      67A      0.340804    68A      0.350700    69A      0.351866  
      70A      0.355706    71A      0.361516    72A      0.365513  
      73A      0.370673    74A      0.376403    75A      0.377691  
      76A      0.388419    77A      0.393400    78A      0.400079  
      79A      0.403903    80A      0.410382    81A      0.416299  
      82A      0.421929    83A      0.429541    84A      0.435773  
      85A      0.445609    86A      0.453545    87A      0.458395  
      88A      0.465096    89A      0.478877    90A      0.485316  
      91A      0.489622    92A      0.499869    93A      0.505426  
      94A      0.514732    95A      0.532638    96A      0.538113  
      97A      0.538700    98A      0.543845    99A      0.545203  
     100A      0.553062   101A      0.559060   102A      0.570337  
     103A      0.580671   104A      0.584564   105A      0.586039  
     106A      0.600266   107A      0.605152   108A      0.618779  
     109A      0.626592   110A      0.629859   111A      0.636303  
     112A      0.647094   113A      0.652221   114A      0.666727  
     115A      0.670297   116A      0.679391   117A      0.693283  
     118A      0.695371   119A      0.699512   120A      0.707053  
     121A      0.718309   122A      0.722255   123A      0.741081  
     124A      0.750936   125A      0.761164   126A      0.769910  
     127A      0.774598   128A      0.798093   129A      0.801194  
     130A      0.806785   131A      0.815015   132A      0.825085  
     133A      0.830040   134A      0.845610   135A      0.854945  
     136A      0.860655   137A      0.873647   138A      0.889462  
     139A      0.891635   140A      0.906265   141A      0.908787  
     142A      0.929993   143A      0.958818   144A      0.974462  
     145A      0.979861   146A      1.001172   147A      1.009167  
     148A      1.028100   149A      1.047245   150A      1.059183  
     151A      1.071236   152A      1.084185   153A      1.090122  
     154A      1.102752   155A      1.117367   156A      1.125795  
     157A      1.139432   158A      1.157680   159A      1.171128  
     160A      1.187172   161A      1.191465   162A      1.197125  
     163A      1.206964   164A      1.208710   165A      1.216946  
     166A      1.236282   167A      1.247289   168A      1.263199  
     169A      1.272520   170A      1.282214   171A      1.286020  
     172A      1.302951   173A      1.306175   174A      1.320111  
     175A      1.323407   176A      1.329849   177A      1.335374  
     178A      1.343092   179A      1.365263   180A      1.368920  
     181A      1.382119   182A      1.386275   183A      1.399790  
     184A      1.411474   185A      1.415404   186A      1.420993  
     187A      1.433353   188A      1.441295   189A      1.448801  
     190A      1.455883   191A      1.477743   192A      1.481302  
     193A      1.496518   194A      1.498298   195A      1.507134  
     196A      1.512858   197A      1.522317   198A      1.524312  
     199A      1.533170   200A      1.545566   201A      1.549334  
     202A      1.556753   203A      1.565021   204A      1.571914  
     205A      1.584278   206A      1.589732   207A      1.596745  
     208A      1.609822   209A      1.618752   210A      1.636882  
     211A      1.644004   212A      1.659413   213A      1.672548  
     214A      1.675379   215A      1.680612   216A      1.684669  
     217A      1.691897   218A      1.711162   219A      1.715718  
     220A      1.725819   221A      1.737188   222A      1.754368  
     223A      1.762296   224A      1.780172   225A      1.792108  
     226A      1.814590   227A      1.822177   228A      1.827628  
     229A      1.856921   230A      1.874405   231A      1.887621  
     232A      1.904723   233A      1.909370   234A      1.920634  
     235A      1.948915   236A      1.972228   237A      1.983902  
     238A      1.998084   239A      2.001669   240A      2.027855  
     241A      2.039810   242A      2.070576   243A      2.098819  
     244A      2.102207   245A      2.112220   246A      2.175505  
     247A      2.228373   248A      2.260087   249A      2.291718  
     250A      2.328374   251A      2.383406   252A      2.435961  
     253A      2.453956   254A      2.475396   255A      2.496286  
     256A      2.512937   257A      2.545177   258A      2.560909  
     259A      2.662025   260A      2.682488   261A      2.791665  
     262A      2.804469   263A      2.818667   264A      2.848328  
     265A      2.879959   266A      2.898088   267A      2.909144  
     268A      2.928545   269A      2.934282   270A      2.955033  
     271A      2.992384   272A      3.022167   273A      3.044253  
     274A      3.061652   275A      3.078051   276A      3.087852  
     277A      3.111691   278A      3.120186   279A      3.167078  
     280A      3.177673   281A      3.197825   282A      3.218468  
     283A      3.250156   284A      3.267034   285A      3.269122  
     286A      3.317990   287A      3.326101   288A      3.368250  
     289A      3.394778   290A      3.400857   291A      3.405956  
     292A      3.423027   293A      3.432552   294A      3.437062  
     295A      3.446503   296A      3.453725   297A      3.476177  
     298A      3.480812   299A      3.482121   300A      3.503744  
     301A      3.512208   302A      3.517355   303A      3.535090  
     304A      3.538899   305A      3.544898   306A      3.562755  
     307A      3.568981   308A      3.576446   309A      3.592973  
     310A      3.598478   311A      3.607875   312A      3.619710  
     313A      3.628840   314A      3.638307   315A      3.653743  
     316A      3.664679   317A      3.678901   318A      3.693917  
     319A      3.702911   320A      3.709093   321A      3.719385  
     322A      3.736075   323A      3.752260   324A      3.763924  
     325A      3.773988   326A      3.776805   327A      3.792094  
     328A      3.804334   329A      3.821363   330A      3.837912  
     331A      3.843996   332A      3.860018   333A      3.873678  
     334A      3.880278   335A      3.884933   336A      3.914483  
     337A      3.929951   338A      3.938303   339A      3.956487  
     340A      3.960089   341A      3.969859   342A      3.983566  
     343A      3.989165   344A      4.002150   345A      4.017811  
     346A      4.036559   347A      4.041418   348A      4.071117  
     349A      4.080181   350A      4.089439   351A      4.100724  
     352A      4.111069   353A      4.127291   354A      4.140341  
     355A      4.152442   356A      4.161370   357A      4.182003  
     358A      4.203201   359A      4.210460   360A      4.223945  
     361A      4.230431   362A      4.250071   363A      4.255050  
     364A      4.266111   365A      4.274946   366A      4.284294  
     367A      4.287187   368A      4.307688   369A      4.315906  
     370A      4.330890   371A      4.360013   372A      4.364525  
     373A      4.377032   374A      4.389754   375A      4.410701  
     376A      4.412211   377A      4.430621   378A      4.436582  
     379A      4.436865   380A      4.448370   381A      4.462579  
     382A      4.473290   383A      4.484823   384A      4.502171  
     385A      4.506098   386A      4.513464   387A      4.515201  
     388A      4.529147   389A      4.537008   390A      4.545866  
     391A      4.558174   392A      4.576077   393A      4.582323  
     394A      4.585848   395A      4.593659   396A      4.619478  
     397A      4.628846   398A      4.635254   399A      4.643444  
     400A      4.644549   401A      4.657095   402A      4.669083  
     403A      4.680964   404A      4.686526   405A      4.719125  
     406A      4.720936   407A      4.736575   408A      4.756138  
     409A      4.770519   410A      4.788294   411A      4.796759  
     412A      4.808843   413A      4.813113   414A      4.820593  
     415A      4.830946   416A      4.841095   417A      4.844767  
     418A      4.852825   419A      4.862251   420A      4.890725  
     421A      4.897773   422A      4.916680   423A      4.917661  
     424A      4.922725   425A      4.940624   426A      4.947799  
     427A      4.970609   428A      4.974014   429A      4.987085  
     430A      5.014489   431A      5.030480   432A      5.052985  
     433A      5.065531   434A      5.075426   435A      5.077846  
     436A      5.099535   437A      5.115539   438A      5.141537  
     439A      5.154836   440A      5.163616   441A      5.188991  
     442A      5.200970   443A      5.227660   444A      5.244904  
     445A      5.268651   446A      5.294361   447A      5.308992  
     448A      5.319294   449A      5.326391   450A      5.341118  
     451A      5.377358   452A      5.398487   453A      5.398919  
     454A      5.429751   455A      5.447018   456A      5.468660  
     457A      5.484865   458A      5.501810   459A      5.528870  
     460A      5.551640   461A      5.559307   462A      5.585193  
     463A      5.609420   464A      5.620441   465A      5.653461  
     466A      5.665990   467A      5.674627   468A      5.771306  
     469A      5.773932   470A      5.796431   471A      5.811841  
     472A      5.822785   473A      5.836176   474A      5.845395  
     475A      5.862587   476A      5.872644   477A      5.910131  
     478A      5.935540   479A      5.944423   480A      5.972405  
     481A      6.002651   482A      6.015836   483A      6.029222  
     484A      6.075853   485A      6.106550   486A      6.121502  
     487A      6.157064   488A      6.206449   489A      6.243290  
     490A      6.268256   491A      6.320416   492A      6.355199  
     493A      6.379182   494A      6.401098   495A      6.455899  
     496A      6.532569   497A      6.539787   498A      6.573034  
     499A      6.586052   500A      6.612089   501A      6.636536  
     502A      6.714651   503A      6.751463   504A      6.851214  
     505A      6.974573   506A      7.071807   507A      7.092914  
     508A      7.238423   509A      7.343945   510A      7.381116  
     511A      7.417948   512A      7.423787   513A      7.533107  
     514A      7.588999   515A      7.605524   516A      7.647041  
     517A      7.685828   518A      7.820133   519A      7.901213  
     520A      7.915261   521A      7.968074   522A      8.123102  
     523A      8.188684   524A      8.301226   525A      8.733950  
     526A      9.423257   527A      9.914620   528A     10.193137  
     529A     13.632917   530A     13.818805   531A     14.023273  
     532A     14.200039   533A     14.743930   534A     41.569651  
     535A     45.927296   536A     47.198697  

    Final Occupation by Irrep:
              A 
    DOCC [    21 ]

  @DF-RHF Final Energy:  -232.23608108062439

   => Energetics <=

    Nuclear Repulsion Energy =            192.2973927244492813
    One-Electron Energy =                -696.0676965729775247
    Two-Electron Energy =                 271.5342227679038274
    Total Energy =                       -232.2360810806243876

Computation Completed


Properties will be evaluated at   0.000000,   0.000000,   0.000000 [a0]

Properties computed using the SCF density matrix

  Nuclear Dipole Moment: [e a0]
     X:  -112.2073      Y:    -5.4313      Z:     8.7453

  Electronic Dipole Moment: [e a0]
     X:   112.1602      Y:     5.2264      Z:    -9.4029

  Dipole Moment: [e a0]
     X:    -0.0471      Y:    -0.2049      Z:    -0.6575     Total:     0.6903

  Dipole Moment: [D]
     X:    -0.1197      Y:    -0.5208      Z:    -1.6713     Total:     1.7546


*** tstop() called on r282 at Fri Sep 10 16:50:01 2021
Module time:
	user time   =      51.36 seconds =       0.86 minutes
	system time =       0.84 seconds =       0.01 minutes
	total time  =         53 seconds =       0.88 minutes
Total time:
	user time   =     136.63 seconds =       2.28 minutes
	system time =       2.56 seconds =       0.04 minutes
	total time  =        140 seconds =       2.33 minutes

  //>>>>>>>>>>>>>>>>>>>>>>>>>>>>>>>>>>>//
  //            Monomer B HF           //
  //<<<<<<<<<<<<<<<<<<<<<<<<<<<<<<<<<<<//


*** tstart() called on r282
*** at Fri Sep 10 16:50:01 2021

   => Loading Basis Set <=

    Name: JUN-CC-PVTZ
    Role: ORBITAL
    Keyword: BASIS
    atoms 1-2, 9, 12, 16-18             entry C          line   217 file /home/r08543048/miniconda3/share/psi4/basis/jun-cc-pvtz.gbs 
    atoms 3-4, 6-8, 10-11, 13-15, 19-24 entry H          line    36 file /home/r08543048/miniconda3/share/psi4/basis/jun-cc-pvtz.gbs 
    atoms 5                             entry O          line   305 file /home/r08543048/miniconda3/share/psi4/basis/jun-cc-pvtz.gbs 


         ---------------------------------------------------------
                                   SCF
               by Justin Turney, Rob Parrish, Andy Simmonett
                          and Daniel G. A. Smith
                              RHF Reference
                        1 Threads,  20980 MiB Core
         ---------------------------------------------------------

  ==> Geometry <==

    Molecular point group: c1
    Full point group: C1

    Geometry (in Angstrom), charge = 0, multiplicity = 1:

       Center              X                  Y                   Z               Mass       
    ------------   -----------------  -----------------  -----------------  -----------------
      Gh(C)          -1.770308701027    -0.625267140016    -0.742662085420    12.000000000000
      Gh(C)          -1.339755701027    -1.432588140016     0.473616914580    12.000000000000
      Gh(H)          -0.907348701027    -0.490356140016    -1.403852085420     1.007825032230
      Gh(H)          -2.490319701027    -1.236469140016    -1.295277085420     1.007825032230
      Gh(O)          -0.244408701027    -0.867229140016     1.189137914580    15.994914619570
      Gh(H)          -2.160721701027    -1.487970140016     1.190186914580     1.007825032230
      Gh(H)          -1.101327701027    -2.456387140016     0.166184914580     1.007825032230
      Gh(H)           0.509435298973    -0.842368140016     0.583584914580     1.007825032230
      Gh(C)          -2.403607701027     0.730283859984    -0.433227085420    12.000000000000
      Gh(H)          -2.878363701027     1.105108859984    -1.343058085420     1.007825032230
      Gh(H)          -3.207448701027     0.584748859984     0.294077914580     1.007825032230
      Gh(C)          -1.428274701027     1.783187859984     0.085065914580    12.000000000000
      Gh(H)          -0.610528701027     1.926705859984    -0.624388085420     1.007825032230
      Gh(H)          -1.928061701027     2.743536859984     0.213957914580     1.007825032230
      Gh(H)          -0.995884701027     1.483485859984     1.036554914580     1.007825032230
         C            2.536279298973    -1.002568140016    -0.746898085420    12.000000000000
         C            2.255814298973     0.301659859984    -0.643391085420    12.000000000000
         C            2.544872298973     1.139195859984     0.560194914580    12.000000000000
         H            2.303685298973    -1.557830140016    -1.645019085420     1.007825032230
         H            3.014816298973    -1.536290140016     0.065055914580     1.007825032230
         H            1.780337298973     0.797768859984    -1.483880085420     1.007825032230
         H            1.623554298973     1.559994859984     0.965870914580     1.007825032230
         H            3.027511298973     0.551550859984     1.339831914580     1.007825032230
         H            3.196184298973     1.974763859984     0.300446914580     1.007825032230

  Running in c1 symmetry.

  Rotational constants: A =      0.07695  B =      0.03285  C =      0.02811 [cm^-1]
  Rotational constants: A =   2307.02763  B =    984.86729  C =    842.60623 [MHz]
  Nuclear repulsion =   70.828023693595895

  Charge       = 0
  Multiplicity = 1
  Electrons    = 24
  Nalpha       = 12
  Nbeta        = 12

  ==> Algorithm <==

  SCF Algorithm Type is DF.
  DIIS enabled.
  MOM disabled.
  Fractional occupation disabled.
  Guess Type is SAD.
  Energy threshold   = 1.00e-08
  Density threshold  = 1.00e-08
  Integral threshold = 0.00e+00

  ==> Primary Basis <==

  Basis Set: JUN-CC-PVTZ
    Blend: JUN-CC-PVTZ
    Number of shells: 200
    Number of basis function: 536
    Number of Cartesian functions: 600
    Spherical Harmonics?: true
    Max angular momentum: 3

   => Loading Basis Set <=

    Name: (JUN-CC-PVTZ AUX)
    Role: JKFIT
    Keyword: DF_BASIS_SCF
    atoms 1-2, 9, 12, 16-18             entry C          line   152 file /home/r08543048/miniconda3/share/psi4/basis/jun-cc-pvtz-jkfit.gbs 
    atoms 3-4, 6-8, 10-11, 13-15, 19-24 entry H          line    70 file /home/r08543048/miniconda3/share/psi4/basis/jun-cc-pvtz-jkfit.gbs 
    atoms 5                             entry O          line   272 file /home/r08543048/miniconda3/share/psi4/basis/jun-cc-pvtz-jkfit.gbs 

  ==> Pre-Iterations <==

   -------------------------------------------------------
    Irrep   Nso     Nmo     Nalpha   Nbeta   Ndocc  Nsocc
   -------------------------------------------------------
     A        536     536       0       0       0       0
   -------------------------------------------------------
    Total     536     536      12      12      12       0
   -------------------------------------------------------

  ==> Integral Setup <==

  ==> DiskDFJK: Density-Fitted J/K Matrices <==

    J tasked:                  Yes
    K tasked:                  Yes
    wK tasked:                  No
    OpenMP threads:              1
    Integrals threads:           1
    Memory [MiB]:            15735
    Algorithm:                Core
    Integral Cache:           LOAD
    Schwarz Cutoff:          1E-12
    Fitting Condition:       1E-10

   => Auxiliary Basis Set <=

  Basis Set: (JUN-CC-PVTZ AUX)
    Blend: JUN-CC-PVTZ-JKFIT
    Number of shells: 392
    Number of basis function: 1240
    Number of Cartesian functions: 1488
    Spherical Harmonics?: true
    Max angular momentum: 4

  Minimum eigenvalue in the overlap matrix is 3.5992053018E-05.
  Using Symmetric Orthogonalization.

  SCF Guess: Superposition of Atomic Densities via on-the-fly atomic UHF.

  ==> Iterations <==

                           Total Energy        Delta E     RMS |[F,P]|

   @DF-RHF iter SAD:  -116.32980671245335   -1.16330e+02   0.00000e+00 
   @DF-RHF iter   1:  -116.98805117460049   -6.58244e-01   8.53854e-04 DIIS
   @DF-RHF iter   2:  -117.09548527189681   -1.07434e-01   3.66230e-04 DIIS
   @DF-RHF iter   3:  -117.11547742741291   -1.99922e-02   6.60210e-05 DIIS
   @DF-RHF iter   4:  -117.11677189327514   -1.29447e-03   1.99821e-05 DIIS
   @DF-RHF iter   5:  -117.11684647226537   -7.45790e-05   5.35017e-06 DIIS
   @DF-RHF iter   6:  -117.11685270786774   -6.23560e-06   9.65529e-07 DIIS
   @DF-RHF iter   7:  -117.11685301702769   -3.09160e-07   3.54329e-07 DIIS
   @DF-RHF iter   8:  -117.11685305782359   -4.07959e-08   1.22419e-07 DIIS
   @DF-RHF iter   9:  -117.11685306366343   -5.83984e-09   4.45806e-08 DIIS
   @DF-RHF iter  10:  -117.11685306460883   -9.45406e-10   1.02244e-08 DIIS
   @DF-RHF iter  11:  -117.11685306465337   -4.45368e-11   1.80690e-09 DIIS
  Energy and wave function converged.


  ==> Post-Iterations <==

    Orbital Energies [Eh]
    ---------------------

    Doubly Occupied:                                                      

       1A    -11.234751     2A    -11.220890     3A    -11.217846  
       4A     -1.064448     5A     -0.932927     6A     -0.757973  
       7A     -0.639449     8A     -0.582687     9A     -0.569329  
      10A     -0.523108    11A     -0.493128    12A     -0.357429  

    Virtual:                                                              

      13A      0.031659    14A      0.045372    15A      0.049228  
      16A      0.055346    17A      0.066416    18A      0.068471  
      19A      0.075163    20A      0.083084    21A      0.083804  
      22A      0.099563    23A      0.103494    24A      0.105575  
      25A      0.108828    26A      0.112670    27A      0.117565  
      28A      0.125119    29A      0.135586    30A      0.138031  
      31A      0.142703    32A      0.146157    33A      0.154738  
      34A      0.158680    35A      0.161353    36A      0.169069  
      37A      0.178505    38A      0.181359    39A      0.188635  
      40A      0.202528    41A      0.204723    42A      0.211121  
      43A      0.222318    44A      0.234555    45A      0.244508  
      46A      0.256697    47A      0.270938    48A      0.272308  
      49A      0.273397    50A      0.289966    51A      0.294214  
      52A      0.304305    53A      0.310311    54A      0.311915  
      55A      0.317751    56A      0.329860    57A      0.337031  
      58A      0.338355    59A      0.343147    60A      0.348645  
      61A      0.352937    62A      0.357204    63A      0.365731  
      64A      0.372330    65A      0.379525    66A      0.385194  
      67A      0.389160    68A      0.394727    69A      0.396609  
      70A      0.402622    71A      0.419048    72A      0.427277  
      73A      0.431255    74A      0.437394    75A      0.442897  
      76A      0.445782    77A      0.456158    78A      0.460279  
      79A      0.472250    80A      0.479881    81A      0.484507  
      82A      0.489257    83A      0.501535    84A      0.510274  
      85A      0.513422    86A      0.527008    87A      0.532237  
      88A      0.542507    89A      0.546881    90A      0.555030  
      91A      0.556718    92A      0.562840    93A      0.578244  
      94A      0.580782    95A      0.590328    96A      0.598338  
      97A      0.602578    98A      0.610735    99A      0.619537  
     100A      0.626945   101A      0.631663   102A      0.642481  
     103A      0.648353   104A      0.653589   105A      0.664010  
     106A      0.669863   107A      0.674398   108A      0.695409  
     109A      0.703878   110A      0.713321   111A      0.717682  
     112A      0.724486   113A      0.735366   114A      0.745243  
     115A      0.761001   116A      0.763997   117A      0.768730  
     118A      0.793893   119A      0.806412   120A      0.807582  
     121A      0.812490   122A      0.823915   123A      0.835855  
     124A      0.854849   125A      0.865993   126A      0.867295  
     127A      0.883613   128A      0.894219   129A      0.922200  
     130A      0.927394   131A      0.945571   132A      0.952909  
     133A      0.980604   134A      0.982943   135A      1.007551  
     136A      1.021920   137A      1.023036   138A      1.047212  
     139A      1.048355   140A      1.064170   141A      1.077343  
     142A      1.086983   143A      1.092672   144A      1.100635  
     145A      1.110652   146A      1.117618   147A      1.131150  
     148A      1.141936   149A      1.156358   150A      1.168150  
     151A      1.175531   152A      1.187390   153A      1.197545  
     154A      1.209734   155A      1.228653   156A      1.233043  
     157A      1.244279   158A      1.251985   159A      1.261448  
     160A      1.265940   161A      1.272585   162A      1.287918  
     163A      1.296315   164A      1.299222   165A      1.312906  
     166A      1.324938   167A      1.332174   168A      1.341515  
     169A      1.344176   170A      1.350302   171A      1.371363  
     172A      1.377482   173A      1.383660   174A      1.401089  
     175A      1.408142   176A      1.423617   177A      1.427531  
     178A      1.440105   179A      1.443706   180A      1.453810  
     181A      1.461861   182A      1.466287   183A      1.482879  
     184A      1.489034   185A      1.501717   186A      1.504325  
     187A      1.515589   188A      1.521487   189A      1.531011  
     190A      1.543467   191A      1.553432   192A      1.563812  
     193A      1.581003   194A      1.598717   195A      1.603875  
     196A      1.604636   197A      1.616382   198A      1.624075  
     199A      1.624940   200A      1.635054   201A      1.651934  
     202A      1.657805   203A      1.678815   204A      1.688541  
     205A      1.688937   206A      1.713788   207A      1.723610  
     208A      1.741705   209A      1.749868   210A      1.761907  
     211A      1.771896   212A      1.787687   213A      1.791852  
     214A      1.804515   215A      1.819859   216A      1.833506  
     217A      1.867427   218A      1.875454   219A      1.879145  
     220A      1.889963   221A      1.909439   222A      1.928833  
     223A      1.952297   224A      1.964600   225A      1.978296  
     226A      2.001662   227A      2.044123   228A      2.054487  
     229A      2.069751   230A      2.081413   231A      2.097358  
     232A      2.117108   233A      2.157656   234A      2.165769  
     235A      2.195511   236A      2.209882   237A      2.238015  
     238A      2.275966   239A      2.295322   240A      2.358652  
     241A      2.390256   242A      2.432287   243A      2.451964  
     244A      2.491430   245A      2.507702   246A      2.531523  
     247A      2.575546   248A      2.587415   249A      2.594195  
     250A      2.653430   251A      2.692910   252A      2.726295  
     253A      2.741153   254A      2.767299   255A      2.807872  
     256A      2.815609   257A      2.832512   258A      2.862243  
     259A      2.883894   260A      2.900686   261A      2.918018  
     262A      2.935052   263A      2.976479   264A      3.010876  
     265A      3.030435   266A      3.051921   267A      3.061792  
     268A      3.073396   269A      3.094582   270A      3.119513  
     271A      3.123973   272A      3.153699   273A      3.184714  
     274A      3.198378   275A      3.221763   276A      3.238179  
     277A      3.271644   278A      3.279001   279A      3.315594  
     280A      3.341307   281A      3.348072   282A      3.363555  
     283A      3.381253   284A      3.417659   285A      3.428505  
     286A      3.446641   287A      3.458367   288A      3.479451  
     289A      3.502078   290A      3.506730   291A      3.515567  
     292A      3.521559   293A      3.541788   294A      3.565075  
     295A      3.575357   296A      3.586720   297A      3.592084  
     298A      3.605800   299A      3.616846   300A      3.631075  
     301A      3.635695   302A      3.641184   303A      3.674344  
     304A      3.683976   305A      3.700173   306A      3.706889  
     307A      3.721905   308A      3.745651   309A      3.750090  
     310A      3.757448   311A      3.764906   312A      3.772445  
     313A      3.790125   314A      3.803721   315A      3.808972  
     316A      3.820827   317A      3.833140   318A      3.848705  
     319A      3.854666   320A      3.858819   321A      3.863668  
     322A      3.883996   323A      3.900940   324A      3.912694  
     325A      3.929871   326A      3.945088   327A      3.958170  
     328A      3.975289   329A      3.989716   330A      4.005927  
     331A      4.013162   332A      4.034609   333A      4.053877  
     334A      4.081122   335A      4.085031   336A      4.096614  
     337A      4.108596   338A      4.118817   339A      4.133013  
     340A      4.153296   341A      4.162769   342A      4.170930  
     343A      4.206374   344A      4.212824   345A      4.213241  
     346A      4.221871   347A      4.271032   348A      4.280241  
     349A      4.292738   350A      4.312559   351A      4.322049  
     352A      4.329959   353A      4.341698   354A      4.366506  
     355A      4.381241   356A      4.390856   357A      4.399849  
     358A      4.405315   359A      4.414767   360A      4.421788  
     361A      4.431408   362A      4.435184   363A      4.450099  
     364A      4.458766   365A      4.470036   366A      4.504605  
     367A      4.508736   368A      4.512657   369A      4.519147  
     370A      4.531080   371A      4.539715   372A      4.548023  
     373A      4.572747   374A      4.593544   375A      4.595640  
     376A      4.605370   377A      4.629192   378A      4.636916  
     379A      4.642717   380A      4.648980   381A      4.662904  
     382A      4.667322   383A      4.686855   384A      4.704919  
     385A      4.714820   386A      4.720080   387A      4.752698  
     388A      4.758169   389A      4.765177   390A      4.777097  
     391A      4.780984   392A      4.792080   393A      4.806134  
     394A      4.815002   395A      4.818193   396A      4.833738  
     397A      4.845627   398A      4.853084   399A      4.861274  
     400A      4.863618   401A      4.878131   402A      4.889820  
     403A      4.897387   404A      4.902185   405A      4.920635  
     406A      4.927854   407A      4.942532   408A      4.947808  
     409A      4.963154   410A      4.972417   411A      4.988544  
     412A      4.997660   413A      5.008294   414A      5.028947  
     415A      5.037779   416A      5.039550   417A      5.056065  
     418A      5.067086   419A      5.082589   420A      5.087202  
     421A      5.102956   422A      5.113779   423A      5.121906  
     424A      5.142150   425A      5.148148   426A      5.159065  
     427A      5.195401   428A      5.202841   429A      5.209082  
     430A      5.234143   431A      5.235407   432A      5.249818  
     433A      5.290732   434A      5.310103   435A      5.323967  
     436A      5.340434   437A      5.345854   438A      5.356408  
     439A      5.363369   440A      5.397374   441A      5.415091  
     442A      5.444070   443A      5.445659   444A      5.484001  
     445A      5.527407   446A      5.548447   447A      5.572133  
     448A      5.579145   449A      5.596474   450A      5.633880  
     451A      5.646979   452A      5.669217   453A      5.689002  
     454A      5.691588   455A      5.707887   456A      5.739239  
     457A      5.771273   458A      5.780956   459A      5.789845  
     460A      5.847185   461A      5.860501   462A      5.877668  
     463A      5.942277   464A      5.956743   465A      5.986674  
     466A      5.998836   467A      6.055683   468A      6.096438  
     469A      6.103286   470A      6.127121   471A      6.176845  
     472A      6.222240   473A      6.246222   474A      6.257885  
     475A      6.354961   476A      6.387978   477A      6.393874  
     478A      6.410541   479A      6.443890   480A      6.457365  
     481A      6.463530   482A      6.482875   483A      6.490043  
     484A      6.538924   485A      6.562279   486A      6.662002  
     487A      6.702969   488A      6.750491   489A      6.807065  
     490A      6.934615   491A      6.954140   492A      7.012032  
     493A      7.158040   494A      7.307277   495A      7.380567  
     496A      7.441641   497A      7.508524   498A      7.551580  
     499A      7.601244   500A      7.666257   501A      7.699567  
     502A      7.701293   503A      7.752725   504A      7.759838  
     505A      7.818352   506A      7.851348   507A      7.906976  
     508A      7.957463   509A      8.002324   510A      8.109084  
     511A      8.245667   512A      8.344990   513A      8.378595  
     514A      8.554930   515A      8.733761   516A      9.552382  
     517A      9.595876   518A      9.620587   519A      9.825721  
     520A      9.909858   521A      9.963992   522A     10.062118  
     523A     10.180310   524A     10.398136   525A     11.292027  
     526A     11.768597   527A     12.530001   528A     12.833510  
     529A     13.656679   530A     14.680708   531A     15.350260  
     532A     43.732186   533A     44.302683   534A     45.299457  
     535A     45.852141   536A     61.707133  

    Final Occupation by Irrep:
              A 
    DOCC [    12 ]

  @DF-RHF Final Energy:  -117.11685306465337

   => Energetics <=

    Nuclear Repulsion Energy =             70.8280236935958953
    One-Electron Energy =                -296.7018209169546026
    Two-Electron Energy =                 108.7569441587053376
    Total Energy =                       -117.1168530646533696

Computation Completed


Properties will be evaluated at   0.000000,   0.000000,   0.000000 [a0]

Properties computed using the SCF density matrix

  Nuclear Dipole Moment: [e a0]
     X:   111.4332      Y:     8.3520      Z:   -10.2768

  Electronic Dipole Moment: [e a0]
     X:  -111.4424      Y:    -8.1974      Z:    10.3444

  Dipole Moment: [e a0]
     X:    -0.0093      Y:     0.1546      Z:     0.0675     Total:     0.1689

  Dipole Moment: [D]
     X:    -0.0236      Y:     0.3929      Z:     0.1717     Total:     0.4294


*** tstop() called on r282 at Fri Sep 10 16:50:47 2021
Module time:
	user time   =      45.64 seconds =       0.76 minutes
	system time =       0.70 seconds =       0.01 minutes
	total time  =         46 seconds =       0.77 minutes
Total time:
	user time   =     182.28 seconds =       3.04 minutes
	system time =       3.26 seconds =       0.05 minutes
	total time  =        186 seconds =       3.10 minutes
  Constructing Basis Sets for SAPT...

   => Loading Basis Set <=

    Name: (JUN-CC-PVTZ AUX)
    Role: RIFIT
    Keyword: DF_BASIS_SAPT
    atoms 1-2, 9, 12, 16-18             entry C          line   132 file /home/r08543048/miniconda3/share/psi4/basis/jun-cc-pvtz-ri.gbs 
    atoms 3-4, 6-8, 10-11, 13-15, 19-24 entry H          line    30 file /home/r08543048/miniconda3/share/psi4/basis/jun-cc-pvtz-ri.gbs 
    atoms 5                             entry O          line   244 file /home/r08543048/miniconda3/share/psi4/basis/jun-cc-pvtz-ri.gbs 


  //>>>>>>>>>>>>>>>>>>>>>>>>>>>>>>>>>>>//
  //               SAPT0               //
  //<<<<<<<<<<<<<<<<<<<<<<<<<<<<<<<<<<<//


*** tstart() called on r282
*** at Fri Sep 10 16:50:47 2021

        SAPT0  
    Ed Hohenstein
     6 June 2009

      Orbital Information
  --------------------------
    NSO        =       536
    NMO        =       536
    NRI        =      1256
    NOCC A     =        21
    NOCC B     =        12
    FOCC A     =         0
    FOCC B     =         0
    NVIR A     =       515
    NVIR B     =       524

    Elst10,r            =    -0.008472961157 [Eh]
    Exch10              =     0.011807916833 [Eh]
    Exch10 (S^2)        =     0.011721246661 [Eh]

    Iter     Energy [mEh]          dE [mEh]         Residual      Time [s]
       1      -0.79425097       0.794250970       3.931011374             1
       2      -0.92678485       0.132533883       1.180615874             2
       3      -0.94054676       0.013761904       0.277730197             4
       4      -0.93870083      -0.001845929       0.122785473             5
       5      -0.93780300      -0.000897831       0.032413225             6
       6      -0.93794325       0.000140251       0.011538611             8
       7      -0.93803239       0.000089146       0.002697772             9
       8      -0.93801926      -0.000013132       0.000921447            10
       9      -0.93801545      -0.000003807       0.000260068            12
      10      -0.93801656       0.000001109       0.000086557            13
      11      -0.93801687       0.000000310       0.000021487            14
      12      -0.93801676      -0.000000115       0.000005551            15
      13      -0.93801676      -0.000000001       0.000001718            17
      14      -0.93801676       0.000000006       0.000000415            18

    CHF Iterations converged


    Iter     Energy [mEh]          dE [mEh]         Residual      Time [s]
       1      -3.55793609       3.557936085      10.396690492             1
       2      -4.53979668       0.981860593       3.845886362             2
       3      -4.63301483       0.093218156       0.914170984             3
       4      -4.60875149      -0.024263344       0.287004473             5
       5      -4.60451506      -0.004236433       0.081081328             6
       6      -4.60578850       0.001273439       0.031148557             7
       7      -4.60612860       0.000340099       0.011443116             8
       8      -4.60593437      -0.000194226       0.002678386             9
       9      -4.60593873       0.000004362       0.000616353            10
      10      -4.60594420       0.000005472       0.000197338            11
      11      -4.60594435       0.000000149       0.000046026            13
      12      -4.60594379      -0.000000561       0.000009017            14
      13      -4.60594388       0.000000086       0.000001822            16
      14      -4.60594388       0.000000003       0.000000455            17

    CHF Iterations converged

    Ind20,r (A<-B)      =    -0.000938016763 [Eh]
    Ind20,r (B<-A)      =    -0.004605943881 [Eh]
    Ind20,r             =    -0.005543960643 [Eh]
    Exch-Ind20,r (A<-B) =     0.000752525676 [Eh]
    Exch-Ind20,r (B<-A) =     0.003166612905 [Eh]
    Exch-Ind20,r        =     0.003919138580 [Eh]
    Disp20              =    -0.009415202672 [Eh]
    Disp20 (SS)         =    -0.004707601336 [Eh]
    Disp20 (OS)         =    -0.004707601336 [Eh]
    Exch-Disp20         =     0.001186867482 [Eh]
    Exch-Disp20 (SS)    =     0.000778051217 [Eh]
    Exch-Disp20 (OS)    =     0.000408816266 [Eh]

    SAPT Results 
  --------------------------------------------------------------------------------------------------------
    Electrostatics                 -8.47296116 [mEh]      -5.31686340 [kcal/mol]     -22.24575645 [kJ/mol]
      Elst10,r                     -8.47296116 [mEh]      -5.31686340 [kcal/mol]     -22.24575645 [kJ/mol]

    Exchange                       11.80791683 [mEh]       7.40957968 [kcal/mol]      31.00168137 [kJ/mol]
      Exch10                       11.80791683 [mEh]       7.40957968 [kcal/mol]      31.00168137 [kJ/mol]
      Exch10(S^2)                  11.72124666 [mEh]       7.35519332 [kcal/mol]      30.77412887 [kJ/mol]

    Induction                      -3.00416961 [mEh]      -1.88514489 [kcal/mol]      -7.88744624 [kJ/mol]
      Ind20,r                      -5.54396064 [mEh]      -3.47888783 [kcal/mol]     -14.55566666 [kJ/mol]
      Exch-Ind20,r                  3.91913858 [mEh]       2.45929659 [kcal/mol]      10.28969693 [kJ/mol]
      delta HF,r (2)               -1.37934755 [mEh]      -0.86555366 [kcal/mol]      -3.62147650 [kJ/mol]

    Dispersion                     -8.22833519 [mEh]      -5.16335828 [kcal/mol]     -21.60349106 [kJ/mol]
      Disp20                       -9.41520267 [mEh]      -5.90812887 [kcal/mol]     -24.71961121 [kJ/mol]
      Exch-Disp20                   1.18686748 [mEh]       0.74477059 [kcal/mol]       3.11612015 [kJ/mol]
      Disp20 (SS)                  -4.70760134 [mEh]      -2.95406444 [kcal/mol]     -12.35980560 [kJ/mol]
      Disp20 (OS)                  -4.70760134 [mEh]      -2.95406444 [kcal/mol]     -12.35980560 [kJ/mol]
      Exch-Disp20 (SS)              0.77805122 [mEh]       0.48823451 [kcal/mol]       2.04277319 [kJ/mol]
      Exch-Disp20 (OS)              0.40881627 [mEh]       0.25653608 [kcal/mol]       1.07334696 [kJ/mol]

  Total HF                          0.33078606 [mEh]       0.20757139 [kcal/mol]       0.86847868 [kJ/mol]
  Total SAPT0                      -7.89754913 [mEh]      -4.95578690 [kcal/mol]     -20.73501238 [kJ/mol]

  Special recipe for scaled SAPT0 (see Manual):
    Electrostatics sSAPT0          -8.47296116 [mEh]      -5.31686340 [kcal/mol]     -22.24575645 [kJ/mol]
    Exchange sSAPT0                11.80791683 [mEh]       7.40957968 [kcal/mol]      31.00168137 [kJ/mol]
    Induction sSAPT0               -2.91658757 [mEh]      -1.83018633 [kcal/mol]      -7.65749962 [kJ/mol]
    Dispersion sSAPT0              -8.20181194 [mEh]      -5.14671470 [kcal/mol]     -21.53385429 [kJ/mol]
  Total sSAPT0                     -7.78344384 [mEh]      -4.88418475 [kcal/mol]     -20.43542899 [kJ/mol]
  --------------------------------------------------------------------------------------------------------

*** tstop() called on r282 at Fri Sep 10 16:53:20 2021
Module time:
	user time   =     129.75 seconds =       2.16 minutes
	system time =      21.02 seconds =       0.35 minutes
	total time  =        153 seconds =       2.55 minutes
Total time:
	user time   =     312.18 seconds =       5.20 minutes
	system time =      24.28 seconds =       0.40 minutes
	total time  =        339 seconds =       5.65 minutes

    Psi4 stopped on: Friday, 10 September 2021 04:53PM
    Psi4 wall time for execution: 0:05:38.51

*** Psi4 exiting successfully. Buy a developer a beer!
