
    -----------------------------------------------------------------------
          Psi4: An Open-Source Ab Initio Electronic Structure Package
                               Psi4 1.3.2 release

                         Git: Rev {HEAD} ecbda83 


    R. M. Parrish, L. A. Burns, D. G. A. Smith, A. C. Simmonett,
    A. E. DePrince III, E. G. Hohenstein, U. Bozkaya, A. Yu. Sokolov,
    R. Di Remigio, R. M. Richard, J. F. Gonthier, A. M. James,
    H. R. McAlexander, A. Kumar, M. Saitow, X. Wang, B. P. Pritchard,
    P. Verma, H. F. Schaefer III, K. Patkowski, R. A. King, E. F. Valeev,
    F. A. Evangelista, J. M. Turney, T. D. Crawford, and C. D. Sherrill,
    J. Chem. Theory Comput. 13(7) pp 3185--3197 (2017).
    (doi: 10.1021/acs.jctc.7b00174)


                         Additional Contributions by
    P. Kraus, H. Kruse, M. H. Lechner, M. C. Schieber, R. A. Shaw,
    A. Alenaizan, R. Galvelis, Z. L. Glick, S. Lehtola, and J. P. Misiewicz

    -----------------------------------------------------------------------


    Psi4 started on: Friday, 10 September 2021 04:04PM

    Process ID: 56830
    Host:       r282
    PSIDATADIR: /home/r08543048/miniconda3/share/psi4
    Memory:     500.0 MiB
    Threads:    1
    
  ==> Input File <==

--------------------------------------------------------------------------
# Any line starting with the # character is a comment line
#! Sample  computation

memory 22 gb

molecule Dimer {
0 1
 C  1.649367    0.281980    0.776108
 C  1.633622   -1.112594    0.170276
 H  0.646554    0.515559    1.144662
 H  2.309357    0.272697    1.647669
 O  0.748133   -1.217855   -0.940480
 H  2.622086   -1.361399   -0.218180
 H  1.380276   -1.853679    0.935121
 H -0.149675   -1.094649   -0.602579
 C  2.102570    1.341236   -0.219626
 H  2.063815    2.339589    0.214964
 H  3.128437    1.152592   -0.538978
 H  1.472260    1.325858   -1.107322
 
 
 

    
    
 --
0 1
 C   -2.284493   -0.949455    0.610003
 C   -2.290318    0.001647   -0.330807
 C   -1.939547    1.434376   -0.090888
 H   -2.551173   -1.971211    0.377991
 H   -2.022221   -0.718078    1.635134
 H   -2.562665   -0.273065   -1.345064
 H   -2.763289    2.086857   -0.383272
 H   -1.713791    1.613379    0.959583
 H   -1.072244    1.725254   -0.686294
   
   
   
   
   





units angstrom

no_reorient
symmetry c1
}

set globals{
  basis jun-cc-pvtz
}

energy('sapt0')


--------------------------------------------------------------------------

  Memory set to  20.489 GiB by Python driver.

  //>>>>>>>>>>>>>>>>>>>>>>>>>>>>>>>>>>>//
  //              Dimer HF             //
  //<<<<<<<<<<<<<<<<<<<<<<<<<<<<<<<<<<<//


*** tstart() called on r282
*** at Fri Sep 10 16:04:13 2021

   => Loading Basis Set <=

    Name: JUN-CC-PVTZ
    Role: ORBITAL
    Keyword: BASIS
    atoms 1-2, 9, 13-15          entry C          line   217 file /home/r08543048/miniconda3/share/psi4/basis/jun-cc-pvtz.gbs 
    atoms 3-4, 6-8, 10-12, 16-21 entry H          line    36 file /home/r08543048/miniconda3/share/psi4/basis/jun-cc-pvtz.gbs 
    atoms 5                      entry O          line   305 file /home/r08543048/miniconda3/share/psi4/basis/jun-cc-pvtz.gbs 


         ---------------------------------------------------------
                                   SCF
               by Justin Turney, Rob Parrish, Andy Simmonett
                          and Daniel G. A. Smith
                              RHF Reference
                        1 Threads,  20980 MiB Core
         ---------------------------------------------------------

  ==> Geometry <==

    Molecular point group: c1
    Full point group: C1

    Geometry (in Angstrom), charge = 0, multiplicity = 1:

       Center              X                  Y                   Z               Mass       
    ------------   -----------------  -----------------  -----------------  -----------------
         C            1.657058862948     0.318453262325     0.795820738376    12.000000000000
         C            1.641313862948    -1.076120737675     0.189988738376    12.000000000000
         H            0.654245862948     0.552032262325     1.164374738376     1.007825032230
         H            2.317048862948     0.309170262325     1.667381738376     1.007825032230
         O            0.755824862948    -1.181381737675    -0.920767261624    15.994914619570
         H            2.629777862948    -1.324925737675    -0.198467261624     1.007825032230
         H            1.387967862948    -1.817205737675     0.954833738376     1.007825032230
         H           -0.141983137052    -1.058175737675    -0.582866261624     1.007825032230
         C            2.110261862948     1.377709262325    -0.199913261624    12.000000000000
         H            2.071506862948     2.376062262325     0.234676738376     1.007825032230
         H            3.136128862948     1.189065262325    -0.519265261624     1.007825032230
         H            1.479951862948     1.362331262325    -1.087609261624     1.007825032230
         C           -2.276801137052    -0.912981737675     0.629715738376    12.000000000000
         C           -2.282626137052     0.038120262325    -0.311094261624    12.000000000000
         C           -1.931855137052     1.470849262325    -0.071175261624    12.000000000000
         H           -2.543481137052    -1.934737737675     0.397703738376     1.007825032230
         H           -2.014529137052    -0.681604737675     1.654846738376     1.007825032230
         H           -2.554973137052    -0.236591737675    -1.325351261624     1.007825032230
         H           -2.755597137052     2.123330262325    -0.363559261624     1.007825032230
         H           -1.706099137052     1.649852262325     0.979295738376     1.007825032230
         H           -1.064552137052     1.761727262325    -0.666581261624     1.007825032230

  Running in c1 symmetry.

  Rotational constants: A =      0.10048  B =      0.04228  C =      0.03482 [cm^-1]
  Rotational constants: A =   3012.33930  B =   1267.61394  C =   1043.83768 [MHz]
  Nuclear repulsion =  310.376869693262336

  Charge       = 0
  Multiplicity = 1
  Electrons    = 58
  Nalpha       = 29
  Nbeta        = 29

  ==> Algorithm <==

  SCF Algorithm Type is DF.
  DIIS enabled.
  MOM disabled.
  Fractional occupation disabled.
  Guess Type is SAD.
  Energy threshold   = 1.00e-08
  Density threshold  = 1.00e-08
  Integral threshold = 0.00e+00

  ==> Primary Basis <==

  Basis Set: JUN-CC-PVTZ
    Blend: JUN-CC-PVTZ
    Number of shells: 175
    Number of basis function: 469
    Number of Cartesian functions: 525
    Spherical Harmonics?: true
    Max angular momentum: 3

   => Loading Basis Set <=

    Name: (JUN-CC-PVTZ AUX)
    Role: JKFIT
    Keyword: DF_BASIS_SCF
    atoms 1-2, 9, 13-15          entry C          line   152 file /home/r08543048/miniconda3/share/psi4/basis/jun-cc-pvtz-jkfit.gbs 
    atoms 3-4, 6-8, 10-12, 16-21 entry H          line    70 file /home/r08543048/miniconda3/share/psi4/basis/jun-cc-pvtz-jkfit.gbs 
    atoms 5                      entry O          line   272 file /home/r08543048/miniconda3/share/psi4/basis/jun-cc-pvtz-jkfit.gbs 

  ==> Pre-Iterations <==

   -------------------------------------------------------
    Irrep   Nso     Nmo     Nalpha   Nbeta   Ndocc  Nsocc
   -------------------------------------------------------
     A        469     469       0       0       0       0
   -------------------------------------------------------
    Total     469     469      29      29      29       0
   -------------------------------------------------------

  ==> Integral Setup <==

  ==> DiskDFJK: Density-Fitted J/K Matrices <==

    J tasked:                  Yes
    K tasked:                  Yes
    wK tasked:                  No
    OpenMP threads:              1
    Integrals threads:           1
    Memory [MiB]:            15735
    Algorithm:                Core
    Integral Cache:           SAVE
    Schwarz Cutoff:          1E-12
    Fitting Condition:       1E-10

   => Auxiliary Basis Set <=

  Basis Set: (JUN-CC-PVTZ AUX)
    Blend: JUN-CC-PVTZ-JKFIT
    Number of shells: 343
    Number of basis function: 1085
    Number of Cartesian functions: 1302
    Spherical Harmonics?: true
    Max angular momentum: 4

  Minimum eigenvalue in the overlap matrix is 3.8127939873E-05.
  Using Symmetric Orthogonalization.

  SCF Guess: Superposition of Atomic Densities via on-the-fly atomic UHF.

  ==> Iterations <==

                           Total Energy        Delta E     RMS |[F,P]|

   @DF-RHF iter SAD:  -308.99741264702732   -3.08997e+02   0.00000e+00 
   @DF-RHF iter   1:  -310.00976420319199   -1.01235e+00   1.53256e-03 DIIS
   @DF-RHF iter   2:  -310.25102637768794   -2.41262e-01   7.42401e-04 DIIS
   @DF-RHF iter   3:  -310.30424444110685   -5.32181e-02   1.39729e-04 DIIS
   @DF-RHF iter   4:  -310.30766643195307   -3.42199e-03   5.10612e-05 DIIS
   @DF-RHF iter   5:  -310.30798904628841   -3.22614e-04   1.09306e-05 DIIS
   @DF-RHF iter   6:  -310.30800953691357   -2.04906e-05   2.69500e-06 DIIS
   @DF-RHF iter   7:  -310.30801108321702   -1.54630e-06   7.24635e-07 DIIS
   @DF-RHF iter   8:  -310.30801121686079   -1.33644e-07   2.60468e-07 DIIS
   @DF-RHF iter   9:  -310.30801123475919   -1.78984e-08   7.55097e-08 DIIS
   @DF-RHF iter  10:  -310.30801123678179   -2.02260e-09   3.97744e-08 DIIS
   @DF-RHF iter  11:  -310.30801123711746   -3.35660e-10   9.56661e-09 DIIS
  Energy and wave function converged.


  ==> Post-Iterations <==

    Orbital Energies [Eh]
    ---------------------

    Doubly Occupied:                                                      

       1A    -20.539369     2A    -11.263219     3A    -11.248552  
       4A    -11.231138     5A    -11.229245     6A    -11.216151  
       7A    -11.206065     8A     -1.342792     9A     -1.078690  
      10A     -1.045493    11A     -0.944816    12A     -0.913430  
      13A     -0.804458    14A     -0.770948    15A     -0.668294  
      16A     -0.652286    17A     -0.631753    18A     -0.617293  
      19A     -0.595350    20A     -0.579333    21A     -0.555462  
      22A     -0.533768    23A     -0.525168    24A     -0.514731  
      25A     -0.505367    26A     -0.479702    27A     -0.464211  
      28A     -0.426819    29A     -0.373009  

    Virtual:                                                              

      30A      0.049543    31A      0.050927    32A      0.058227  
      33A      0.060406    34A      0.069037    35A      0.072396  
      36A      0.086744    37A      0.092104    38A      0.094324  
      39A      0.104845    40A      0.112910    41A      0.116337  
      42A      0.117840    43A      0.119625    44A      0.132155  
      45A      0.136815    46A      0.147732    47A      0.155137  
      48A      0.158498    49A      0.171422    50A      0.175607  
      51A      0.187969    52A      0.203633    53A      0.206458  
      54A      0.216971    55A      0.233412    56A      0.239867  
      57A      0.251510    58A      0.257978    59A      0.262662  
      60A      0.269748    61A      0.284058    62A      0.291402  
      63A      0.297346    64A      0.298797    65A      0.308221  
      66A      0.316834    67A      0.321345    68A      0.323441  
      69A      0.328437    70A      0.330993    71A      0.340546  
      72A      0.351193    73A      0.354954    74A      0.356345  
      75A      0.362345    76A      0.366037    77A      0.375604  
      78A      0.380017    79A      0.382930    80A      0.387419  
      81A      0.391980    82A      0.402223    83A      0.416037  
      84A      0.426102    85A      0.434460    86A      0.438036  
      87A      0.447388    88A      0.461957    89A      0.467708  
      90A      0.473409    91A      0.491269    92A      0.506350  
      93A      0.510237    94A      0.512156    95A      0.521709  
      96A      0.525009    97A      0.532983    98A      0.536015  
      99A      0.549799   100A      0.553974   101A      0.561392  
     102A      0.565732   103A      0.576971   104A      0.579958  
     105A      0.593534   106A      0.613240   107A      0.622962  
     108A      0.644524   109A      0.658441   110A      0.665360  
     111A      0.681667   112A      0.700290   113A      0.703859  
     114A      0.717275   115A      0.720124   116A      0.742254  
     117A      0.745301   118A      0.750828   119A      0.760424  
     120A      0.766242   121A      0.769517   122A      0.786098  
     123A      0.790038   124A      0.800204   125A      0.808294  
     126A      0.813033   127A      0.818450   128A      0.826125  
     129A      0.831713   130A      0.849674   131A      0.854698  
     132A      0.862447   133A      0.869033   134A      0.891517  
     135A      0.897636   136A      0.904861   137A      0.913651  
     138A      0.920096   139A      0.932773   140A      0.951945  
     141A      0.964167   142A      0.966436   143A      0.992317  
     144A      0.994737   145A      1.013333   146A      1.018501  
     147A      1.047211   148A      1.055101   149A      1.067600  
     150A      1.074802   151A      1.087442   152A      1.101752  
     153A      1.110757   154A      1.129958   155A      1.150304  
     156A      1.166257   157A      1.172580   158A      1.180573  
     159A      1.189040   160A      1.212223   161A      1.236206  
     162A      1.238240   163A      1.254756   164A      1.271941  
     165A      1.290293   166A      1.300744   167A      1.319332  
     168A      1.327968   169A      1.338140   170A      1.341482  
     171A      1.361122   172A      1.368108   173A      1.378664  
     174A      1.384403   175A      1.394721   176A      1.404404  
     177A      1.415851   178A      1.435275   179A      1.444366  
     180A      1.450089   181A      1.460742   182A      1.473805  
     183A      1.486258   184A      1.504366   185A      1.512029  
     186A      1.521855   187A      1.530521   188A      1.544057  
     189A      1.567299   190A      1.570985   191A      1.577977  
     192A      1.588160   193A      1.593152   194A      1.600123  
     195A      1.609879   196A      1.630957   197A      1.634556  
     198A      1.645833   199A      1.656469   200A      1.668733  
     201A      1.676943   202A      1.692509   203A      1.708410  
     204A      1.717151   205A      1.732629   206A      1.751862  
     207A      1.765824   208A      1.776923   209A      1.796168  
     210A      1.813782   211A      1.827204   212A      1.858241  
     213A      1.868979   214A      1.875639   215A      1.894296  
     216A      1.897044   217A      1.924634   218A      1.943892  
     219A      1.961503   220A      1.997144   221A      2.020477  
     222A      2.051714   223A      2.058672   224A      2.105326  
     225A      2.199283   226A      2.262619   227A      2.408152  
     228A      2.433286   229A      2.468186   230A      2.517060  
     231A      2.628190   232A      2.712889   233A      2.748605  
     234A      2.776988   235A      2.780908   236A      2.794051  
     237A      2.807255   238A      2.832224   239A      2.837102  
     240A      2.843108   241A      2.850897   242A      2.858745  
     243A      2.881619   244A      2.888897   245A      2.917248  
     246A      2.928738   247A      2.935631   248A      2.964344  
     249A      2.986364   250A      3.002180   251A      3.029127  
     252A      3.034965   253A      3.041820   254A      3.063534  
     255A      3.077865   256A      3.093979   257A      3.102705  
     258A      3.124407   259A      3.133813   260A      3.135600  
     261A      3.176029   262A      3.185193   263A      3.190633  
     264A      3.206044   265A      3.210493   266A      3.225629  
     267A      3.237315   268A      3.259098   269A      3.281009  
     270A      3.285421   271A      3.296025   272A      3.301644  
     273A      3.322967   274A      3.329239   275A      3.342111  
     276A      3.354583   277A      3.360968   278A      3.373431  
     279A      3.381409   280A      3.390079   281A      3.404618  
     282A      3.419209   283A      3.427091   284A      3.434166  
     285A      3.439949   286A      3.461264   287A      3.476493  
     288A      3.480597   289A      3.486137   290A      3.503132  
     291A      3.505183   292A      3.511024   293A      3.526746  
     294A      3.530521   295A      3.539523   296A      3.560238  
     297A      3.570758   298A      3.578688   299A      3.589750  
     300A      3.609570   301A      3.620056   302A      3.638462  
     303A      3.655129   304A      3.660629   305A      3.664410  
     306A      3.682149   307A      3.718545   308A      3.720409  
     309A      3.733547   310A      3.745518   311A      3.763509  
     312A      3.764249   313A      3.775361   314A      3.786307  
     315A      3.802846   316A      3.820216   317A      3.827891  
     318A      3.839459   319A      3.853192   320A      3.860807  
     321A      3.888234   322A      3.912390   323A      3.926942  
     324A      3.935593   325A      3.960960   326A      3.961985  
     327A      3.982315   328A      3.992799   329A      4.001623  
     330A      4.031721   331A      4.049728   332A      4.077608  
     333A      4.088460   334A      4.114334   335A      4.120138  
     336A      4.125019   337A      4.132953   338A      4.148830  
     339A      4.170008   340A      4.197110   341A      4.219960  
     342A      4.249346   343A      4.262148   344A      4.271588  
     345A      4.283529   346A      4.289703   347A      4.296874  
     348A      4.314983   349A      4.329742   350A      4.351516  
     351A      4.360797   352A      4.364847   353A      4.368912  
     354A      4.379903   355A      4.398287   356A      4.404173  
     357A      4.415990   358A      4.426562   359A      4.431316  
     360A      4.437518   361A      4.467067   362A      4.476695  
     363A      4.489311   364A      4.495397   365A      4.500060  
     366A      4.514181   367A      4.519947   368A      4.538671  
     369A      4.556561   370A      4.563286   371A      4.591334  
     372A      4.598779   373A      4.611078   374A      4.639706  
     375A      4.643941   376A      4.657934   377A      4.660951  
     378A      4.688345   379A      4.707389   380A      4.723341  
     381A      4.751518   382A      4.765570   383A      4.781788  
     384A      4.793287   385A      4.825802   386A      4.850137  
     387A      4.855685   388A      4.881452   389A      4.885321  
     390A      4.906542   391A      4.914931   392A      4.934699  
     393A      5.015701   394A      5.022015   395A      5.048630  
     396A      5.062659   397A      5.080306   398A      5.149370  
     399A      5.157617   400A      5.183243   401A      5.201406  
     402A      5.201899   403A      5.216902   404A      5.231241  
     405A      5.261284   406A      5.282901   407A      5.298820  
     408A      5.311551   409A      5.324567   410A      5.345219  
     411A      5.349834   412A      5.380721   413A      5.407849  
     414A      5.422104   415A      5.443607   416A      5.478710  
     417A      5.485066   418A      5.502323   419A      5.523873  
     420A      5.560647   421A      5.597010   422A      5.615651  
     423A      5.628176   424A      5.663504   425A      5.678803  
     426A      5.703548   427A      5.745967   428A      5.758844  
     429A      5.774802   430A      5.792016   431A      5.800508  
     432A      5.834300   433A      5.837685   434A      5.863331  
     435A      5.906565   436A      5.929570   437A      5.952553  
     438A      5.965563   439A      5.985623   440A      6.090245  
     441A      6.120595   442A      6.129812   443A      6.314265  
     444A      6.390561   445A      6.438851   446A      6.448410  
     447A      6.476088   448A      6.489412   449A      6.520437  
     450A      6.536451   451A      6.557622   452A      6.607740  
     453A      6.687335   454A      6.956355   455A      7.080050  
     456A      7.251291   457A      7.349453   458A      7.410953  
     459A      7.536574   460A      7.679507   461A      7.891971  
     462A      8.168570   463A     12.303653   464A     13.751520  
     465A     13.942084   466A     14.142764   467A     14.610543  
     468A     14.713028   469A     15.339655  

    Final Occupation by Irrep:
              A 
    DOCC [    29 ]

  @DF-RHF Final Energy:  -310.30801123711746

   => Energetics <=

    Nuclear Repulsion Energy =            310.3768696932623357
    One-Electron Energy =               -1035.4559346155431285
    Two-Electron Energy =                 414.7710536851633947
    Total Energy =                       -310.3080112371174550

Computation Completed


Properties will be evaluated at   0.000000,   0.000000,   0.000000 [a0]

Properties computed using the SCF density matrix

  Nuclear Dipole Moment: [e a0]
     X:     0.8431      Y:     3.9976      Z:     2.1606

  Electronic Dipole Moment: [e a0]
     X:    -1.1867      Y:    -3.6408      Z:    -1.5656

  Dipole Moment: [e a0]
     X:    -0.3437      Y:     0.3568      Z:     0.5950     Total:     0.7743

  Dipole Moment: [D]
     X:    -0.8735      Y:     0.9070      Z:     1.5123     Total:     1.9680


*** tstop() called on r282 at Fri Sep 10 16:05:03 2021
Module time:
	user time   =      49.03 seconds =       0.82 minutes
	system time =       1.22 seconds =       0.02 minutes
	total time  =         50 seconds =       0.83 minutes
Total time:
	user time   =      49.03 seconds =       0.82 minutes
	system time =       1.22 seconds =       0.02 minutes
	total time  =         50 seconds =       0.83 minutes

  //>>>>>>>>>>>>>>>>>>>>>>>>>>>>>>>>>>>//
  //            Monomer A HF           //
  //<<<<<<<<<<<<<<<<<<<<<<<<<<<<<<<<<<<//


*** tstart() called on r282
*** at Fri Sep 10 16:05:03 2021

   => Loading Basis Set <=

    Name: JUN-CC-PVTZ
    Role: ORBITAL
    Keyword: BASIS
    atoms 1-2, 9, 13-15          entry C          line   217 file /home/r08543048/miniconda3/share/psi4/basis/jun-cc-pvtz.gbs 
    atoms 3-4, 6-8, 10-12, 16-21 entry H          line    36 file /home/r08543048/miniconda3/share/psi4/basis/jun-cc-pvtz.gbs 
    atoms 5                      entry O          line   305 file /home/r08543048/miniconda3/share/psi4/basis/jun-cc-pvtz.gbs 


         ---------------------------------------------------------
                                   SCF
               by Justin Turney, Rob Parrish, Andy Simmonett
                          and Daniel G. A. Smith
                              RHF Reference
                        1 Threads,  20980 MiB Core
         ---------------------------------------------------------

  ==> Geometry <==

    Molecular point group: c1
    Full point group: C1

    Geometry (in Angstrom), charge = 0, multiplicity = 1:

       Center              X                  Y                   Z               Mass       
    ------------   -----------------  -----------------  -----------------  -----------------
         C            1.657058862948     0.318453262325     0.795820738376    12.000000000000
         C            1.641313862948    -1.076120737675     0.189988738376    12.000000000000
         H            0.654245862948     0.552032262325     1.164374738376     1.007825032230
         H            2.317048862948     0.309170262325     1.667381738376     1.007825032230
         O            0.755824862948    -1.181381737675    -0.920767261624    15.994914619570
         H            2.629777862948    -1.324925737675    -0.198467261624     1.007825032230
         H            1.387967862948    -1.817205737675     0.954833738376     1.007825032230
         H           -0.141983137052    -1.058175737675    -0.582866261624     1.007825032230
         C            2.110261862948     1.377709262325    -0.199913261624    12.000000000000
         H            2.071506862948     2.376062262325     0.234676738376     1.007825032230
         H            3.136128862948     1.189065262325    -0.519265261624     1.007825032230
         H            1.479951862948     1.362331262325    -1.087609261624     1.007825032230
      Gh(C)          -2.276801137052    -0.912981737675     0.629715738376    12.000000000000
      Gh(C)          -2.282626137052     0.038120262325    -0.311094261624    12.000000000000
      Gh(C)          -1.931855137052     1.470849262325    -0.071175261624    12.000000000000
      Gh(H)          -2.543481137052    -1.934737737675     0.397703738376     1.007825032230
      Gh(H)          -2.014529137052    -0.681604737675     1.654846738376     1.007825032230
      Gh(H)          -2.554973137052    -0.236591737675    -1.325351261624     1.007825032230
      Gh(H)          -2.755597137052     2.123330262325    -0.363559261624     1.007825032230
      Gh(H)          -1.706099137052     1.649852262325     0.979295738376     1.007825032230
      Gh(H)          -1.064552137052     1.761727262325    -0.666581261624     1.007825032230

  Running in c1 symmetry.

  Rotational constants: A =      0.10048  B =      0.04228  C =      0.03482 [cm^-1]
  Rotational constants: A =   3012.33930  B =   1267.61394  C =   1043.83768 [MHz]
  Nuclear repulsion =  132.832768818955998

  Charge       = 0
  Multiplicity = 1
  Electrons    = 34
  Nalpha       = 17
  Nbeta        = 17

  ==> Algorithm <==

  SCF Algorithm Type is DF.
  DIIS enabled.
  MOM disabled.
  Fractional occupation disabled.
  Guess Type is SAD.
  Energy threshold   = 1.00e-08
  Density threshold  = 1.00e-08
  Integral threshold = 0.00e+00

  ==> Primary Basis <==

  Basis Set: JUN-CC-PVTZ
    Blend: JUN-CC-PVTZ
    Number of shells: 175
    Number of basis function: 469
    Number of Cartesian functions: 525
    Spherical Harmonics?: true
    Max angular momentum: 3

   => Loading Basis Set <=

    Name: (JUN-CC-PVTZ AUX)
    Role: JKFIT
    Keyword: DF_BASIS_SCF
    atoms 1-2, 9, 13-15          entry C          line   152 file /home/r08543048/miniconda3/share/psi4/basis/jun-cc-pvtz-jkfit.gbs 
    atoms 3-4, 6-8, 10-12, 16-21 entry H          line    70 file /home/r08543048/miniconda3/share/psi4/basis/jun-cc-pvtz-jkfit.gbs 
    atoms 5                      entry O          line   272 file /home/r08543048/miniconda3/share/psi4/basis/jun-cc-pvtz-jkfit.gbs 

  ==> Pre-Iterations <==

   -------------------------------------------------------
    Irrep   Nso     Nmo     Nalpha   Nbeta   Ndocc  Nsocc
   -------------------------------------------------------
     A        469     469       0       0       0       0
   -------------------------------------------------------
    Total     469     469      17      17      17       0
   -------------------------------------------------------

  ==> Integral Setup <==

  ==> DiskDFJK: Density-Fitted J/K Matrices <==

    J tasked:                  Yes
    K tasked:                  Yes
    wK tasked:                  No
    OpenMP threads:              1
    Integrals threads:           1
    Memory [MiB]:            15735
    Algorithm:                Core
    Integral Cache:           LOAD
    Schwarz Cutoff:          1E-12
    Fitting Condition:       1E-10

   => Auxiliary Basis Set <=

  Basis Set: (JUN-CC-PVTZ AUX)
    Blend: JUN-CC-PVTZ-JKFIT
    Number of shells: 343
    Number of basis function: 1085
    Number of Cartesian functions: 1302
    Spherical Harmonics?: true
    Max angular momentum: 4

  Minimum eigenvalue in the overlap matrix is 3.8127939873E-05.
  Using Symmetric Orthogonalization.

  SCF Guess: Superposition of Atomic Densities via on-the-fly atomic UHF.

  ==> Iterations <==

                           Total Energy        Delta E     RMS |[F,P]|

   @DF-RHF iter SAD:  -192.50009368083860   -1.92500e+02   0.00000e+00 
   @DF-RHF iter   1:  -193.01095031866197   -5.10857e-01   1.21979e-03 DIIS
   @DF-RHF iter   2:  -193.15185398990030   -1.40904e-01   6.47022e-04 DIIS
   @DF-RHF iter   3:  -193.18922338687810   -3.73694e-02   1.09673e-04 DIIS
   @DF-RHF iter   4:  -193.19132867840793   -2.10529e-03   3.99296e-05 DIIS
   @DF-RHF iter   5:  -193.19152689359163   -1.98215e-04   9.07763e-06 DIIS
   @DF-RHF iter   6:  -193.19154135323330   -1.44596e-05   1.88714e-06 DIIS
   @DF-RHF iter   7:  -193.19154230585517   -9.52622e-07   4.77160e-07 DIIS
   @DF-RHF iter   8:  -193.19154236137473   -5.55196e-08   1.60386e-07 DIIS
   @DF-RHF iter   9:  -193.19154236764692   -6.27219e-09   4.28022e-08 DIIS
   @DF-RHF iter  10:  -193.19154236817820   -5.31287e-10   9.40249e-09 DIIS
  Energy and wave function converged.


  ==> Post-Iterations <==

    Orbital Energies [Eh]
    ---------------------

    Doubly Occupied:                                                      

       1A    -20.555840     2A    -11.271364     3A    -11.221881  
       4A    -11.208647     5A     -1.356154     6A     -1.050798  
       7A     -0.919260     8A     -0.810719     9A     -0.677080  
      10A     -0.638269    11A     -0.624224    12A     -0.564638  
      13A     -0.530519    14A     -0.521629    15A     -0.484498  
      16A     -0.471253    17A     -0.437043  

    Virtual:                                                              

      18A      0.029924    19A      0.045250    20A      0.052159  
      21A      0.057134    22A      0.066316    23A      0.071305  
      24A      0.081644    25A      0.089161    26A      0.091104  
      27A      0.104156    28A      0.105613    29A      0.110363  
      30A      0.115519    31A      0.119354    32A      0.124275  
      33A      0.131819    34A      0.144416    35A      0.148653  
      36A      0.150023    37A      0.159990    38A      0.164558  
      39A      0.167146    40A      0.200232    41A      0.207730  
      42A      0.212860    43A      0.219576    44A      0.239367  
      45A      0.249292    46A      0.256128    47A      0.257794  
      48A      0.279276    49A      0.280342    50A      0.290375  
      51A      0.294492    52A      0.296691    53A      0.302579  
      54A      0.318129    55A      0.322527    56A      0.322983  
      57A      0.326199    58A      0.335751    59A      0.343901  
      60A      0.348387    61A      0.350732    62A      0.358634  
      63A      0.360678    64A      0.376259    65A      0.378424  
      66A      0.384826    67A      0.394701    68A      0.397775  
      69A      0.400474    70A      0.408990    71A      0.421935  
      72A      0.428449    73A      0.440723    74A      0.449152  
      75A      0.453588    76A      0.457648    77A      0.471263  
      78A      0.475774    79A      0.486773    80A      0.498872  
      81A      0.508170    82A      0.517428    83A      0.527284  
      84A      0.532231    85A      0.544379    86A      0.546668  
      87A      0.552569    88A      0.560014    89A      0.564780  
      90A      0.569629    91A      0.580141    92A      0.584533  
      93A      0.606523    94A      0.610944    95A      0.621721  
      96A      0.632365    97A      0.637895    98A      0.649487  
      99A      0.664233   100A      0.668345   101A      0.670574  
     102A      0.680726   103A      0.695991   104A      0.700775  
     105A      0.719280   106A      0.736181   107A      0.744113  
     108A      0.752838   109A      0.763505   110A      0.785157  
     111A      0.792649   112A      0.797215   113A      0.809129  
     114A      0.820526   115A      0.827785   116A      0.832500  
     117A      0.844734   118A      0.863974   119A      0.869749  
     120A      0.886321   121A      0.910060   122A      0.915376  
     123A      0.938147   124A      0.956657   125A      0.960081  
     126A      0.987117   127A      1.008441   128A      1.025847  
     129A      1.033880   130A      1.053981   131A      1.067871  
     132A      1.095945   133A      1.103035   134A      1.125446  
     135A      1.130516   136A      1.140565   137A      1.146481  
     138A      1.158067   139A      1.182250   140A      1.197651  
     141A      1.200641   142A      1.213388   143A      1.219428  
     144A      1.228092   145A      1.252552   146A      1.263742  
     147A      1.279308   148A      1.281838   149A      1.294117  
     150A      1.304948   151A      1.310741   152A      1.328572  
     153A      1.329807   154A      1.341464   155A      1.347411  
     156A      1.360596   157A      1.367229   158A      1.371662  
     159A      1.376253   160A      1.401675   161A      1.405489  
     162A      1.412976   163A      1.415741   164A      1.419743  
     165A      1.452296   166A      1.464514   167A      1.473589  
     168A      1.485907   169A      1.489970   170A      1.502422  
     171A      1.507565   172A      1.511324   173A      1.527176  
     174A      1.540078   175A      1.545306   176A      1.549721  
     177A      1.564464   178A      1.573182   179A      1.587261  
     180A      1.590711   181A      1.603286   182A      1.616003  
     183A      1.621086   184A      1.628352   185A      1.633180  
     186A      1.642945   187A      1.650574   188A      1.680907  
     189A      1.681542   190A      1.692918   191A      1.703410  
     192A      1.716725   193A      1.725083   194A      1.760672  
     195A      1.767940   196A      1.790221   197A      1.801703  
     198A      1.811061   199A      1.837198   200A      1.862459  
     201A      1.875438   202A      1.890545   203A      1.917663  
     204A      1.935805   205A      1.962654   206A      1.979108  
     207A      1.999276   208A      2.018592   209A      2.042429  
     210A      2.055850   211A      2.089681   212A      2.110119  
     213A      2.120214   214A      2.226344   215A      2.253758  
     216A      2.286840   217A      2.339176   218A      2.365170  
     219A      2.416863   220A      2.434366   221A      2.461539  
     222A      2.479524   223A      2.511754   224A      2.537307  
     225A      2.556768   226A      2.630713   227A      2.671566  
     228A      2.808219   229A      2.829070   230A      2.840596  
     231A      2.854661   232A      2.883525   233A      2.896161  
     234A      2.909458   235A      2.934906   236A      2.970865  
     237A      2.977102   238A      3.026016   239A      3.032839  
     240A      3.110778   241A      3.125742   242A      3.151000  
     243A      3.178518   244A      3.185432   245A      3.237488  
     246A      3.275061   247A      3.296449   248A      3.314496  
     249A      3.336082   250A      3.363001   251A      3.380072  
     252A      3.403194   253A      3.411428   254A      3.428483  
     255A      3.446557   256A      3.449288   257A      3.470496  
     258A      3.474060   259A      3.489607   260A      3.499471  
     261A      3.516822   262A      3.528323   263A      3.537787  
     264A      3.551009   265A      3.566053   266A      3.584465  
     267A      3.590586   268A      3.607683   269A      3.608492  
     270A      3.625723   271A      3.636769   272A      3.655790  
     273A      3.664267   274A      3.674145   275A      3.681207  
     276A      3.700237   277A      3.706973   278A      3.730949  
     279A      3.733621   280A      3.745309   281A      3.760037  
     282A      3.770299   283A      3.781379   284A      3.809274  
     285A      3.820729   286A      3.838288   287A      3.856164  
     288A      3.862418   289A      3.877447   290A      3.890030  
     291A      3.908142   292A      3.914012   293A      3.934635  
     294A      3.961404   295A      3.964211   296A      3.974023  
     297A      3.988111   298A      4.023596   299A      4.040537  
     300A      4.056513   301A      4.066184   302A      4.080976  
     303A      4.089119   304A      4.108802   305A      4.109593  
     306A      4.133766   307A      4.139671   308A      4.152126  
     309A      4.175720   310A      4.187790   311A      4.206419  
     312A      4.235683   313A      4.238782   314A      4.245546  
     315A      4.255894   316A      4.265863   317A      4.288435  
     318A      4.295670   319A      4.311057   320A      4.320342  
     321A      4.349371   322A      4.354245   323A      4.365963  
     324A      4.373536   325A      4.398632   326A      4.412396  
     327A      4.416290   328A      4.428543   329A      4.433247  
     330A      4.447776   331A      4.465951   332A      4.470758  
     333A      4.486967   334A      4.498491   335A      4.503013  
     336A      4.505900   337A      4.519657   338A      4.537854  
     339A      4.546085   340A      4.552607   341A      4.572353  
     342A      4.581507   343A      4.596355   344A      4.606794  
     345A      4.628216   346A      4.634046   347A      4.647820  
     348A      4.657054   349A      4.662852   350A      4.688184  
     351A      4.717446   352A      4.722635   353A      4.728159  
     354A      4.753680   355A      4.769398   356A      4.788507  
     357A      4.794084   358A      4.807778   359A      4.824285  
     360A      4.829732   361A      4.836265   362A      4.846852  
     363A      4.850220   364A      4.868089   365A      4.878372  
     366A      4.897524   367A      4.899563   368A      4.926821  
     369A      4.947794   370A      4.968245   371A      4.982627  
     372A      4.992641   373A      5.008103   374A      5.028537  
     375A      5.044762   376A      5.051533   377A      5.057585  
     378A      5.084749   379A      5.100941   380A      5.138359  
     381A      5.153461   382A      5.161265   383A      5.198031  
     384A      5.204618   385A      5.224055   386A      5.250683  
     387A      5.262617   388A      5.280982   389A      5.311574  
     390A      5.326056   391A      5.343589   392A      5.389620  
     393A      5.403301   394A      5.415372   395A      5.468892  
     396A      5.477104   397A      5.480956   398A      5.517913  
     399A      5.528443   400A      5.532799   401A      5.574307  
     402A      5.599380   403A      5.613576   404A      5.659692  
     405A      5.672681   406A      5.754347   407A      5.769276  
     408A      5.786586   409A      5.800077   410A      5.822638  
     411A      5.829861   412A      5.837744   413A      5.896630  
     414A      5.904795   415A      5.928585   416A      5.953518  
     417A      5.980756   418A      5.996142   419A      6.026566  
     420A      6.098815   421A      6.115616   422A      6.124883  
     423A      6.142376   424A      6.248724   425A      6.264194  
     426A      6.305902   427A      6.341860   428A      6.386935  
     429A      6.391753   430A      6.443852   431A      6.485755  
     432A      6.533771   433A      6.552686   434A      6.600834  
     435A      6.612835   436A      6.713089   437A      6.743945  
     438A      6.836722   439A      6.944270   440A      7.062804  
     441A      7.080945   442A      7.235898   443A      7.333174  
     444A      7.379953   445A      7.396873   446A      7.417514  
     447A      7.524175   448A      7.565031   449A      7.598127  
     450A      7.642258   451A      7.673320   452A      7.814273  
     453A      7.878254   454A      7.908223   455A      7.965011  
     456A      8.105724   457A      8.161465   458A      8.281112  
     459A      8.728541   460A      9.388648   461A      9.916090  
     462A     10.192787   463A     13.738970   464A     13.947211  
     465A     14.137193   466A     14.612206   467A     41.052171  
     468A     45.961976   469A     47.181084  

    Final Occupation by Irrep:
              A 
    DOCC [    17 ]

  @DF-RHF Final Energy:  -193.19154236817820

   => Energetics <=

    Nuclear Repulsion Energy =            132.8327688189559979
    One-Electron Energy =                -525.3609926305014142
    Two-Electron Energy =                 199.3366814433672403
    Total Energy =                       -193.1915423681782045

Computation Completed


Properties will be evaluated at   0.000000,   0.000000,   0.000000 [a0]

Properties computed using the SCF density matrix

  Nuclear Dipole Moment: [e a0]
     X:    98.3282      Y:    -7.8281      Z:    -1.9232

  Electronic Dipole Moment: [e a0]
     X:   -98.4846      Y:     7.9890      Z:     2.5967

  Dipole Moment: [e a0]
     X:    -0.1564      Y:     0.1609      Z:     0.6735     Total:     0.7099

  Dipole Moment: [D]
     X:    -0.3976      Y:     0.4090      Z:     1.7119     Total:     1.8045


*** tstop() called on r282 at Fri Sep 10 16:05:32 2021
Module time:
	user time   =      28.19 seconds =       0.47 minutes
	system time =       0.53 seconds =       0.01 minutes
	total time  =         29 seconds =       0.48 minutes
Total time:
	user time   =      77.23 seconds =       1.29 minutes
	system time =       1.75 seconds =       0.03 minutes
	total time  =         79 seconds =       1.32 minutes

  //>>>>>>>>>>>>>>>>>>>>>>>>>>>>>>>>>>>//
  //            Monomer B HF           //
  //<<<<<<<<<<<<<<<<<<<<<<<<<<<<<<<<<<<//


*** tstart() called on r282
*** at Fri Sep 10 16:05:32 2021

   => Loading Basis Set <=

    Name: JUN-CC-PVTZ
    Role: ORBITAL
    Keyword: BASIS
    atoms 1-2, 9, 13-15          entry C          line   217 file /home/r08543048/miniconda3/share/psi4/basis/jun-cc-pvtz.gbs 
    atoms 3-4, 6-8, 10-12, 16-21 entry H          line    36 file /home/r08543048/miniconda3/share/psi4/basis/jun-cc-pvtz.gbs 
    atoms 5                      entry O          line   305 file /home/r08543048/miniconda3/share/psi4/basis/jun-cc-pvtz.gbs 


         ---------------------------------------------------------
                                   SCF
               by Justin Turney, Rob Parrish, Andy Simmonett
                          and Daniel G. A. Smith
                              RHF Reference
                        1 Threads,  20980 MiB Core
         ---------------------------------------------------------

  ==> Geometry <==

    Molecular point group: c1
    Full point group: C1

    Geometry (in Angstrom), charge = 0, multiplicity = 1:

       Center              X                  Y                   Z               Mass       
    ------------   -----------------  -----------------  -----------------  -----------------
      Gh(C)           1.657058862948     0.318453262325     0.795820738376    12.000000000000
      Gh(C)           1.641313862948    -1.076120737675     0.189988738376    12.000000000000
      Gh(H)           0.654245862948     0.552032262325     1.164374738376     1.007825032230
      Gh(H)           2.317048862948     0.309170262325     1.667381738376     1.007825032230
      Gh(O)           0.755824862948    -1.181381737675    -0.920767261624    15.994914619570
      Gh(H)           2.629777862948    -1.324925737675    -0.198467261624     1.007825032230
      Gh(H)           1.387967862948    -1.817205737675     0.954833738376     1.007825032230
      Gh(H)          -0.141983137052    -1.058175737675    -0.582866261624     1.007825032230
      Gh(C)           2.110261862948     1.377709262325    -0.199913261624    12.000000000000
      Gh(H)           2.071506862948     2.376062262325     0.234676738376     1.007825032230
      Gh(H)           3.136128862948     1.189065262325    -0.519265261624     1.007825032230
      Gh(H)           1.479951862948     1.362331262325    -1.087609261624     1.007825032230
         C           -2.276801137052    -0.912981737675     0.629715738376    12.000000000000
         C           -2.282626137052     0.038120262325    -0.311094261624    12.000000000000
         C           -1.931855137052     1.470849262325    -0.071175261624    12.000000000000
         H           -2.543481137052    -1.934737737675     0.397703738376     1.007825032230
         H           -2.014529137052    -0.681604737675     1.654846738376     1.007825032230
         H           -2.554973137052    -0.236591737675    -1.325351261624     1.007825032230
         H           -2.755597137052     2.123330262325    -0.363559261624     1.007825032230
         H           -1.706099137052     1.649852262325     0.979295738376     1.007825032230
         H           -1.064552137052     1.761727262325    -0.666581261624     1.007825032230

  Running in c1 symmetry.

  Rotational constants: A =      0.10048  B =      0.04228  C =      0.03482 [cm^-1]
  Rotational constants: A =   3012.33930  B =   1267.61394  C =   1043.83768 [MHz]
  Nuclear repulsion =   70.830314502277375

  Charge       = 0
  Multiplicity = 1
  Electrons    = 24
  Nalpha       = 12
  Nbeta        = 12

  ==> Algorithm <==

  SCF Algorithm Type is DF.
  DIIS enabled.
  MOM disabled.
  Fractional occupation disabled.
  Guess Type is SAD.
  Energy threshold   = 1.00e-08
  Density threshold  = 1.00e-08
  Integral threshold = 0.00e+00

  ==> Primary Basis <==

  Basis Set: JUN-CC-PVTZ
    Blend: JUN-CC-PVTZ
    Number of shells: 175
    Number of basis function: 469
    Number of Cartesian functions: 525
    Spherical Harmonics?: true
    Max angular momentum: 3

   => Loading Basis Set <=

    Name: (JUN-CC-PVTZ AUX)
    Role: JKFIT
    Keyword: DF_BASIS_SCF
    atoms 1-2, 9, 13-15          entry C          line   152 file /home/r08543048/miniconda3/share/psi4/basis/jun-cc-pvtz-jkfit.gbs 
    atoms 3-4, 6-8, 10-12, 16-21 entry H          line    70 file /home/r08543048/miniconda3/share/psi4/basis/jun-cc-pvtz-jkfit.gbs 
    atoms 5                      entry O          line   272 file /home/r08543048/miniconda3/share/psi4/basis/jun-cc-pvtz-jkfit.gbs 

  ==> Pre-Iterations <==

   -------------------------------------------------------
    Irrep   Nso     Nmo     Nalpha   Nbeta   Ndocc  Nsocc
   -------------------------------------------------------
     A        469     469       0       0       0       0
   -------------------------------------------------------
    Total     469     469      12      12      12       0
   -------------------------------------------------------

  ==> Integral Setup <==

  ==> DiskDFJK: Density-Fitted J/K Matrices <==

    J tasked:                  Yes
    K tasked:                  Yes
    wK tasked:                  No
    OpenMP threads:              1
    Integrals threads:           1
    Memory [MiB]:            15735
    Algorithm:                Core
    Integral Cache:           LOAD
    Schwarz Cutoff:          1E-12
    Fitting Condition:       1E-10

   => Auxiliary Basis Set <=

  Basis Set: (JUN-CC-PVTZ AUX)
    Blend: JUN-CC-PVTZ-JKFIT
    Number of shells: 343
    Number of basis function: 1085
    Number of Cartesian functions: 1302
    Spherical Harmonics?: true
    Max angular momentum: 4

  Minimum eigenvalue in the overlap matrix is 3.8127939873E-05.
  Using Symmetric Orthogonalization.

  SCF Guess: Superposition of Atomic Densities via on-the-fly atomic UHF.

  ==> Iterations <==

                           Total Energy        Delta E     RMS |[F,P]|

   @DF-RHF iter SAD:  -116.33000322755674   -1.16330e+02   0.00000e+00 
   @DF-RHF iter   1:  -116.98799586356520   -6.57993e-01   9.76052e-04 DIIS
   @DF-RHF iter   2:  -117.09545511778146   -1.07459e-01   4.18812e-04 DIIS
   @DF-RHF iter   3:  -117.11547067304713   -2.00156e-02   7.54552e-05 DIIS
   @DF-RHF iter   4:  -117.11676541229954   -1.29474e-03   2.28294e-05 DIIS
   @DF-RHF iter   5:  -117.11683995920174   -7.45469e-05   6.11439e-06 DIIS
   @DF-RHF iter   6:  -117.11684619457006   -6.23537e-06   1.10288e-06 DIIS
   @DF-RHF iter   7:  -117.11684650383877   -3.09269e-07   4.05227e-07 DIIS
   @DF-RHF iter   8:  -117.11684654475108   -4.09123e-08   1.40227e-07 DIIS
   @DF-RHF iter   9:  -117.11684655062066   -5.86958e-09   5.10342e-08 DIIS
   @DF-RHF iter  10:  -117.11684655157083   -9.50166e-10   1.16628e-08 DIIS
   @DF-RHF iter  11:  -117.11684655161500   -4.41673e-11   2.05870e-09 DIIS
  Energy and wave function converged.


  ==> Post-Iterations <==

    Orbital Energies [Eh]
    ---------------------

    Doubly Occupied:                                                      

       1A    -11.234731     2A    -11.220898     3A    -11.217837  
       4A     -1.064489     5A     -0.932911     6A     -0.758043  
       7A     -0.639544     8A     -0.582761     9A     -0.568947  
      10A     -0.523169    11A     -0.493182    12A     -0.357476  

    Virtual:                                                              

      13A      0.033283    14A      0.047483    15A      0.052922  
      16A      0.057773    17A      0.067469    18A      0.071226  
      19A      0.084340    20A      0.085171    21A      0.089497  
      22A      0.105514    23A      0.107819    24A      0.112737  
      25A      0.115527    26A      0.117272    27A      0.122230  
      28A      0.132876    29A      0.143592    30A      0.147025  
      31A      0.152323    32A      0.159179    33A      0.162838  
      34A      0.171689    35A      0.184687    36A      0.194362  
      37A      0.200301    38A      0.209358    39A      0.216645  
      40A      0.226836    41A      0.241500    42A      0.252585  
      43A      0.272980    44A      0.277348    45A      0.282603  
      46A      0.296636    47A      0.299601    48A      0.303954  
      49A      0.315852    50A      0.319921    51A      0.326631  
      52A      0.332632    53A      0.335898    54A      0.341262  
      55A      0.352477    56A      0.355888    57A      0.364417  
      58A      0.368088    59A      0.374014    60A      0.379382  
      61A      0.383520    62A      0.387779    63A      0.395833  
      64A      0.404872    65A      0.414775    66A      0.418544  
      67A      0.428241    68A      0.434934    69A      0.439551  
      70A      0.458998    71A      0.470190    72A      0.472595  
      73A      0.481029    74A      0.487818    75A      0.500378  
      76A      0.502669    77A      0.511657    78A      0.523604  
      79A      0.529644    80A      0.535270    81A      0.545812  
      82A      0.549730    83A      0.562640    84A      0.564947  
      85A      0.571096    86A      0.581161    87A      0.601484  
      88A      0.610435    89A      0.614668    90A      0.626528  
      91A      0.630006    92A      0.639877    93A      0.650376  
      94A      0.658116    95A      0.669418    96A      0.686748  
      97A      0.695512    98A      0.716313    99A      0.723904  
     100A      0.732825   101A      0.753034   102A      0.760733  
     103A      0.762037   104A      0.779288   105A      0.786464  
     106A      0.800279   107A      0.804928   108A      0.812576  
     109A      0.838118   110A      0.848529   111A      0.861659  
     112A      0.866138   113A      0.885376   114A      0.920260  
     115A      0.929012   116A      0.934449   117A      0.954659  
     118A      0.976167   119A      0.982981   120A      0.992812  
     121A      0.999545   122A      1.017165   123A      1.035188  
     124A      1.056036   125A      1.059917   126A      1.068853  
     127A      1.071918   128A      1.082467   129A      1.096515  
     130A      1.108360   131A      1.118166   132A      1.128328  
     133A      1.135493   134A      1.141002   135A      1.146822  
     136A      1.176095   137A      1.183768   138A      1.204743  
     139A      1.209022   140A      1.225670   141A      1.243605  
     142A      1.253918   143A      1.268423   144A      1.278426  
     145A      1.291365   146A      1.297399   147A      1.299236  
     148A      1.319916   149A      1.333551   150A      1.345501  
     151A      1.349826   152A      1.359165   153A      1.369230  
     154A      1.377154   155A      1.378851   156A      1.397391  
     157A      1.409268   158A      1.417975   159A      1.424053  
     160A      1.435538   161A      1.453851   162A      1.461426  
     163A      1.476952   164A      1.489319   165A      1.504342  
     166A      1.517410   167A      1.526363   168A      1.533298  
     169A      1.554324   170A      1.566480   171A      1.569273  
     172A      1.582064   173A      1.583205   174A      1.593267  
     175A      1.613285   176A      1.621264   177A      1.629834  
     178A      1.653358   179A      1.655937   180A      1.667180  
     181A      1.672904   182A      1.679921   183A      1.703428  
     184A      1.719869   185A      1.736970   186A      1.754776  
     187A      1.766885   188A      1.776917   189A      1.799651  
     190A      1.819231   191A      1.826981   192A      1.845912  
     193A      1.876601   194A      1.886537   195A      1.892427  
     196A      1.908364   197A      1.926957   198A      1.951178  
     199A      1.964443   200A      2.023839   201A      2.039364  
     202A      2.056441   203A      2.062943   204A      2.096952  
     205A      2.127696   206A      2.157420   207A      2.204338  
     208A      2.218502   209A      2.222140   210A      2.254240  
     211A      2.352868   212A      2.398200   213A      2.409219  
     214A      2.442599   215A      2.486017   216A      2.553150  
     217A      2.589477   218A      2.601530   219A      2.680132  
     220A      2.698747   221A      2.730588   222A      2.765075  
     223A      2.790809   224A      2.802691   225A      2.832972  
     226A      2.844562   227A      2.859056   228A      2.878119  
     229A      2.916802   230A      2.928832   231A      2.951047  
     232A      3.001760   233A      3.009795   234A      3.039215  
     235A      3.044214   236A      3.070432   237A      3.085501  
     238A      3.097269   239A      3.120183   240A      3.122985  
     241A      3.184765   242A      3.204421   243A      3.210870  
     244A      3.247926   245A      3.262298   246A      3.266504  
     247A      3.309442   248A      3.335687   249A      3.348260  
     250A      3.358200   251A      3.377543   252A      3.388521  
     253A      3.424149   254A      3.445290   255A      3.457464  
     256A      3.481965   257A      3.494103   258A      3.507112  
     259A      3.516658   260A      3.530685   261A      3.538824  
     262A      3.569931   263A      3.586227   264A      3.592438  
     265A      3.612654   266A      3.618721   267A      3.628731  
     268A      3.631464   269A      3.652749   270A      3.674113  
     271A      3.695614   272A      3.709365   273A      3.723576  
     274A      3.737752   275A      3.757028   276A      3.758568  
     277A      3.764965   278A      3.781160   279A      3.796731  
     280A      3.804082   281A      3.822411   282A      3.830718  
     283A      3.838968   284A      3.858867   285A      3.861963  
     286A      3.866831   287A      3.905885   288A      3.923370  
     289A      3.930006   290A      3.952891   291A      3.964479  
     292A      3.981765   293A      3.996113   294A      4.009272  
     295A      4.041456   296A      4.057448   297A      4.082968  
     298A      4.089838   299A      4.095171   300A      4.128081  
     301A      4.144976   302A      4.153636   303A      4.165295  
     304A      4.173587   305A      4.209567   306A      4.219337  
     307A      4.245358   308A      4.265536   309A      4.276234  
     310A      4.293302   311A      4.323609   312A      4.328095  
     313A      4.336960   314A      4.352715   315A      4.379957  
     316A      4.383049   317A      4.398343   318A      4.401419  
     319A      4.423833   320A      4.428677   321A      4.435961  
     322A      4.439887   323A      4.459960   324A      4.480019  
     325A      4.495559   326A      4.503979   327A      4.509918  
     328A      4.522817   329A      4.540006   330A      4.556016  
     331A      4.572174   332A      4.596075   333A      4.600272  
     334A      4.615310   335A      4.633133   336A      4.643130  
     337A      4.661750   338A      4.668322   339A      4.674478  
     340A      4.690734   341A      4.723517   342A      4.743910  
     343A      4.756911   344A      4.764685   345A      4.767240  
     346A      4.779267   347A      4.785341   348A      4.797534  
     349A      4.803808   350A      4.810764   351A      4.825414  
     352A      4.838625   353A      4.850296   354A      4.862454  
     355A      4.892018   356A      4.895634   357A      4.911747  
     358A      4.914409   359A      4.926341   360A      4.940826  
     361A      4.944388   362A      4.944766   363A      4.964750  
     364A      4.986361   365A      4.997263   366A      5.027548  
     367A      5.040944   368A      5.053865   369A      5.063521  
     370A      5.080357   371A      5.083013   372A      5.095526  
     373A      5.109915   374A      5.128538   375A      5.162360  
     376A      5.186372   377A      5.198405   378A      5.200952  
     379A      5.220684   380A      5.230633   381A      5.280869  
     382A      5.307473   383A      5.317348   384A      5.324558  
     385A      5.336648   386A      5.364843   387A      5.377475  
     388A      5.392363   389A      5.421754   390A      5.461616  
     391A      5.492539   392A      5.532588   393A      5.564039  
     394A      5.569289   395A      5.595085   396A      5.629769  
     397A      5.636005   398A      5.684739   399A      5.702884  
     400A      5.715800   401A      5.744169   402A      5.770992  
     403A      5.801101   404A      5.820092   405A      5.868011  
     406A      5.875145   407A      5.905933   408A      5.966507  
     409A      5.969357   410A      6.021829   411A      6.098111  
     412A      6.112930   413A      6.162054   414A      6.208932  
     415A      6.234706   416A      6.298968   417A      6.332965  
     418A      6.361811   419A      6.400354   420A      6.435128  
     421A      6.452328   422A      6.458332   423A      6.470914  
     424A      6.499923   425A      6.533885   426A      6.594506  
     427A      6.687982   428A      6.700254   429A      6.874977  
     430A      6.961617   431A      7.015027   432A      7.153645  
     433A      7.290546   434A      7.405926   435A      7.491216  
     436A      7.516657   437A      7.574361   438A      7.615053  
     439A      7.684211   440A      7.713257   441A      7.728048  
     442A      7.811647   443A      7.870057   444A      7.936305  
     445A      7.994890   446A      8.044430   447A      8.216616  
     448A      8.367023   449A      8.486525   450A      8.593357  
     451A      9.549588   452A      9.629319   453A      9.774956  
     454A      9.877332   455A      9.927992   456A     10.027514  
     457A     10.164773   458A     10.352723   459A     11.287598  
     460A     11.717163   461A     12.325657   462A     12.800209  
     463A     13.636535   464A     14.710484   465A     15.346203  
     466A     43.953874   467A     45.016444   468A     45.669884  
     469A     61.639302  

    Final Occupation by Irrep:
              A 
    DOCC [    12 ]

  @DF-RHF Final Energy:  -117.11684655161500

   => Energetics <=

    Nuclear Repulsion Energy =             70.8303145022773748
    One-Electron Energy =                -296.7063449636499399
    Two-Electron Energy =                 108.7591839097575814
    Total Energy =                       -117.1168465516149979

Computation Completed


Properties will be evaluated at   0.000000,   0.000000,   0.000000 [a0]

Properties computed using the SCF density matrix

  Nuclear Dipole Moment: [e a0]
     X:   -97.4852      Y:    11.8257      Z:     4.0838

  Electronic Dipole Moment: [e a0]
     X:    97.5006      Y:   -11.6728      Z:    -4.1536

  Dipole Moment: [e a0]
     X:     0.0155      Y:     0.1530      Z:    -0.0698     Total:     0.1688

  Dipole Moment: [D]
     X:     0.0393      Y:     0.3888      Z:    -0.1774     Total:     0.4291


*** tstop() called on r282 at Fri Sep 10 16:06:02 2021
Module time:
	user time   =      28.98 seconds =       0.48 minutes
	system time =       0.54 seconds =       0.01 minutes
	total time  =         30 seconds =       0.50 minutes
Total time:
	user time   =     106.22 seconds =       1.77 minutes
	system time =       2.29 seconds =       0.04 minutes
	total time  =        109 seconds =       1.82 minutes
  Constructing Basis Sets for SAPT...

   => Loading Basis Set <=

    Name: (JUN-CC-PVTZ AUX)
    Role: RIFIT
    Keyword: DF_BASIS_SAPT
    atoms 1-2, 9, 13-15          entry C          line   132 file /home/r08543048/miniconda3/share/psi4/basis/jun-cc-pvtz-ri.gbs 
    atoms 3-4, 6-8, 10-12, 16-21 entry H          line    30 file /home/r08543048/miniconda3/share/psi4/basis/jun-cc-pvtz-ri.gbs 
    atoms 5                      entry O          line   244 file /home/r08543048/miniconda3/share/psi4/basis/jun-cc-pvtz-ri.gbs 


  //>>>>>>>>>>>>>>>>>>>>>>>>>>>>>>>>>>>//
  //               SAPT0               //
  //<<<<<<<<<<<<<<<<<<<<<<<<<<<<<<<<<<<//


*** tstart() called on r282
*** at Fri Sep 10 16:06:02 2021

        SAPT0  
    Ed Hohenstein
     6 June 2009

      Orbital Information
  --------------------------
    NSO        =       469
    NMO        =       469
    NRI        =      1099
    NOCC A     =        17
    NOCC B     =        12
    FOCC A     =         0
    FOCC B     =         0
    NVIR A     =       452
    NVIR B     =       457

    Elst10,r            =    -0.008425164436 [Eh]
    Exch10              =     0.011718642266 [Eh]
    Exch10 (S^2)        =     0.011636428821 [Eh]

    Iter     Energy [mEh]          dE [mEh]         Residual      Time [s]
       1      -0.79491739       0.794917389       3.886152536             1
       2      -0.93509785       0.140180459       1.110049329             2
       3      -0.94583317       0.010735325       0.274271407             3
       4      -0.94354500      -0.002288174       0.121700655             3
       5      -0.94280482      -0.000740178       0.032351110             4
       6      -0.94298490       0.000180074       0.011967635             5
       7      -0.94306452       0.000079621       0.002820405             6
       8      -0.94304759      -0.000016929       0.000900329             7
       9      -0.94304511      -0.000002479       0.000236412             7
      10      -0.94304635       0.000001246       0.000076416             8
      11      -0.94304653       0.000000177       0.000019868             9
      12      -0.94304642      -0.000000115       0.000004477            10
      13      -0.94304642       0.000000007       0.000001217            11
      14      -0.94304643       0.000000004       0.000000332            12

    CHF Iterations converged


    Iter     Energy [mEh]          dE [mEh]         Residual      Time [s]
       1      -3.65541240       3.655412403      10.355153598             0
       2      -4.60639330       0.950980899       3.786601759             1
       3      -4.70555117       0.099157871       0.875405481             2
       4      -4.68216909      -0.023382084       0.294260873             2
       5      -4.67739070      -0.004778393       0.070190243             3
       6      -4.67851679       0.001126092       0.025261711             4
       7      -4.67881885       0.000302064       0.009347968             5
       8      -4.67865834      -0.000160516       0.002371659             5
       9      -4.67866531       0.000006972       0.000549106             6
      10      -4.67867008       0.000004773       0.000175203             7
      11      -4.67866981      -0.000000269       0.000046351             8
      12      -4.67866932      -0.000000496       0.000010222             8
      13      -4.67866941       0.000000091       0.000002422             9
      14      -4.67866941       0.000000005       0.000000631            10

    CHF Iterations converged

    Ind20,r (A<-B)      =    -0.000943046427 [Eh]
    Ind20,r (B<-A)      =    -0.004678669412 [Eh]
    Ind20,r             =    -0.005621715839 [Eh]
    Exch-Ind20,r (A<-B) =     0.000769474178 [Eh]
    Exch-Ind20,r (B<-A) =     0.003329618783 [Eh]
    Exch-Ind20,r        =     0.004099092961 [Eh]
    Disp20              =    -0.009005794391 [Eh]
    Disp20 (SS)         =    -0.004502897196 [Eh]
    Disp20 (OS)         =    -0.004502897196 [Eh]
    Exch-Disp20         =     0.001183817098 [Eh]
    Exch-Disp20 (SS)    =     0.000772564885 [Eh]
    Exch-Disp20 (OS)    =     0.000411252213 [Eh]

    SAPT Results 
  --------------------------------------------------------------------------------------------------------
    Electrostatics                 -8.42516444 [mEh]      -5.28687050 [kcal/mol]     -22.12026618 [kJ/mol]
      Elst10,r                     -8.42516444 [mEh]      -5.28687050 [kcal/mol]     -22.12026618 [kJ/mol]

    Exchange                       11.71864227 [mEh]       7.35355904 [kcal/mol]      30.76729103 [kJ/mol]
      Exch10                       11.71864227 [mEh]       7.35355904 [kcal/mol]      30.76729103 [kJ/mol]
      Exch10(S^2)                  11.63642882 [mEh]       7.30196933 [kcal/mol]      30.55143966 [kJ/mol]

    Induction                      -2.91579515 [mEh]      -1.82968908 [kcal/mol]      -7.65541912 [kJ/mol]
      Ind20,r                      -5.62171584 [mEh]      -3.52767995 [kcal/mol]     -14.75981290 [kJ/mol]
      Exch-Ind20,r                  4.09909296 [mEh]       2.57221967 [kcal/mol]      10.76216709 [kJ/mol]
      delta HF,r (2)               -1.39317228 [mEh]      -0.87422880 [kcal/mol]      -3.65777331 [kJ/mol]

    Dispersion                     -7.82197729 [mEh]      -4.90836485 [kcal/mol]     -20.53659855 [kJ/mol]
      Disp20                       -9.00579439 [mEh]      -5.65122130 [kcal/mol]     -23.64470992 [kJ/mol]
      Exch-Disp20                   1.18381710 [mEh]       0.74285644 [kcal/mol]       3.10811136 [kJ/mol]
      Disp20 (SS)                  -4.50289720 [mEh]      -2.82561065 [kcal/mol]     -11.82235496 [kJ/mol]
      Disp20 (OS)                  -4.50289720 [mEh]      -2.82561065 [kcal/mol]     -11.82235496 [kJ/mol]
      Exch-Disp20 (SS)              0.77256489 [mEh]       0.48479178 [kcal/mol]       2.02836883 [kJ/mol]
      Exch-Disp20 (OS)              0.41125221 [mEh]       0.25806466 [kcal/mol]       1.07974254 [kJ/mol]

  Total HF                          0.37768268 [mEh]       0.23699946 [kcal/mol]       0.99160573 [kJ/mol]
  Total SAPT0                      -7.44429462 [mEh]      -4.67136540 [kcal/mol]     -19.54499282 [kJ/mol]

  Special recipe for scaled SAPT0 (see Manual):
    Electrostatics sSAPT0          -8.42516444 [mEh]      -5.28687050 [kcal/mol]     -22.12026618 [kJ/mol]
    Exchange sSAPT0                11.71864227 [mEh]       7.35355904 [kcal/mol]      30.76729103 [kJ/mol]
    Induction sSAPT0               -2.82829740 [mEh]      -1.77478341 [kcal/mol]      -7.42569380 [kJ/mol]
    Dispersion sSAPT0              -7.79670796 [mEh]      -4.89250811 [kcal/mol]     -20.47025393 [kJ/mol]
  Total sSAPT0                     -7.33152753 [mEh]      -4.60060298 [kcal/mol]     -19.24892288 [kJ/mol]
  --------------------------------------------------------------------------------------------------------

*** tstop() called on r282 at Fri Sep 10 16:07:33 2021
Module time:
	user time   =      76.82 seconds =       1.28 minutes
	system time =      14.31 seconds =       0.24 minutes
	total time  =         91 seconds =       1.52 minutes
Total time:
	user time   =     183.17 seconds =       3.05 minutes
	system time =      16.60 seconds =       0.28 minutes
	total time  =        200 seconds =       3.33 minutes

    Psi4 stopped on: Friday, 10 September 2021 04:07PM
    Psi4 wall time for execution: 0:03:20.13

*** Psi4 exiting successfully. Buy a developer a beer!
