
    -----------------------------------------------------------------------
          Psi4: An Open-Source Ab Initio Electronic Structure Package
                               Psi4 1.3.2 release

                         Git: Rev {HEAD} ecbda83 


    R. M. Parrish, L. A. Burns, D. G. A. Smith, A. C. Simmonett,
    A. E. DePrince III, E. G. Hohenstein, U. Bozkaya, A. Yu. Sokolov,
    R. Di Remigio, R. M. Richard, J. F. Gonthier, A. M. James,
    H. R. McAlexander, A. Kumar, M. Saitow, X. Wang, B. P. Pritchard,
    P. Verma, H. F. Schaefer III, K. Patkowski, R. A. King, E. F. Valeev,
    F. A. Evangelista, J. M. Turney, T. D. Crawford, and C. D. Sherrill,
    J. Chem. Theory Comput. 13(7) pp 3185--3197 (2017).
    (doi: 10.1021/acs.jctc.7b00174)


                         Additional Contributions by
    P. Kraus, H. Kruse, M. H. Lechner, M. C. Schieber, R. A. Shaw,
    A. Alenaizan, R. Galvelis, Z. L. Glick, S. Lehtola, and J. P. Misiewicz

    -----------------------------------------------------------------------


    Psi4 started on: Friday, 10 September 2021 04:25PM

    Process ID: 56849
    Host:       r282
    PSIDATADIR: /home/r08543048/miniconda3/share/psi4
    Memory:     500.0 MiB
    Threads:    1
    
  ==> Input File <==

--------------------------------------------------------------------------
# Any line starting with the # character is a comment line
#! Sample  computation

memory 22 gb

molecule Dimer {
0 1
 C 2.406185    0.720762   -0.376505
 C 1.687176   -0.611107   -0.273153
 O 1.047062   -0.783538    0.987183
 H 1.698282    1.545788   -0.290929
 H 2.918120    0.808932   -1.335683
 H 3.139799    0.814711    0.422316
 H 0.962302   -0.715586   -1.087396
 H 2.395936   -1.433653   -0.357511
 H 0.314089   -0.154330    1.015578
 
 
 
 
 
 

    
    
 --
0 1
 C   -1.446019    1.421468    0.057536
 C   -1.989406    0.236261    0.356402
 C   -2.093000   -0.912845   -0.593467
 H   -1.397535    2.218516    0.786452
 H   -1.050158    1.618975   -0.931241
 H   -2.380187    0.081614    1.357332
 H   -3.129937   -1.233516   -0.700509
 H   -1.712125   -0.642818   -1.577685
 H   -1.524699   -1.767568   -0.223072
   
   
   
   
   





units angstrom

no_reorient
symmetry c1
}

set globals{
  basis jun-cc-pvtz
}

energy('sapt0')


--------------------------------------------------------------------------

  Memory set to  20.489 GiB by Python driver.

  //>>>>>>>>>>>>>>>>>>>>>>>>>>>>>>>>>>>//
  //              Dimer HF             //
  //<<<<<<<<<<<<<<<<<<<<<<<<<<<<<<<<<<<//


*** tstart() called on r282
*** at Fri Sep 10 16:25:57 2021

   => Loading Basis Set <=

    Name: JUN-CC-PVTZ
    Role: ORBITAL
    Keyword: BASIS
    atoms 1-2, 10-12 entry C          line   217 file /home/r08543048/miniconda3/share/psi4/basis/jun-cc-pvtz.gbs 
    atoms 3          entry O          line   305 file /home/r08543048/miniconda3/share/psi4/basis/jun-cc-pvtz.gbs 
    atoms 4-9, 13-18 entry H          line    36 file /home/r08543048/miniconda3/share/psi4/basis/jun-cc-pvtz.gbs 


         ---------------------------------------------------------
                                   SCF
               by Justin Turney, Rob Parrish, Andy Simmonett
                          and Daniel G. A. Smith
                              RHF Reference
                        1 Threads,  20980 MiB Core
         ---------------------------------------------------------

  ==> Geometry <==

    Molecular point group: c1
    Full point group: C1

    Geometry (in Angstrom), charge = 0, multiplicity = 1:

       Center              X                  Y                   Z               Mass       
    ------------   -----------------  -----------------  -----------------  -----------------
         C            2.408879820395     0.733569091805    -0.409363295703    12.000000000000
         C            1.689870820395    -0.598299908195    -0.306011295703    12.000000000000
         O            1.049756820395    -0.770730908195     0.954324704297    15.994914619570
         H            1.700976820395     1.558595091805    -0.323787295703     1.007825032230
         H            2.920814820395     0.821739091805    -1.368541295703     1.007825032230
         H            3.142493820395     0.827518091805     0.389457704297     1.007825032230
         H            0.964996820395    -0.702778908195    -1.120254295703     1.007825032230
         H            2.398630820395    -1.420845908195    -0.390369295703     1.007825032230
         H            0.316783820395    -0.141522908195     0.982719704297     1.007825032230
         C           -1.443324179605     1.434275091805     0.024677704297    12.000000000000
         C           -1.986711179605     0.249068091805     0.323543704297    12.000000000000
         C           -2.090305179605    -0.900037908195    -0.626325295703    12.000000000000
         H           -1.394840179605     2.231323091805     0.753593704297     1.007825032230
         H           -1.047463179605     1.631782091805    -0.964099295703     1.007825032230
         H           -2.377492179605     0.094421091805     1.324473704297     1.007825032230
         H           -3.127242179605    -1.220708908195    -0.733367295703     1.007825032230
         H           -1.709430179605    -0.630010908195    -1.610543295703     1.007825032230
         H           -1.522004179605    -1.754760908195    -0.255930295703     1.007825032230

  Running in c1 symmetry.

  Rotational constants: A =      0.15464  B =      0.05059  C =      0.04517 [cm^-1]
  Rotational constants: A =   4635.98759  B =   1516.53463  C =   1354.19141 [MHz]
  Nuclear repulsion =  238.362202495000901

  Charge       = 0
  Multiplicity = 1
  Electrons    = 50
  Nalpha       = 25
  Nbeta        = 25

  ==> Algorithm <==

  SCF Algorithm Type is DF.
  DIIS enabled.
  MOM disabled.
  Fractional occupation disabled.
  Guess Type is SAD.
  Energy threshold   = 1.00e-08
  Density threshold  = 1.00e-08
  Integral threshold = 0.00e+00

  ==> Primary Basis <==

  Basis Set: JUN-CC-PVTZ
    Blend: JUN-CC-PVTZ
    Number of shells: 150
    Number of basis function: 402
    Number of Cartesian functions: 450
    Spherical Harmonics?: true
    Max angular momentum: 3

   => Loading Basis Set <=

    Name: (JUN-CC-PVTZ AUX)
    Role: JKFIT
    Keyword: DF_BASIS_SCF
    atoms 1-2, 10-12 entry C          line   152 file /home/r08543048/miniconda3/share/psi4/basis/jun-cc-pvtz-jkfit.gbs 
    atoms 3          entry O          line   272 file /home/r08543048/miniconda3/share/psi4/basis/jun-cc-pvtz-jkfit.gbs 
    atoms 4-9, 13-18 entry H          line    70 file /home/r08543048/miniconda3/share/psi4/basis/jun-cc-pvtz-jkfit.gbs 

  ==> Pre-Iterations <==

   -------------------------------------------------------
    Irrep   Nso     Nmo     Nalpha   Nbeta   Ndocc  Nsocc
   -------------------------------------------------------
     A        402     402       0       0       0       0
   -------------------------------------------------------
    Total     402     402      25      25      25       0
   -------------------------------------------------------

  ==> Integral Setup <==

  ==> DiskDFJK: Density-Fitted J/K Matrices <==

    J tasked:                  Yes
    K tasked:                  Yes
    wK tasked:                  No
    OpenMP threads:              1
    Integrals threads:           1
    Memory [MiB]:            15735
    Algorithm:                Core
    Integral Cache:           SAVE
    Schwarz Cutoff:          1E-12
    Fitting Condition:       1E-10

   => Auxiliary Basis Set <=

  Basis Set: (JUN-CC-PVTZ AUX)
    Blend: JUN-CC-PVTZ-JKFIT
    Number of shells: 294
    Number of basis function: 930
    Number of Cartesian functions: 1116
    Spherical Harmonics?: true
    Max angular momentum: 4

  Minimum eigenvalue in the overlap matrix is 3.7979748326E-05.
  Using Symmetric Orthogonalization.

  SCF Guess: Superposition of Atomic Densities via on-the-fly atomic UHF.

  ==> Iterations <==

                           Total Energy        Delta E     RMS |[F,P]|

   @DF-RHF iter SAD:  -269.92095987416883   -2.69921e+02   0.00000e+00 
   @DF-RHF iter   1:  -271.00958865603172   -1.08863e+00   1.65584e-03 DIIS
   @DF-RHF iter   2:  -271.21540424378441   -2.05816e-01   7.88857e-04 DIIS
   @DF-RHF iter   3:  -271.25773174084566   -4.23275e-02   1.51835e-04 DIIS
   @DF-RHF iter   4:  -271.26054612051365   -2.81438e-03   5.91400e-05 DIIS
   @DF-RHF iter   5:  -271.26086055514361   -3.14435e-04   1.09236e-05 DIIS
   @DF-RHF iter   6:  -271.26087710241444   -1.65473e-05   2.58056e-06 DIIS
   @DF-RHF iter   7:  -271.26087822964581   -1.12723e-06   7.01667e-07 DIIS
   @DF-RHF iter   8:  -271.26087832808736   -9.84415e-08   2.77845e-07 DIIS
   @DF-RHF iter   9:  -271.26087834208533   -1.39980e-08   7.73482e-08 DIIS
   @DF-RHF iter  10:  -271.26087834372311   -1.63777e-09   3.93877e-08 DIIS
   @DF-RHF iter  11:  -271.26087834395878   -2.35673e-10   1.02339e-08 DIIS
   @DF-RHF iter  12:  -271.26087834398658   -2.77964e-11   3.93335e-09 DIIS
  Energy and wave function converged.


  ==> Post-Iterations <==

    Orbital Energies [Eh]
    ---------------------

    Doubly Occupied:                                                      

       1A    -20.541819     2A    -11.266883     3A    -11.247570  
       4A    -11.230565     5A    -11.227000     6A    -11.210656  
       7A     -1.344836     8A     -1.077477     9A     -1.006080  
      10A     -0.943216    11A     -0.838729    12A     -0.770052  
      13A     -0.682323    14A     -0.651209    15A     -0.615287  
      16A     -0.595203    17A     -0.592373    18A     -0.575803  
      19A     -0.539230    20A     -0.531870    21A     -0.518705  
      22A     -0.504042    23A     -0.474954    24A     -0.434001  
      25A     -0.372199  

    Virtual:                                                              

      26A      0.051084    27A      0.053216    28A      0.058156  
      29A      0.065763    30A      0.073684    31A      0.081997  
      32A      0.090354    33A      0.095005    34A      0.099673  
      35A      0.109889    36A      0.118872    37A      0.120831  
      38A      0.126590    39A      0.135769    40A      0.140919  
      41A      0.151008    42A      0.172442    43A      0.174793  
      44A      0.189845    45A      0.195425    46A      0.212239  
      47A      0.218002    48A      0.241820    49A      0.247637  
      50A      0.250354    51A      0.265676    52A      0.273746  
      53A      0.279308    54A      0.287407    55A      0.296100  
      56A      0.300149    57A      0.306141    58A      0.310644  
      59A      0.315985    60A      0.327421    61A      0.328720  
      62A      0.339589    63A      0.342074    64A      0.347966  
      65A      0.355153    66A      0.363839    67A      0.375699  
      68A      0.378508    69A      0.384061    70A      0.386882  
      71A      0.401965    72A      0.413643    73A      0.423548  
      74A      0.429279    75A      0.440403    76A      0.447744  
      77A      0.454105    78A      0.466700    79A      0.476277  
      80A      0.490104    81A      0.510269    82A      0.519629  
      83A      0.522407    84A      0.524308    85A      0.537481  
      86A      0.551899    87A      0.559235    88A      0.562248  
      89A      0.567010    90A      0.575269    91A      0.604541  
      92A      0.620854    93A      0.652037    94A      0.683435  
      95A      0.692194    96A      0.697677    97A      0.699454  
      98A      0.709599    99A      0.719773   100A      0.735028  
     101A      0.745014   102A      0.749641   103A      0.759537  
     104A      0.768101   105A      0.782094   106A      0.787017  
     107A      0.796903   108A      0.813248   109A      0.818623  
     110A      0.827409   111A      0.840765   112A      0.853251  
     113A      0.857097   114A      0.867448   115A      0.874914  
     116A      0.891180   117A      0.898546   118A      0.920708  
     119A      0.926185   120A      0.944919   121A      0.949105  
     122A      0.978750   123A      0.984934   124A      1.000001  
     125A      1.013455   126A      1.018613   127A      1.036429  
     128A      1.051056   129A      1.062451   130A      1.095756  
     131A      1.097744   132A      1.103725   133A      1.118609  
     134A      1.125851   135A      1.147551   136A      1.161499  
     137A      1.183417   138A      1.194327   139A      1.196213  
     140A      1.212248   141A      1.242540   142A      1.271340  
     143A      1.284702   144A      1.324467   145A      1.342270  
     146A      1.346187   147A      1.351417   148A      1.357206  
     149A      1.370930   150A      1.379220   151A      1.393818  
     152A      1.404542   153A      1.419384   154A      1.432647  
     155A      1.451771   156A      1.466960   157A      1.470528  
     158A      1.480402   159A      1.486579   160A      1.509372  
     161A      1.532219   162A      1.533914   163A      1.539487  
     164A      1.552135   165A      1.566568   166A      1.578303  
     167A      1.596887   168A      1.606838   169A      1.621124  
     170A      1.627446   171A      1.637514   172A      1.657720  
     173A      1.675084   174A      1.691360   175A      1.711129  
     176A      1.737433   177A      1.747814   178A      1.756837  
     179A      1.782323   180A      1.793485   181A      1.810623  
     182A      1.837047   183A      1.850724   184A      1.876942  
     185A      1.887777   186A      1.900732   187A      1.923778  
     188A      1.962820   189A      1.981972   190A      2.044918  
     191A      2.052422   192A      2.164794   193A      2.211862  
     194A      2.385765   195A      2.407658   196A      2.442751  
     197A      2.530676   198A      2.597292   199A      2.703651  
     200A      2.724734   201A      2.767656   202A      2.774306  
     203A      2.787078   204A      2.791601   205A      2.818562  
     206A      2.826956   207A      2.844844   208A      2.850940  
     209A      2.871752   210A      2.889304   211A      2.915709  
     212A      2.920959   213A      2.947487   214A      2.999308  
     215A      3.008000   216A      3.022443   217A      3.048003  
     218A      3.067164   219A      3.070792   220A      3.089996  
     221A      3.105169   222A      3.128220   223A      3.131211  
     224A      3.162442   225A      3.172757   226A      3.187757  
     227A      3.213879   228A      3.224488   229A      3.241477  
     230A      3.251957   231A      3.265795   232A      3.284464  
     233A      3.289706   234A      3.300463   235A      3.305860  
     236A      3.324168   237A      3.335953   238A      3.349407  
     239A      3.364371   240A      3.371424   241A      3.384733  
     242A      3.387895   243A      3.425336   244A      3.437144  
     245A      3.442333   246A      3.462294   247A      3.471613  
     248A      3.477706   249A      3.490821   250A      3.502000  
     251A      3.503843   252A      3.518930   253A      3.548115  
     254A      3.558194   255A      3.566183   256A      3.577904  
     257A      3.582838   258A      3.599005   259A      3.617539  
     260A      3.630293   261A      3.644966   262A      3.662951  
     263A      3.679036   264A      3.687267   265A      3.718837  
     266A      3.731057   267A      3.747612   268A      3.756637  
     269A      3.783906   270A      3.790563   271A      3.813035  
     272A      3.818513   273A      3.834584   274A      3.845946  
     275A      3.858919   276A      3.896785   277A      3.913306  
     278A      3.916706   279A      3.963875   280A      3.968387  
     281A      3.981863   282A      4.007639   283A      4.032316  
     284A      4.048583   285A      4.065089   286A      4.081476  
     287A      4.106658   288A      4.124841   289A      4.134918  
     290A      4.156827   291A      4.187321   292A      4.205603  
     293A      4.242842   294A      4.256162   295A      4.261635  
     296A      4.273314   297A      4.281931   298A      4.289396  
     299A      4.308575   300A      4.328941   301A      4.344679  
     302A      4.355540   303A      4.364798   304A      4.390352  
     305A      4.397890   306A      4.410931   307A      4.412935  
     308A      4.432649   309A      4.436717   310A      4.443103  
     311A      4.450070   312A      4.478157   313A      4.491068  
     314A      4.497861   315A      4.509906   316A      4.528801  
     317A      4.533039   318A      4.577955   319A      4.586685  
     320A      4.594918   321A      4.631588   322A      4.647255  
     323A      4.659220   324A      4.669466   325A      4.702550  
     326A      4.715321   327A      4.770402   328A      4.773910  
     329A      4.782273   330A      4.818883   331A      4.852920  
     332A      4.864080   333A      4.884329   334A      4.905396  
     335A      4.910595   336A      4.945901   337A      5.017797  
     338A      5.025694   339A      5.065422   340A      5.118529  
     341A      5.174397   342A      5.187123   343A      5.200983  
     344A      5.216695   345A      5.221242   346A      5.245322  
     347A      5.278131   348A      5.278926   349A      5.297432  
     350A      5.309372   351A      5.320721   352A      5.348049  
     353A      5.377257   354A      5.399576   355A      5.445168  
     356A      5.465570   357A      5.486302   358A      5.558290  
     359A      5.566147   360A      5.581631   361A      5.617964  
     362A      5.630095   363A      5.677309   364A      5.693117  
     365A      5.735996   366A      5.745344   367A      5.754860  
     368A      5.761131   369A      5.778800   370A      5.841307  
     371A      5.855682   372A      5.905936   373A      5.930024  
     374A      5.953044   375A      5.976724   376A      6.087487  
     377A      6.114191   378A      6.310314   379A      6.387456  
     380A      6.393154   381A      6.438372   382A      6.458900  
     383A      6.499888   384A      6.505537   385A      6.521939  
     386A      6.542557   387A      6.687344   388A      6.927976  
     389A      7.075968   390A      7.242178   391A      7.338828  
     392A      7.400015   393A      7.521387   394A      7.643962  
     395A      7.862413   396A      8.137780   397A     12.309385  
     398A     13.726803   399A     13.810536   400A     14.566733  
     401A     14.669033   402A     15.314137  

    Final Occupation by Irrep:
              A 
    DOCC [    25 ]

  @DF-RHF Final Energy:  -271.26087834398658

   => Energetics <=

    Nuclear Repulsion Energy =            238.3622024950009006
    One-Electron Energy =                -839.6619980797197513
    Two-Electron Energy =                 330.0389172407322462
    Total Energy =                       -271.2608783439865761

Computation Completed


Properties will be evaluated at   0.000000,   0.000000,   0.000000 [a0]

Properties computed using the SCF density matrix

  Nuclear Dipole Moment: [e a0]
     X:     0.2546      Y:     1.2101      Z:    -3.1047

  Electronic Dipole Moment: [e a0]
     X:    -0.6166      Y:    -0.8890      Z:     2.5607

  Dipole Moment: [e a0]
     X:    -0.3620      Y:     0.3211      Z:    -0.5440     Total:     0.7281

  Dipole Moment: [D]
     X:    -0.9201      Y:     0.8162      Z:    -1.3827     Total:     1.8506


*** tstop() called on r282 at Fri Sep 10 16:26:26 2021
Module time:
	user time   =      28.25 seconds =       0.47 minutes
	system time =       0.79 seconds =       0.01 minutes
	total time  =         29 seconds =       0.48 minutes
Total time:
	user time   =      28.25 seconds =       0.47 minutes
	system time =       0.79 seconds =       0.01 minutes
	total time  =         29 seconds =       0.48 minutes

  //>>>>>>>>>>>>>>>>>>>>>>>>>>>>>>>>>>>//
  //            Monomer A HF           //
  //<<<<<<<<<<<<<<<<<<<<<<<<<<<<<<<<<<<//


*** tstart() called on r282
*** at Fri Sep 10 16:26:26 2021

   => Loading Basis Set <=

    Name: JUN-CC-PVTZ
    Role: ORBITAL
    Keyword: BASIS
    atoms 1-2, 10-12 entry C          line   217 file /home/r08543048/miniconda3/share/psi4/basis/jun-cc-pvtz.gbs 
    atoms 3          entry O          line   305 file /home/r08543048/miniconda3/share/psi4/basis/jun-cc-pvtz.gbs 
    atoms 4-9, 13-18 entry H          line    36 file /home/r08543048/miniconda3/share/psi4/basis/jun-cc-pvtz.gbs 


         ---------------------------------------------------------
                                   SCF
               by Justin Turney, Rob Parrish, Andy Simmonett
                          and Daniel G. A. Smith
                              RHF Reference
                        1 Threads,  20980 MiB Core
         ---------------------------------------------------------

  ==> Geometry <==

    Molecular point group: c1
    Full point group: C1

    Geometry (in Angstrom), charge = 0, multiplicity = 1:

       Center              X                  Y                   Z               Mass       
    ------------   -----------------  -----------------  -----------------  -----------------
         C            2.408879820395     0.733569091805    -0.409363295703    12.000000000000
         C            1.689870820395    -0.598299908195    -0.306011295703    12.000000000000
         O            1.049756820395    -0.770730908195     0.954324704297    15.994914619570
         H            1.700976820395     1.558595091805    -0.323787295703     1.007825032230
         H            2.920814820395     0.821739091805    -1.368541295703     1.007825032230
         H            3.142493820395     0.827518091805     0.389457704297     1.007825032230
         H            0.964996820395    -0.702778908195    -1.120254295703     1.007825032230
         H            2.398630820395    -1.420845908195    -0.390369295703     1.007825032230
         H            0.316783820395    -0.141522908195     0.982719704297     1.007825032230
      Gh(C)          -1.443324179605     1.434275091805     0.024677704297    12.000000000000
      Gh(C)          -1.986711179605     0.249068091805     0.323543704297    12.000000000000
      Gh(C)          -2.090305179605    -0.900037908195    -0.626325295703    12.000000000000
      Gh(H)          -1.394840179605     2.231323091805     0.753593704297     1.007825032230
      Gh(H)          -1.047463179605     1.631782091805    -0.964099295703     1.007825032230
      Gh(H)          -2.377492179605     0.094421091805     1.324473704297     1.007825032230
      Gh(H)          -3.127242179605    -1.220708908195    -0.733367295703     1.007825032230
      Gh(H)          -1.709430179605    -0.630010908195    -1.610543295703     1.007825032230
      Gh(H)          -1.522004179605    -1.754760908195    -0.255930295703     1.007825032230

  Running in c1 symmetry.

  Rotational constants: A =      0.15464  B =      0.05059  C =      0.04517 [cm^-1]
  Rotational constants: A =   4635.98759  B =   1516.53463  C =   1354.19141 [MHz]
  Nuclear repulsion =   81.772341848164643

  Charge       = 0
  Multiplicity = 1
  Electrons    = 26
  Nalpha       = 13
  Nbeta        = 13

  ==> Algorithm <==

  SCF Algorithm Type is DF.
  DIIS enabled.
  MOM disabled.
  Fractional occupation disabled.
  Guess Type is SAD.
  Energy threshold   = 1.00e-08
  Density threshold  = 1.00e-08
  Integral threshold = 0.00e+00

  ==> Primary Basis <==

  Basis Set: JUN-CC-PVTZ
    Blend: JUN-CC-PVTZ
    Number of shells: 150
    Number of basis function: 402
    Number of Cartesian functions: 450
    Spherical Harmonics?: true
    Max angular momentum: 3

   => Loading Basis Set <=

    Name: (JUN-CC-PVTZ AUX)
    Role: JKFIT
    Keyword: DF_BASIS_SCF
    atoms 1-2, 10-12 entry C          line   152 file /home/r08543048/miniconda3/share/psi4/basis/jun-cc-pvtz-jkfit.gbs 
    atoms 3          entry O          line   272 file /home/r08543048/miniconda3/share/psi4/basis/jun-cc-pvtz-jkfit.gbs 
    atoms 4-9, 13-18 entry H          line    70 file /home/r08543048/miniconda3/share/psi4/basis/jun-cc-pvtz-jkfit.gbs 

  ==> Pre-Iterations <==

   -------------------------------------------------------
    Irrep   Nso     Nmo     Nalpha   Nbeta   Ndocc  Nsocc
   -------------------------------------------------------
     A        402     402       0       0       0       0
   -------------------------------------------------------
    Total     402     402      13      13      13       0
   -------------------------------------------------------

  ==> Integral Setup <==

  ==> DiskDFJK: Density-Fitted J/K Matrices <==

    J tasked:                  Yes
    K tasked:                  Yes
    wK tasked:                  No
    OpenMP threads:              1
    Integrals threads:           1
    Memory [MiB]:            15735
    Algorithm:                Core
    Integral Cache:           LOAD
    Schwarz Cutoff:          1E-12
    Fitting Condition:       1E-10

   => Auxiliary Basis Set <=

  Basis Set: (JUN-CC-PVTZ AUX)
    Blend: JUN-CC-PVTZ-JKFIT
    Number of shells: 294
    Number of basis function: 930
    Number of Cartesian functions: 1116
    Spherical Harmonics?: true
    Max angular momentum: 4

  Minimum eigenvalue in the overlap matrix is 3.7979748326E-05.
  Using Symmetric Orthogonalization.

  SCF Guess: Superposition of Atomic Densities via on-the-fly atomic UHF.

  ==> Iterations <==

                           Total Energy        Delta E     RMS |[F,P]|

   @DF-RHF iter SAD:  -153.43390802289710   -1.53434e+02   0.00000e+00 
   @DF-RHF iter   1:  -154.01157149125424   -5.77663e-01   1.24999e-03 DIIS
   @DF-RHF iter   2:  -154.11591007260520   -1.04339e-01   6.67517e-04 DIIS
   @DF-RHF iter   3:  -154.14242573430602   -2.65157e-02   1.14947e-04 DIIS
   @DF-RHF iter   4:  -154.14396810519384   -1.54237e-03   4.36860e-05 DIIS
   @DF-RHF iter   5:  -154.14415402758846   -1.85922e-04   8.31228e-06 DIIS
   @DF-RHF iter   6:  -154.14416400802850   -9.98044e-06   1.88789e-06 DIIS
   @DF-RHF iter   7:  -154.14416470576796   -6.97739e-07   5.34120e-07 DIIS
   @DF-RHF iter   8:  -154.14416475722442   -5.14565e-08   1.71782e-07 DIIS
   @DF-RHF iter   9:  -154.14416476306411   -5.83969e-09   4.46158e-08 DIIS
   @DF-RHF iter  10:  -154.14416476349436   -4.30248e-10   9.16838e-09 DIIS
  Energy and wave function converged.


  ==> Post-Iterations <==

    Orbital Energies [Eh]
    ---------------------

    Doubly Occupied:                                                      

       1A    -20.556373     2A    -11.274243     3A    -11.216888  
       4A     -1.356554     5A     -1.013009     6A     -0.846069  
       7A     -0.689365     8A     -0.623649     9A     -0.601213  
      10A     -0.548086    11A     -0.525938    12A     -0.481952  
      13A     -0.444004  

    Virtual:                                                              

      14A      0.030442    15A      0.045423    16A      0.053517  
      17A      0.062562    18A      0.069914    19A      0.078821  
      20A      0.086218    21A      0.090820    22A      0.093641  
      23A      0.111158    24A      0.112677    25A      0.115136  
      26A      0.120219    27A      0.135756    28A      0.141646  
      29A      0.144603    30A      0.150644    31A      0.157424  
      32A      0.168387    33A      0.194812    34A      0.206780  
      35A      0.216855    36A      0.234409    37A      0.247305  
      38A      0.253182    39A      0.262582    40A      0.269725  
      41A      0.274394    42A      0.280278    43A      0.288608  
      44A      0.294692    45A      0.303449    46A      0.309863  
      47A      0.319125    48A      0.326600    49A      0.334408  
      50A      0.336903    51A      0.345511    52A      0.351055  
      53A      0.364121    54A      0.375923    55A      0.379134  
      56A      0.389804    57A      0.394650    58A      0.402805  
      59A      0.410726    60A      0.418934    61A      0.424862  
      62A      0.436575    63A      0.439739    64A      0.448322  
      65A      0.456781    66A      0.471502    67A      0.480826  
      68A      0.492673    69A      0.509343    70A      0.517388  
      71A      0.522939    72A      0.527560    73A      0.547189  
      74A      0.555735    75A      0.556904    76A      0.559476  
      77A      0.570837    78A      0.590484    79A      0.610817  
      80A      0.614726    81A      0.628510    82A      0.645809  
      83A      0.656117    84A      0.662279    85A      0.674745  
      86A      0.691839    87A      0.700353    88A      0.711611  
      89A      0.722254    90A      0.735999    91A      0.740154  
      92A      0.771546    93A      0.782154    94A      0.787534  
      95A      0.800363    96A      0.806770    97A      0.833711  
      98A      0.836790    99A      0.838442   100A      0.875860  
     101A      0.886557   102A      0.890516   103A      0.912103  
     104A      0.940337   105A      0.967347   106A      1.002589  
     107A      1.020171   108A      1.038583   109A      1.044693  
     110A      1.071798   111A      1.082029   112A      1.093006  
     113A      1.102035   114A      1.117373   115A      1.124864  
     116A      1.143536   117A      1.155072   118A      1.179843  
     119A      1.193143   120A      1.203203   121A      1.207226  
     122A      1.229508   123A      1.240921   124A      1.245211  
     125A      1.259457   126A      1.271350   127A      1.283811  
     128A      1.307586   129A      1.309336   130A      1.321710  
     131A      1.344555   132A      1.348498   133A      1.355257  
     134A      1.373900   135A      1.384525   136A      1.394550  
     137A      1.402010   138A      1.410596   139A      1.417258  
     140A      1.429830   141A      1.446297   142A      1.472635  
     143A      1.477371   144A      1.489541   145A      1.498343  
     146A      1.505137   147A      1.510791   148A      1.513448  
     149A      1.527745   150A      1.546384   151A      1.553109  
     152A      1.559808   153A      1.584181   154A      1.596380  
     155A      1.599608   156A      1.617441   157A      1.631702  
     158A      1.638570   159A      1.644163   160A      1.648677  
     161A      1.676958   162A      1.694824   163A      1.707135  
     164A      1.724850   165A      1.740415   166A      1.768403  
     167A      1.797395   168A      1.807629   169A      1.827924  
     170A      1.851900   171A      1.857128   172A      1.890796  
     173A      1.913431   174A      1.959920   175A      1.976483  
     176A      2.004363   177A      2.028426   178A      2.070669  
     179A      2.079270   180A      2.107332   181A      2.182440  
     182A      2.219518   183A      2.244617   184A      2.328957  
     185A      2.370857   186A      2.408936   187A      2.416741  
     188A      2.435071   189A      2.457712   190A      2.513000  
     191A      2.539239   192A      2.562144   193A      2.608904  
     194A      2.665308   195A      2.784235   196A      2.815374  
     197A      2.838721   198A      2.862503   199A      2.887782  
     200A      2.897118   201A      2.932466   202A      2.988840  
     203A      3.037571   204A      3.107349   205A      3.124411  
     206A      3.218999   207A      3.228095   208A      3.274500  
     209A      3.275143   210A      3.299236   211A      3.340489  
     212A      3.367053   213A      3.412905   214A      3.419278  
     215A      3.422494   216A      3.443364   217A      3.446764  
     218A      3.478231   219A      3.494578   220A      3.513470  
     221A      3.526859   222A      3.545017   223A      3.559808  
     224A      3.569245   225A      3.588178   226A      3.594277  
     227A      3.609857   228A      3.618084   229A      3.635471  
     230A      3.652667   231A      3.664651   232A      3.682956  
     233A      3.697538   234A      3.703762   235A      3.722598  
     236A      3.727521   237A      3.759920   238A      3.775425  
     239A      3.791533   240A      3.812554   241A      3.831030  
     242A      3.851322   243A      3.865715   244A      3.883429  
     245A      3.888125   246A      3.903250   247A      3.934433  
     248A      3.962879   249A      3.965020   250A      3.972906  
     251A      4.026653   252A      4.032356   253A      4.047362  
     254A      4.055007   255A      4.072004   256A      4.092057  
     257A      4.100190   258A      4.130786   259A      4.137730  
     260A      4.166078   261A      4.173063   262A      4.192639  
     263A      4.200165   264A      4.235504   265A      4.251041  
     266A      4.255727   267A      4.258043   268A      4.266025  
     269A      4.288042   270A      4.295926   271A      4.318860  
     272A      4.336074   273A      4.366471   274A      4.387919  
     275A      4.398673   276A      4.415950   277A      4.429416  
     278A      4.433029   279A      4.439792   280A      4.447315  
     281A      4.473280   282A      4.475579   283A      4.481577  
     284A      4.497024   285A      4.515532   286A      4.524278  
     287A      4.543840   288A      4.562400   289A      4.568922  
     290A      4.595697   291A      4.619878   292A      4.626395  
     293A      4.631927   294A      4.649076   295A      4.668620  
     296A      4.683776   297A      4.693218   298A      4.724622  
     299A      4.739665   300A      4.748421   301A      4.784447  
     302A      4.793019   303A      4.802568   304A      4.816339  
     305A      4.824128   306A      4.827471   307A      4.844105  
     308A      4.862029   309A      4.870598   310A      4.897267  
     311A      4.899863   312A      4.908923   313A      4.931072  
     314A      4.961920   315A      4.964395   316A      4.983527  
     317A      4.999778   318A      5.028301   319A      5.043485  
     320A      5.076121   321A      5.080542   322A      5.124201  
     323A      5.158957   324A      5.176728   325A      5.184707  
     326A      5.211996   327A      5.229549   328A      5.243387  
     329A      5.272888   330A      5.276509   331A      5.297056  
     332A      5.319115   333A      5.387561   334A      5.389237  
     335A      5.456508   336A      5.466823   337A      5.522743  
     338A      5.524937   339A      5.556121   340A      5.560348  
     341A      5.585725   342A      5.623977   343A      5.667576  
     344A      5.734660   345A      5.738936   346A      5.754295  
     347A      5.802878   348A      5.830988   349A      5.840591  
     350A      5.891414   351A      5.903743   352A      5.923312  
     353A      5.965671   354A      5.990373   355A      6.025556  
     356A      6.101160   357A      6.121223   358A      6.133688  
     359A      6.235165   360A      6.265477   361A      6.298862  
     362A      6.331975   363A      6.374299   364A      6.386282  
     365A      6.400199   366A      6.488691   367A      6.501077  
     368A      6.532490   369A      6.613367   370A      6.712650  
     371A      6.747805   372A      6.837470   373A      6.918405  
     374A      7.062761   375A      7.076140   376A      7.230770  
     377A      7.325805   378A      7.378875   379A      7.387715  
     380A      7.413738   381A      7.508853   382A      7.560261  
     383A      7.600370   384A      7.633634   385A      7.645518  
     386A      7.816946   387A      7.851475   388A      7.907450  
     389A      7.964322   390A      8.106071   391A      8.133873  
     392A      8.282981   393A      8.722376   394A      9.388232  
     395A      9.900058   396A     10.184800   397A     13.721897  
     398A     13.800062   399A     14.576403   400A     41.046259  
     401A     45.897078   402A     47.136301  

    Final Occupation by Irrep:
              A 
    DOCC [    13 ]

  @DF-RHF Final Energy:  -154.14416476349436

   => Energetics <=

    Nuclear Repulsion Energy =             81.7723418481646434
    One-Electron Energy =                -371.4783216315173036
    Two-Electron Energy =                 135.5618150198582725
    Total Energy =                       -154.1441647634943592

Computation Completed


Properties will be evaluated at   0.000000,   0.000000,   0.000000 [a0]

Properties computed using the SCF density matrix

  Nuclear Dipole Moment: [e a0]
     X:    83.9705      Y:    -8.3366      Z:     2.8565

  Electronic Dipole Moment: [e a0]
     X:   -84.1015      Y:     8.8118      Z:    -3.3894

  Dipole Moment: [e a0]
     X:    -0.1311      Y:     0.4752      Z:    -0.5330     Total:     0.7260

  Dipole Moment: [D]
     X:    -0.3331      Y:     1.2079      Z:    -1.3546     Total:     1.8453


*** tstop() called on r282 at Fri Sep 10 16:26:40 2021
Module time:
	user time   =      13.78 seconds =       0.23 minutes
	system time =       0.36 seconds =       0.01 minutes
	total time  =         14 seconds =       0.23 minutes
Total time:
	user time   =      42.03 seconds =       0.70 minutes
	system time =       1.15 seconds =       0.02 minutes
	total time  =         43 seconds =       0.72 minutes

  //>>>>>>>>>>>>>>>>>>>>>>>>>>>>>>>>>>>//
  //            Monomer B HF           //
  //<<<<<<<<<<<<<<<<<<<<<<<<<<<<<<<<<<<//


*** tstart() called on r282
*** at Fri Sep 10 16:26:40 2021

   => Loading Basis Set <=

    Name: JUN-CC-PVTZ
    Role: ORBITAL
    Keyword: BASIS
    atoms 1-2, 10-12 entry C          line   217 file /home/r08543048/miniconda3/share/psi4/basis/jun-cc-pvtz.gbs 
    atoms 3          entry O          line   305 file /home/r08543048/miniconda3/share/psi4/basis/jun-cc-pvtz.gbs 
    atoms 4-9, 13-18 entry H          line    36 file /home/r08543048/miniconda3/share/psi4/basis/jun-cc-pvtz.gbs 


         ---------------------------------------------------------
                                   SCF
               by Justin Turney, Rob Parrish, Andy Simmonett
                          and Daniel G. A. Smith
                              RHF Reference
                        1 Threads,  20980 MiB Core
         ---------------------------------------------------------

  ==> Geometry <==

    Molecular point group: c1
    Full point group: C1

    Geometry (in Angstrom), charge = 0, multiplicity = 1:

       Center              X                  Y                   Z               Mass       
    ------------   -----------------  -----------------  -----------------  -----------------
      Gh(C)           2.408879820395     0.733569091805    -0.409363295703    12.000000000000
      Gh(C)           1.689870820395    -0.598299908195    -0.306011295703    12.000000000000
      Gh(O)           1.049756820395    -0.770730908195     0.954324704297    15.994914619570
      Gh(H)           1.700976820395     1.558595091805    -0.323787295703     1.007825032230
      Gh(H)           2.920814820395     0.821739091805    -1.368541295703     1.007825032230
      Gh(H)           3.142493820395     0.827518091805     0.389457704297     1.007825032230
      Gh(H)           0.964996820395    -0.702778908195    -1.120254295703     1.007825032230
      Gh(H)           2.398630820395    -1.420845908195    -0.390369295703     1.007825032230
      Gh(H)           0.316783820395    -0.141522908195     0.982719704297     1.007825032230
         C           -1.443324179605     1.434275091805     0.024677704297    12.000000000000
         C           -1.986711179605     0.249068091805     0.323543704297    12.000000000000
         C           -2.090305179605    -0.900037908195    -0.626325295703    12.000000000000
         H           -1.394840179605     2.231323091805     0.753593704297     1.007825032230
         H           -1.047463179605     1.631782091805    -0.964099295703     1.007825032230
         H           -2.377492179605     0.094421091805     1.324473704297     1.007825032230
         H           -3.127242179605    -1.220708908195    -0.733367295703     1.007825032230
         H           -1.709430179605    -0.630010908195    -1.610543295703     1.007825032230
         H           -1.522004179605    -1.754760908195    -0.255930295703     1.007825032230

  Running in c1 symmetry.

  Rotational constants: A =      0.15464  B =      0.05059  C =      0.04517 [cm^-1]
  Rotational constants: A =   4635.98759  B =   1516.53463  C =   1354.19141 [MHz]
  Nuclear repulsion =   70.838477980769738

  Charge       = 0
  Multiplicity = 1
  Electrons    = 24
  Nalpha       = 12
  Nbeta        = 12

  ==> Algorithm <==

  SCF Algorithm Type is DF.
  DIIS enabled.
  MOM disabled.
  Fractional occupation disabled.
  Guess Type is SAD.
  Energy threshold   = 1.00e-08
  Density threshold  = 1.00e-08
  Integral threshold = 0.00e+00

  ==> Primary Basis <==

  Basis Set: JUN-CC-PVTZ
    Blend: JUN-CC-PVTZ
    Number of shells: 150
    Number of basis function: 402
    Number of Cartesian functions: 450
    Spherical Harmonics?: true
    Max angular momentum: 3

   => Loading Basis Set <=

    Name: (JUN-CC-PVTZ AUX)
    Role: JKFIT
    Keyword: DF_BASIS_SCF
    atoms 1-2, 10-12 entry C          line   152 file /home/r08543048/miniconda3/share/psi4/basis/jun-cc-pvtz-jkfit.gbs 
    atoms 3          entry O          line   272 file /home/r08543048/miniconda3/share/psi4/basis/jun-cc-pvtz-jkfit.gbs 
    atoms 4-9, 13-18 entry H          line    70 file /home/r08543048/miniconda3/share/psi4/basis/jun-cc-pvtz-jkfit.gbs 

  ==> Pre-Iterations <==

   -------------------------------------------------------
    Irrep   Nso     Nmo     Nalpha   Nbeta   Ndocc  Nsocc
   -------------------------------------------------------
     A        402     402       0       0       0       0
   -------------------------------------------------------
    Total     402     402      12      12      12       0
   -------------------------------------------------------

  ==> Integral Setup <==

  ==> DiskDFJK: Density-Fitted J/K Matrices <==

    J tasked:                  Yes
    K tasked:                  Yes
    wK tasked:                  No
    OpenMP threads:              1
    Integrals threads:           1
    Memory [MiB]:            15735
    Algorithm:                Core
    Integral Cache:           LOAD
    Schwarz Cutoff:          1E-12
    Fitting Condition:       1E-10

   => Auxiliary Basis Set <=

  Basis Set: (JUN-CC-PVTZ AUX)
    Blend: JUN-CC-PVTZ-JKFIT
    Number of shells: 294
    Number of basis function: 930
    Number of Cartesian functions: 1116
    Spherical Harmonics?: true
    Max angular momentum: 4

  Minimum eigenvalue in the overlap matrix is 3.7979748326E-05.
  Using Symmetric Orthogonalization.

  SCF Guess: Superposition of Atomic Densities via on-the-fly atomic UHF.

  ==> Iterations <==

                           Total Energy        Delta E     RMS |[F,P]|

   @DF-RHF iter SAD:  -116.33065493263628   -1.16331e+02   0.00000e+00 
   @DF-RHF iter   1:  -116.98795834923797   -6.57303e-01   1.13891e-03 DIIS
   @DF-RHF iter   2:  -117.09543844671263   -1.07480e-01   4.88573e-04 DIIS
   @DF-RHF iter   3:  -117.11545024359964   -2.00118e-02   8.80389e-05 DIIS
   @DF-RHF iter   4:  -117.11674449089678   -1.29425e-03   2.66425e-05 DIIS
   @DF-RHF iter   5:  -117.11681905058681   -7.45597e-05   7.12709e-06 DIIS
   @DF-RHF iter   6:  -117.11682527496471   -6.22438e-06   1.28627e-06 DIIS
   @DF-RHF iter   7:  -117.11682558332265   -3.08358e-07   4.71735e-07 DIIS
   @DF-RHF iter   8:  -117.11682562399460   -4.06719e-08   1.63025e-07 DIIS
   @DF-RHF iter   9:  -117.11682562981761   -5.82301e-09   5.93526e-08 DIIS
   @DF-RHF iter  10:  -117.11682563076181   -9.44198e-10   1.35937e-08 DIIS
   @DF-RHF iter  11:  -117.11682563080596   -4.41531e-11   2.40532e-09 DIIS
  Energy and wave function converged.


  ==> Post-Iterations <==

    Orbital Energies [Eh]
    ---------------------

    Doubly Occupied:                                                      

       1A    -11.234651     2A    -11.220871     3A    -11.217778  
       4A     -1.064559     5A     -0.932885     6A     -0.757955  
       7A     -0.639526     8A     -0.582593     9A     -0.569459  
      10A     -0.523078    11A     -0.493039    12A     -0.357508  

    Virtual:                                                              

      13A      0.039380    14A      0.049815    15A      0.057961  
      16A      0.059887    17A      0.070238    18A      0.077155  
      19A      0.088000    20A      0.093019    21A      0.094872  
      22A      0.108205    23A      0.117529    24A      0.119328  
      25A      0.120703    26A      0.129934    27A      0.142151  
      28A      0.151988    29A      0.160575    30A      0.169615  
      31A      0.176536    32A      0.183459    33A      0.188657  
      34A      0.208519    35A      0.218846    36A      0.228977  
      37A      0.229317    38A      0.240076    39A      0.272682  
      40A      0.275488    41A      0.285498    42A      0.296977  
      43A      0.300114    44A      0.305623    45A      0.312254  
      46A      0.321107    47A      0.337504    48A      0.341121  
      49A      0.346023    50A      0.349778    51A      0.351500  
      52A      0.363887    53A      0.372751    54A      0.376521  
      55A      0.378538    56A      0.394078    57A      0.399632  
      58A      0.401888    59A      0.422191    60A      0.429596  
      61A      0.434257    62A      0.442466    63A      0.453132  
      64A      0.456181    65A      0.471690    66A      0.487981  
      67A      0.498583    68A      0.499381    69A      0.505414  
      70A      0.525955    71A      0.528087    72A      0.539347  
      73A      0.547111    74A      0.551276    75A      0.553336  
      76A      0.566954    77A      0.595388    78A      0.602998  
      79A      0.612945    80A      0.621287    81A      0.638434  
      82A      0.650300    83A      0.678237    84A      0.700007  
      85A      0.705609    86A      0.724668    87A      0.736122  
      88A      0.750154    89A      0.754951    90A      0.762877  
      91A      0.777748    92A      0.786922    93A      0.801295  
      94A      0.806167    95A      0.843186    96A      0.847250  
      97A      0.859456    98A      0.881838    99A      0.888346  
     100A      0.917684   101A      0.929995   102A      0.941648  
     103A      0.959319   104A      0.967587   105A      0.996981  
     106A      1.002089   107A      1.021305   108A      1.022791  
     109A      1.029537   110A      1.044411   111A      1.062637  
     112A      1.070789   113A      1.076625   114A      1.092052  
     115A      1.098437   116A      1.128770   117A      1.135982  
     118A      1.137910   119A      1.143813   120A      1.156247  
     121A      1.162124   122A      1.179988   123A      1.208595  
     124A      1.218110   125A      1.234472   126A      1.259915  
     127A      1.267961   128A      1.272199   129A      1.285587  
     130A      1.293298   131A      1.318274   132A      1.326809  
     133A      1.341765   134A      1.361851   135A      1.369039  
     136A      1.382500   137A      1.396600   138A      1.405843  
     139A      1.407803   140A      1.421171   141A      1.458191  
     142A      1.472854   143A      1.487016   144A      1.498345  
     145A      1.510986   146A      1.531225   147A      1.543073  
     148A      1.553328   149A      1.565236   150A      1.577747  
     151A      1.584186   152A      1.595681   153A      1.609722  
     154A      1.620269   155A      1.627961   156A      1.634445  
     157A      1.653308   158A      1.661445   159A      1.686605  
     160A      1.727760   161A      1.732966   162A      1.745439  
     163A      1.762340   164A      1.770114   165A      1.802448  
     166A      1.816342   167A      1.835328   168A      1.847791  
     169A      1.865879   170A      1.895607   171A      1.931528  
     172A      1.959132   173A      1.981657   174A      2.017879  
     175A      2.036359   176A      2.060969   177A      2.066092  
     178A      2.113562   179A      2.129055   180A      2.219995  
     181A      2.252632   182A      2.345364   183A      2.363677  
     184A      2.428966   185A      2.502721   186A      2.533425  
     187A      2.643198   188A      2.664103   189A      2.734573  
     190A      2.753430   191A      2.767141   192A      2.781063  
     193A      2.805027   194A      2.818274   195A      2.853218  
     196A      2.864269   197A      2.899261   198A      2.917958  
     199A      2.930349   200A      2.955484   201A      3.008856  
     202A      3.038326   203A      3.046921   204A      3.072683  
     205A      3.083731   206A      3.090951   207A      3.113616  
     208A      3.128610   209A      3.157223   210A      3.189190  
     211A      3.204523   212A      3.234281   213A      3.246989  
     214A      3.267629   215A      3.309837   216A      3.310758  
     217A      3.342839   218A      3.354421   219A      3.377230  
     220A      3.381897   221A      3.406625   222A      3.435824  
     223A      3.455455   224A      3.460329   225A      3.500723  
     226A      3.504012   227A      3.513743   228A      3.530321  
     229A      3.547747   230A      3.574163   231A      3.592116  
     232A      3.608328   233A      3.617317   234A      3.625835  
     235A      3.648326   236A      3.658724   237A      3.667246  
     238A      3.679997   239A      3.717826   240A      3.731599  
     241A      3.755277   242A      3.766488   243A      3.783133  
     244A      3.789663   245A      3.807511   246A      3.829303  
     247A      3.834695   248A      3.850540   249A      3.856154  
     250A      3.875366   251A      3.887392   252A      3.927127  
     253A      3.935416   254A      3.954525   255A      4.002019  
     256A      4.013420   257A      4.021736   258A      4.049463  
     259A      4.064425   260A      4.084261   261A      4.094415  
     262A      4.107473   263A      4.132047   264A      4.151671  
     265A      4.165375   266A      4.205402   267A      4.218091  
     268A      4.261805   269A      4.283259   270A      4.293414  
     271A      4.305095   272A      4.312858   273A      4.330045  
     274A      4.341281   275A      4.373007   276A      4.384611  
     277A      4.389707   278A      4.403101   279A      4.412040  
     280A      4.426161   281A      4.454187   282A      4.457799  
     283A      4.476239   284A      4.483328   285A      4.505499  
     286A      4.518465   287A      4.526407   288A      4.542117  
     289A      4.562854   290A      4.593062   291A      4.604092  
     292A      4.614666   293A      4.627084   294A      4.649165  
     295A      4.662541   296A      4.684744   297A      4.719160  
     298A      4.728124   299A      4.749594   300A      4.757279  
     301A      4.774332   302A      4.779657   303A      4.792992  
     304A      4.794297   305A      4.811512   306A      4.825930  
     307A      4.835762   308A      4.863598   309A      4.881488  
     310A      4.890864   311A      4.906768   312A      4.916225  
     313A      4.925058   314A      4.937099   315A      4.959963  
     316A      4.984348   317A      5.009746   318A      5.035054  
     319A      5.044634   320A      5.054309   321A      5.088538  
     322A      5.094872   323A      5.113138   324A      5.150953  
     325A      5.187294   326A      5.190268   327A      5.219849  
     328A      5.229761   329A      5.264755   330A      5.284380  
     331A      5.320184   332A      5.332191   333A      5.337331  
     334A      5.364653   335A      5.396514   336A      5.423578  
     337A      5.469310   338A      5.497816   339A      5.553237  
     340A      5.572801   341A      5.626730   342A      5.633291  
     343A      5.686232   344A      5.691695   345A      5.725247  
     346A      5.752792   347A      5.759714   348A      5.784718  
     349A      5.822805   350A      5.863147   351A      5.892961  
     352A      5.970681   353A      6.029819   354A      6.063751  
     355A      6.099224   356A      6.149506   357A      6.182453  
     358A      6.276456   359A      6.323982   360A      6.350431  
     361A      6.405148   362A      6.439669   363A      6.450677  
     364A      6.464923   365A      6.481501   366A      6.527884  
     367A      6.699624   368A      6.744856   369A      6.854559  
     370A      7.001696   371A      7.150286   372A      7.325726  
     373A      7.396855   374A      7.458894   375A      7.568167  
     376A      7.598842   377A      7.661846   378A      7.690205  
     379A      7.808866   380A      7.863410   381A      7.976123  
     382A      8.001657   383A      8.285514   384A      8.361789  
     385A      8.528904   386A      9.505474   387A      9.672391  
     388A      9.834586   389A      9.891644   390A     10.023704  
     391A     10.155443   392A     10.319051   393A     11.267555  
     394A     11.686579   395A     12.328663   396A     12.774460  
     397A     13.579833   398A     14.663867   399A     15.321824  
     400A     44.107722   401A     45.535346   402A     61.228869  

    Final Occupation by Irrep:
              A 
    DOCC [    12 ]

  @DF-RHF Final Energy:  -117.11682563080596

   => Energetics <=

    Nuclear Repulsion Energy =             70.8384779807697385
    One-Electron Energy =                -296.7228037030739642
    Two-Electron Energy =                 108.7675000914982633
    Total Energy =                       -117.1168256308059625

Computation Completed


Properties will be evaluated at   0.000000,   0.000000,   0.000000 [a0]

Properties computed using the SCF density matrix

  Nuclear Dipole Moment: [e a0]
     X:   -83.7158      Y:     9.5467      Z:    -5.9611

  Electronic Dipole Moment: [e a0]
     X:    83.6633      Y:    -9.7058      Z:     5.9408

  Dipole Moment: [e a0]
     X:    -0.0526      Y:    -0.1591      Z:    -0.0204     Total:     0.1688

  Dipole Moment: [D]
     X:    -0.1336      Y:    -0.4044      Z:    -0.0518     Total:     0.4290


*** tstop() called on r282 at Fri Sep 10 16:26:54 2021
Module time:
	user time   =      14.38 seconds =       0.24 minutes
	system time =       0.35 seconds =       0.01 minutes
	total time  =         14 seconds =       0.23 minutes
Total time:
	user time   =      56.41 seconds =       0.94 minutes
	system time =       1.50 seconds =       0.03 minutes
	total time  =         57 seconds =       0.95 minutes
  Constructing Basis Sets for SAPT...

   => Loading Basis Set <=

    Name: (JUN-CC-PVTZ AUX)
    Role: RIFIT
    Keyword: DF_BASIS_SAPT
    atoms 1-2, 10-12 entry C          line   132 file /home/r08543048/miniconda3/share/psi4/basis/jun-cc-pvtz-ri.gbs 
    atoms 3          entry O          line   244 file /home/r08543048/miniconda3/share/psi4/basis/jun-cc-pvtz-ri.gbs 
    atoms 4-9, 13-18 entry H          line    30 file /home/r08543048/miniconda3/share/psi4/basis/jun-cc-pvtz-ri.gbs 


  //>>>>>>>>>>>>>>>>>>>>>>>>>>>>>>>>>>>//
  //               SAPT0               //
  //<<<<<<<<<<<<<<<<<<<<<<<<<<<<<<<<<<<//


*** tstart() called on r282
*** at Fri Sep 10 16:26:55 2021

        SAPT0  
    Ed Hohenstein
     6 June 2009

      Orbital Information
  --------------------------
    NSO        =       402
    NMO        =       402
    NRI        =       942
    NOCC A     =        13
    NOCC B     =        12
    FOCC A     =         0
    FOCC B     =         0
    NVIR A     =       389
    NVIR B     =       390

    Elst10,r            =    -0.008018841670 [Eh]
    Exch10              =     0.010675985383 [Eh]
    Exch10 (S^2)        =     0.010608491932 [Eh]

    Iter     Energy [mEh]          dE [mEh]         Residual      Time [s]
       1      -0.62910977       0.629109773       3.633860909             0
       2      -0.72790752       0.098797745       1.122176414             1
       3      -0.74105626       0.013148739       0.275964118             1
       4      -0.73877172      -0.002284539       0.128720497             2
       5      -0.73795467      -0.000817047       0.032677202             2
       6      -0.73811839       0.000163715       0.012542369             3
       7      -0.73820163       0.000083248       0.002746968             3
       8      -0.73817920      -0.000022437       0.000727966             4
       9      -0.73818002       0.000000826       0.000208150             4
      10      -0.73818089       0.000000864       0.000059850             5
      11      -0.73818086      -0.000000029       0.000014910             5
      12      -0.73818080      -0.000000058       0.000003370             6
      13      -0.73818081       0.000000009       0.000000769             6

    CHF Iterations converged


    Iter     Energy [mEh]          dE [mEh]         Residual      Time [s]
       1      -3.40732386       3.407323863      10.015099954             1
       2      -4.36638967       0.959065812       3.653757070             1
       3      -4.44772415       0.081334476       0.887520732             2
       4      -4.42589150      -0.021832653       0.293793793             2
       5      -4.42130258      -0.004588913       0.071283256             2
       6      -4.42244100       0.001138415       0.026004570             3
       7      -4.42271331       0.000272312       0.009618989             3
       8      -4.42255471      -0.000158603       0.002438878             4
       9      -4.42255980       0.000005090       0.000562686             4
      10      -4.42256480       0.000005005       0.000174412             5
      11      -4.42256471      -0.000000091       0.000044862             5
      12      -4.42256423      -0.000000488       0.000009686             6
      13      -4.42256430       0.000000070       0.000002167             6
      14      -4.42256431       0.000000010       0.000000528             7

    CHF Iterations converged

    Ind20,r (A<-B)      =    -0.000738180809 [Eh]
    Ind20,r (B<-A)      =    -0.004422564306 [Eh]
    Ind20,r             =    -0.005160745115 [Eh]
    Exch-Ind20,r (A<-B) =     0.000572093452 [Eh]
    Exch-Ind20,r (B<-A) =     0.003208671596 [Eh]
    Exch-Ind20,r        =     0.003780765048 [Eh]
    Disp20              =    -0.008334297595 [Eh]
    Disp20 (SS)         =    -0.004167148798 [Eh]
    Disp20 (OS)         =    -0.004167148798 [Eh]
    Exch-Disp20         =     0.001089921224 [Eh]
    Exch-Disp20 (SS)    =     0.000709254926 [Eh]
    Exch-Disp20 (OS)    =     0.000380666297 [Eh]

    SAPT Results 
  --------------------------------------------------------------------------------------------------------
    Electrostatics                 -8.01884167 [mEh]      -5.03189912 [kcal/mol]     -21.05346590 [kJ/mol]
      Elst10,r                     -8.01884167 [mEh]      -5.03189912 [kcal/mol]     -21.05346590 [kJ/mol]

    Exchange                       10.67598538 [mEh]       6.69928197 [kcal/mol]      28.02979576 [kJ/mol]
      Exch10                       10.67598538 [mEh]       6.69928197 [kcal/mol]      28.02979576 [kJ/mol]
      Exch10(S^2)                  10.60849193 [mEh]       6.65692919 [kcal/mol]      27.85259173 [kJ/mol]

    Induction                      -2.54509340 [mEh]      -1.59707022 [kcal/mol]      -6.68214180 [kJ/mol]
      Ind20,r                      -5.16074511 [mEh]      -3.23841645 [kcal/mol]     -13.54953443 [kJ/mol]
      Exch-Ind20,r                  3.78076505 [mEh]       2.37246589 [kcal/mol]       9.92639727 [kJ/mol]
      delta HF,r (2)               -1.16511333 [mEh]      -0.73111965 [kcal/mol]      -3.05900463 [kJ/mol]

    Dispersion                     -7.24437637 [mEh]      -4.54591480 [kcal/mol]     -19.02010754 [kJ/mol]
      Disp20                       -8.33429760 [mEh]      -5.22985070 [kcal/mol]     -21.88169532 [kJ/mol]
      Exch-Disp20                   1.08992122 [mEh]       0.68393589 [kcal/mol]       2.86158778 [kJ/mol]
      Disp20 (SS)                  -4.16714880 [mEh]      -2.61492535 [kcal/mol]     -10.94084766 [kJ/mol]
      Disp20 (OS)                  -4.16714880 [mEh]      -2.61492535 [kcal/mol]     -10.94084766 [kJ/mol]
      Exch-Disp20 (SS)              0.70925493 [mEh]       0.44506419 [kcal/mol]       1.86214855 [kJ/mol]
      Exch-Disp20 (OS)              0.38066630 [mEh]       0.23887171 [kcal/mol]       0.99943923 [kJ/mol]

  Total HF                          0.11205031 [mEh]       0.07031263 [kcal/mol]       0.29418806 [kJ/mol]
  Total SAPT0                      -7.13232606 [mEh]      -4.47560217 [kcal/mol]     -18.72591949 [kJ/mol]

  Special recipe for scaled SAPT0 (see Manual):
    Electrostatics sSAPT0          -8.01884167 [mEh]      -5.03189912 [kcal/mol]     -21.05346590 [kJ/mol]
    Exchange sSAPT0                10.67598538 [mEh]       6.69928197 [kcal/mol]      28.02979576 [kJ/mol]
    Induction sSAPT0               -2.47247125 [mEh]      -1.55149914 [kcal/mol]      -6.49147238 [kJ/mol]
    Dispersion sSAPT0              -7.22344082 [mEh]      -4.53277755 [kcal/mol]     -18.96514125 [kJ/mol]
  Total sSAPT0                     -7.03876836 [mEh]      -4.41689383 [kcal/mol]     -18.48028377 [kJ/mol]
  --------------------------------------------------------------------------------------------------------

*** tstop() called on r282 at Fri Sep 10 16:27:47 2021
Module time:
	user time   =      43.78 seconds =       0.73 minutes
	system time =       9.00 seconds =       0.15 minutes
	total time  =         52 seconds =       0.87 minutes
Total time:
	user time   =     100.31 seconds =       1.67 minutes
	system time =      10.50 seconds =       0.17 minutes
	total time  =        110 seconds =       1.83 minutes

    Psi4 stopped on: Friday, 10 September 2021 04:27PM
    Psi4 wall time for execution: 0:01:50.98

*** Psi4 exiting successfully. Buy a developer a beer!
