
    -----------------------------------------------------------------------
          Psi4: An Open-Source Ab Initio Electronic Structure Package
                               Psi4 1.3.2 release

                         Git: Rev {HEAD} ecbda83 


    R. M. Parrish, L. A. Burns, D. G. A. Smith, A. C. Simmonett,
    A. E. DePrince III, E. G. Hohenstein, U. Bozkaya, A. Yu. Sokolov,
    R. Di Remigio, R. M. Richard, J. F. Gonthier, A. M. James,
    H. R. McAlexander, A. Kumar, M. Saitow, X. Wang, B. P. Pritchard,
    P. Verma, H. F. Schaefer III, K. Patkowski, R. A. King, E. F. Valeev,
    F. A. Evangelista, J. M. Turney, T. D. Crawford, and C. D. Sherrill,
    J. Chem. Theory Comput. 13(7) pp 3185--3197 (2017).
    (doi: 10.1021/acs.jctc.7b00174)


                         Additional Contributions by
    P. Kraus, H. Kruse, M. H. Lechner, M. C. Schieber, R. A. Shaw,
    A. Alenaizan, R. Galvelis, Z. L. Glick, S. Lehtola, and J. P. Misiewicz

    -----------------------------------------------------------------------


    Psi4 started on: Saturday, 11 September 2021 01:30AM

    Process ID: 57454
    Host:       r282
    PSIDATADIR: /home/r08543048/miniconda3/share/psi4
    Memory:     500.0 MiB
    Threads:    1
    
  ==> Input File <==

--------------------------------------------------------------------------
# Any line starting with the # character is a comment line
#! Sample  computation

memory 22 gb

molecule Dimer {
0 1
 C  2.649210   -0.460171   -0.233606
 C  1.158711   -0.203971   -0.113981
 O  0.685606    0.928942   -0.172310
 N  0.386673   -1.307521    0.037365
 H -0.623093   -1.217853    0.058688
 H  0.800766   -2.220231    0.071209
 C  3.468431    0.701006    0.308656
 H  3.297535    0.828543    1.376631
 H  4.531663    0.529791    0.148327
 H  3.180142    1.624872   -0.186511
 H  2.908251   -1.393673    0.268812
 H  2.858892   -0.603838   -1.296562



    
    
    
 --
0 1
 H  -4.369713   -0.109210    0.111905
 C  -2.691993    1.324154   -0.043192
 C  -3.268452   -0.046956    0.066549
 O  -2.616824   -1.077794    0.108435
 H  -1.604908    1.302082   -0.084524
 H  -3.100115    1.803884   -0.935045
 H  -3.031840    1.914726    0.809957
  
  
  
  
  







units angstrom

no_reorient
symmetry c1
}

set globals{
  basis jun-cc-pvtz
}

energy('sapt0')


--------------------------------------------------------------------------

  Memory set to  20.489 GiB by Python driver.

  //>>>>>>>>>>>>>>>>>>>>>>>>>>>>>>>>>>>//
  //              Dimer HF             //
  //<<<<<<<<<<<<<<<<<<<<<<<<<<<<<<<<<<<//


*** tstart() called on r282
*** at Sat Sep 11 01:30:35 2021

   => Loading Basis Set <=

    Name: JUN-CC-PVTZ
    Role: ORBITAL
    Keyword: BASIS
    atoms 1-2, 7, 14-15    entry C          line   217 file /home/r08543048/miniconda3/share/psi4/basis/jun-cc-pvtz.gbs 
    atoms 3, 16            entry O          line   305 file /home/r08543048/miniconda3/share/psi4/basis/jun-cc-pvtz.gbs 
    atoms 4                entry N          line   261 file /home/r08543048/miniconda3/share/psi4/basis/jun-cc-pvtz.gbs 
    atoms 5-6, 8-13, 17-19 entry H          line    36 file /home/r08543048/miniconda3/share/psi4/basis/jun-cc-pvtz.gbs 


         ---------------------------------------------------------
                                   SCF
               by Justin Turney, Rob Parrish, Andy Simmonett
                          and Daniel G. A. Smith
                              RHF Reference
                        1 Threads,  20980 MiB Core
         ---------------------------------------------------------

  ==> Geometry <==

    Molecular point group: c1
    Full point group: C1

    Geometry (in Angstrom), charge = 0, multiplicity = 1:

       Center              X                  Y                   Z               Mass       
    ------------   -----------------  -----------------  -----------------  -----------------
         C            2.690196520168    -0.439303813563    -0.230703957179    12.000000000000
         C            1.199697520168    -0.183103813563    -0.111078957179    12.000000000000
         O            0.726592520168     0.949809186437    -0.169407957179    15.994914619570
         N            0.427659520168    -1.286653813563     0.040267042821    14.003074004430
         H           -0.582106479832    -1.196985813563     0.061590042821     1.007825032230
         H            0.841752520168    -2.199363813563     0.074111042821     1.007825032230
         C            3.509417520168     0.721873186437     0.311558042821    12.000000000000
         H            3.338521520168     0.849410186437     1.379533042821     1.007825032230
         H            4.572649520168     0.550658186437     0.151229042821     1.007825032230
         H            3.221128520168     1.645739186437    -0.183608957179     1.007825032230
         H            2.949237520168    -1.372805813563     0.271714042821     1.007825032230
         H            2.899878520168    -0.582970813563    -1.293659957179     1.007825032230
         H           -4.328726479832    -0.088342813563     0.114807042821     1.007825032230
         C           -2.651006479832     1.345021186437    -0.040289957179    12.000000000000
         C           -3.227465479832    -0.026088813563     0.069451042821    12.000000000000
         O           -2.575837479832    -1.056926813563     0.111337042821    15.994914619570
         H           -1.563921479832     1.322949186437    -0.081621957179     1.007825032230
         H           -3.059128479832     1.824751186437    -0.932142957179     1.007825032230
         H           -2.990853479832     1.935593186437     0.812859042821     1.007825032230

  Running in c1 symmetry.

  Rotational constants: A =      0.14627  B =      0.02452  C =      0.02143 [cm^-1]
  Rotational constants: A =   4384.92188  B =    735.21547  C =    642.45784 [MHz]
  Nuclear repulsion =  361.809802691023037

  Charge       = 0
  Multiplicity = 1
  Electrons    = 64
  Nalpha       = 32
  Nbeta        = 32

  ==> Algorithm <==

  SCF Algorithm Type is DF.
  DIIS enabled.
  MOM disabled.
  Fractional occupation disabled.
  Guess Type is SAD.
  Energy threshold   = 1.00e-08
  Density threshold  = 1.00e-08
  Integral threshold = 0.00e+00

  ==> Primary Basis <==

  Basis Set: JUN-CC-PVTZ
    Blend: JUN-CC-PVTZ
    Number of shells: 170
    Number of basis function: 466
    Number of Cartesian functions: 525
    Spherical Harmonics?: true
    Max angular momentum: 3

   => Loading Basis Set <=

    Name: (JUN-CC-PVTZ AUX)
    Role: JKFIT
    Keyword: DF_BASIS_SCF
    atoms 1-2, 7, 14-15    entry C          line   152 file /home/r08543048/miniconda3/share/psi4/basis/jun-cc-pvtz-jkfit.gbs 
    atoms 3, 16            entry O          line   272 file /home/r08543048/miniconda3/share/psi4/basis/jun-cc-pvtz-jkfit.gbs 
    atoms 4                entry N          line   212 file /home/r08543048/miniconda3/share/psi4/basis/jun-cc-pvtz-jkfit.gbs 
    atoms 5-6, 8-13, 17-19 entry H          line    70 file /home/r08543048/miniconda3/share/psi4/basis/jun-cc-pvtz-jkfit.gbs 

  ==> Pre-Iterations <==

   -------------------------------------------------------
    Irrep   Nso     Nmo     Nalpha   Nbeta   Ndocc  Nsocc
   -------------------------------------------------------
     A        466     466       0       0       0       0
   -------------------------------------------------------
    Total     466     466      32      32      32       0
   -------------------------------------------------------

  ==> Integral Setup <==

  ==> DiskDFJK: Density-Fitted J/K Matrices <==

    J tasked:                  Yes
    K tasked:                  Yes
    wK tasked:                  No
    OpenMP threads:              1
    Integrals threads:           1
    Memory [MiB]:            15735
    Algorithm:                Core
    Integral Cache:           SAVE
    Schwarz Cutoff:          1E-12
    Fitting Condition:       1E-10

   => Auxiliary Basis Set <=

  Basis Set: (JUN-CC-PVTZ AUX)
    Blend: JUN-CC-PVTZ-JKFIT
    Number of shells: 342
    Number of basis function: 1090
    Number of Cartesian functions: 1313
    Spherical Harmonics?: true
    Max angular momentum: 4

  Minimum eigenvalue in the overlap matrix is 4.2228030152E-05.
  Using Symmetric Orthogonalization.

  SCF Guess: Superposition of Atomic Densities via on-the-fly atomic UHF.

  ==> Iterations <==

                           Total Energy        Delta E     RMS |[F,P]|

   @DF-RHF iter SAD:  -398.53441897494474   -3.98534e+02   0.00000e+00 
   @DF-RHF iter   1:  -399.77664552519411   -1.24223e+00   1.70763e-03 DIIS
   @DF-RHF iter   2:  -400.01272985604010   -2.36084e-01   9.94165e-04 DIIS
   @DF-RHF iter   3:  -400.08755474965375   -7.48249e-02   1.97205e-04 DIIS
   @DF-RHF iter   4:  -400.09247825442571   -4.92350e-03   8.22976e-05 DIIS
   @DF-RHF iter   5:  -400.09345489124598   -9.76637e-04   1.40151e-05 DIIS
   @DF-RHF iter   6:  -400.09351540834223   -6.05171e-05   6.07549e-06 DIIS
   @DF-RHF iter   7:  -400.09352371567422   -8.30733e-06   2.64236e-06 DIIS
   @DF-RHF iter   8:  -400.09352573335809   -2.01768e-06   1.03908e-06 DIIS
   @DF-RHF iter   9:  -400.09352606739748   -3.34039e-07   3.43545e-07 DIIS
   @DF-RHF iter  10:  -400.09352609250863   -2.51111e-08   1.27185e-07 DIIS
   @DF-RHF iter  11:  -400.09352609534983   -2.84120e-09   3.48719e-08 DIIS
   @DF-RHF iter  12:  -400.09352609557050   -2.20666e-10   1.03106e-08 DIIS
   @DF-RHF iter  13:  -400.09352609559977   -2.92744e-11   2.24623e-09 DIIS
  Energy and wave function converged.


  ==> Post-Iterations <==

    Orbital Energies [Eh]
    ---------------------

    Doubly Occupied:                                                      

       1A    -20.565419     2A    -20.506190     3A    -15.565409  
       4A    -11.342667     5A    -11.340448     6A    -11.233827  
       7A    -11.228365     8A    -11.211141     9A     -1.396356  
      10A     -1.364886    11A     -1.196803    12A     -1.045064  
      13A     -1.019274    14A     -0.885621    15A     -0.806703  
      16A     -0.771416    17A     -0.706868    18A     -0.678937  
      19A     -0.667469    20A     -0.628494    21A     -0.619294  
      22A     -0.599541    23A     -0.592267    24A     -0.550251  
      25A     -0.549497    26A     -0.517367    27A     -0.508819  
      28A     -0.506573    29A     -0.487929    30A     -0.436284  
      31A     -0.410906    32A     -0.400056  

    Virtual:                                                              

      33A      0.049503    34A      0.054237    35A      0.058625  
      36A      0.064278    37A      0.072517    38A      0.079198  
      39A      0.083408    40A      0.098932    41A      0.102558  
      42A      0.103403    43A      0.106162    44A      0.114636  
      45A      0.123079    46A      0.125629    47A      0.134407  
      48A      0.139841    49A      0.153769    50A      0.166885  
      51A      0.172016    52A      0.175413    53A      0.196840  
      54A      0.198949    55A      0.205812    56A      0.209430  
      57A      0.216172    58A      0.237894    59A      0.245889  
      60A      0.249666    61A      0.252850    62A      0.262379  
      63A      0.264064    64A      0.270707    65A      0.278696  
      66A      0.292961    67A      0.300726    68A      0.301513  
      69A      0.307096    70A      0.312148    71A      0.315704  
      72A      0.323477    73A      0.327315    74A      0.333341  
      75A      0.337421    76A      0.342411    77A      0.352518  
      78A      0.363616    79A      0.368144    80A      0.369334  
      81A      0.374975    82A      0.387522    83A      0.396971  
      84A      0.405440    85A      0.415817    86A      0.420903  
      87A      0.429442    88A      0.438517    89A      0.441894  
      90A      0.450335    91A      0.466947    92A      0.472467  
      93A      0.485088    94A      0.497876    95A      0.502619  
      96A      0.511660    97A      0.521393    98A      0.522848  
      99A      0.532540   100A      0.545366   101A      0.551276  
     102A      0.560458   103A      0.568467   104A      0.584424  
     105A      0.603964   106A      0.612096   107A      0.617255  
     108A      0.632110   109A      0.643430   110A      0.645448  
     111A      0.646911   112A      0.652117   113A      0.666152  
     114A      0.682539   115A      0.700791   116A      0.703671  
     117A      0.708010   118A      0.727643   119A      0.732808  
     120A      0.748841   121A      0.756788   122A      0.764482  
     123A      0.772775   124A      0.777498   125A      0.787378  
     126A      0.797614   127A      0.810103   128A      0.815434  
     129A      0.818492   130A      0.823795   131A      0.834084  
     132A      0.849995   133A      0.859451   134A      0.864738  
     135A      0.865288   136A      0.886507   137A      0.892509  
     138A      0.907455   139A      0.916983   140A      0.923386  
     141A      0.931748   142A      0.942064   143A      0.956408  
     144A      0.962030   145A      0.977209   146A      0.981854  
     147A      0.996657   148A      1.008375   149A      1.030940  
     150A      1.037464   151A      1.061120   152A      1.066192  
     153A      1.078737   154A      1.089848   155A      1.102204  
     156A      1.103517   157A      1.116231   158A      1.125989  
     159A      1.138065   160A      1.167993   161A      1.186140  
     162A      1.200714   163A      1.204264   164A      1.220088  
     165A      1.245939   166A      1.254106   167A      1.264760  
     168A      1.280008   169A      1.302189   170A      1.312735  
     171A      1.321153   172A      1.325517   173A      1.341767  
     174A      1.357739   175A      1.361702   176A      1.367768  
     177A      1.378785   178A      1.381734   179A      1.393133  
     180A      1.404422   181A      1.417261   182A      1.439090  
     183A      1.443256   184A      1.451938   185A      1.455767  
     186A      1.467110   187A      1.470536   188A      1.485546  
     189A      1.501482   190A      1.515104   191A      1.526790  
     192A      1.534182   193A      1.544504   194A      1.567828  
     195A      1.576949   196A      1.582307   197A      1.597498  
     198A      1.605979   199A      1.623887   200A      1.632952  
     201A      1.651278   202A      1.669953   203A      1.679507  
     204A      1.694805   205A      1.730292   206A      1.739998  
     207A      1.751143   208A      1.763406   209A      1.777462  
     210A      1.808960   211A      1.810506   212A      1.821723  
     213A      1.848950   214A      1.878770   215A      1.899836  
     216A      1.915498   217A      1.924953   218A      1.951526  
     219A      1.964021   220A      1.992884   221A      2.057527  
     222A      2.069140   223A      2.119596   224A      2.131553  
     225A      2.235788   226A      2.254053   227A      2.295343  
     228A      2.299743   229A      2.339374   230A      2.361410  
     231A      2.403838   232A      2.436750   233A      2.446557  
     234A      2.495856   235A      2.582861   236A      2.608314  
     237A      2.635904   238A      2.696246   239A      2.707616  
     240A      2.729735   241A      2.741132   242A      2.755183  
     243A      2.772128   244A      2.811578   245A      2.842138  
     246A      2.862994   247A      2.887748   248A      2.907419  
     249A      2.924813   250A      2.938720   251A      2.949283  
     252A      2.977833   253A      2.981489   254A      3.016635  
     255A      3.039218   256A      3.047095   257A      3.067874  
     258A      3.114600   259A      3.116128   260A      3.128347  
     261A      3.135684   262A      3.146203   263A      3.166834  
     264A      3.180993   265A      3.206405   266A      3.213463  
     267A      3.221384   268A      3.235511   269A      3.258134  
     270A      3.278839   271A      3.315692   272A      3.323347  
     273A      3.346660   274A      3.359250   275A      3.361823  
     276A      3.377486   277A      3.390374   278A      3.397200  
     279A      3.400240   280A      3.408485   281A      3.448481  
     282A      3.458092   283A      3.473992   284A      3.480216  
     285A      3.487026   286A      3.488917   287A      3.496611  
     288A      3.508888   289A      3.519853   290A      3.526806  
     291A      3.537264   292A      3.542883   293A      3.552175  
     294A      3.564934   295A      3.580864   296A      3.597878  
     297A      3.617951   298A      3.626109   299A      3.638072  
     300A      3.640144   301A      3.662061   302A      3.680913  
     303A      3.685810   304A      3.717227   305A      3.725897  
     306A      3.743633   307A      3.772450   308A      3.775543  
     309A      3.788245   310A      3.792853   311A      3.805961  
     312A      3.832194   313A      3.848280   314A      3.850453  
     315A      3.864282   316A      3.896580   317A      3.913626  
     318A      3.923833   319A      3.930562   320A      3.953759  
     321A      3.986230   322A      3.999572   323A      4.006000  
     324A      4.022773   325A      4.029661   326A      4.053282  
     327A      4.098880   328A      4.127280   329A      4.154869  
     330A      4.172470   331A      4.179962   332A      4.191671  
     333A      4.201566   334A      4.219528   335A      4.248622  
     336A      4.258211   337A      4.261274   338A      4.274071  
     339A      4.281203   340A      4.302823   341A      4.319588  
     342A      4.322908   343A      4.344916   344A      4.353073  
     345A      4.375915   346A      4.384468   347A      4.394142  
     348A      4.404754   349A      4.408074   350A      4.434114  
     351A      4.446605   352A      4.462960   353A      4.474461  
     354A      4.484823   355A      4.494310   356A      4.501730  
     357A      4.504498   358A      4.515590   359A      4.546872  
     360A      4.576459   361A      4.583718   362A      4.617455  
     363A      4.626284   364A      4.659369   365A      4.674976  
     366A      4.696828   367A      4.709548   368A      4.719643  
     369A      4.738564   370A      4.744796   371A      4.759384  
     372A      4.766447   373A      4.793789   374A      4.816715  
     375A      4.828230   376A      4.890977   377A      4.915870  
     378A      4.950048   379A      4.976996   380A      5.000661  
     381A      5.011613   382A      5.019014   383A      5.122680  
     384A      5.150902   385A      5.166662   386A      5.177531  
     387A      5.199749   388A      5.226872   389A      5.242825  
     390A      5.263396   391A      5.272638   392A      5.282959  
     393A      5.305643   394A      5.307911   395A      5.342180  
     396A      5.357438   397A      5.361584   398A      5.400629  
     399A      5.455850   400A      5.460674   401A      5.473320  
     402A      5.483036   403A      5.532998   404A      5.557469  
     405A      5.563634   406A      5.618991   407A      5.641006  
     408A      5.667310   409A      5.672464   410A      5.676637  
     411A      5.701523   412A      5.725642   413A      5.741368  
     414A      5.748865   415A      5.756597   416A      5.779791  
     417A      5.800705   418A      5.854088   419A      5.873782  
     420A      5.877081   421A      5.905804   422A      5.954418  
     423A      5.984944   424A      6.011337   425A      6.039121  
     426A      6.079003   427A      6.088585   428A      6.097779  
     429A      6.110675   430A      6.232748   431A      6.243825  
     432A      6.324959   433A      6.353489   434A      6.429254  
     435A      6.483285   436A      6.493598   437A      6.508243  
     438A      6.530940   439A      6.601200   440A      6.741696  
     441A      6.770212   442A      6.803447   443A      6.853194  
     444A      6.918393   445A      7.190216   446A      7.224505  
     447A      7.265221   448A      7.292427   449A      7.300074  
     450A      7.405477   451A      7.415934   452A      7.492183  
     453A      7.497534   454A      7.508699   455A      7.670028  
     456A      7.760049   457A      7.785532   458A      7.838430  
     459A     12.207284   460A     12.336064   461A     13.925748  
     462A     14.091703   463A     14.113440   464A     14.569443  
     465A     14.745917   466A     15.913436  

    Final Occupation by Irrep:
              A 
    DOCC [    32 ]

  @DF-RHF Final Energy:  -400.09352609559977

   => Energetics <=

    Nuclear Repulsion Energy =            361.8098026910230374
    One-Electron Energy =               -1263.1263748354474501
    Two-Electron Energy =                 501.2230460488246422
    Total Energy =                       -400.0935260955997705

Computation Completed


Properties will be evaluated at   0.000000,   0.000000,   0.000000 [a0]

Properties computed using the SCF density matrix

  Nuclear Dipole Moment: [e a0]
     X:     4.9570      Y:     2.5237      Z:     0.3510

  Electronic Dipole Moment: [e a0]
     X:    -5.2170      Y:    -2.8665      Z:    -0.3535

  Dipole Moment: [e a0]
     X:    -0.2600      Y:    -0.3428      Z:    -0.0026     Total:     0.4303

  Dipole Moment: [D]
     X:    -0.6609      Y:    -0.8713      Z:    -0.0065     Total:     1.0937


*** tstop() called on r282 at Sat Sep 11 01:31:28 2021
Module time:
	user time   =      51.87 seconds =       0.86 minutes
	system time =       1.24 seconds =       0.02 minutes
	total time  =         53 seconds =       0.88 minutes
Total time:
	user time   =      51.87 seconds =       0.86 minutes
	system time =       1.24 seconds =       0.02 minutes
	total time  =         53 seconds =       0.88 minutes

  //>>>>>>>>>>>>>>>>>>>>>>>>>>>>>>>>>>>//
  //            Monomer A HF           //
  //<<<<<<<<<<<<<<<<<<<<<<<<<<<<<<<<<<<//


*** tstart() called on r282
*** at Sat Sep 11 01:31:28 2021

   => Loading Basis Set <=

    Name: JUN-CC-PVTZ
    Role: ORBITAL
    Keyword: BASIS
    atoms 1-2, 7, 14-15    entry C          line   217 file /home/r08543048/miniconda3/share/psi4/basis/jun-cc-pvtz.gbs 
    atoms 3, 16            entry O          line   305 file /home/r08543048/miniconda3/share/psi4/basis/jun-cc-pvtz.gbs 
    atoms 4                entry N          line   261 file /home/r08543048/miniconda3/share/psi4/basis/jun-cc-pvtz.gbs 
    atoms 5-6, 8-13, 17-19 entry H          line    36 file /home/r08543048/miniconda3/share/psi4/basis/jun-cc-pvtz.gbs 


         ---------------------------------------------------------
                                   SCF
               by Justin Turney, Rob Parrish, Andy Simmonett
                          and Daniel G. A. Smith
                              RHF Reference
                        1 Threads,  20980 MiB Core
         ---------------------------------------------------------

  ==> Geometry <==

    Molecular point group: c1
    Full point group: C1

    Geometry (in Angstrom), charge = 0, multiplicity = 1:

       Center              X                  Y                   Z               Mass       
    ------------   -----------------  -----------------  -----------------  -----------------
         C            2.690196520168    -0.439303813563    -0.230703957179    12.000000000000
         C            1.199697520168    -0.183103813563    -0.111078957179    12.000000000000
         O            0.726592520168     0.949809186437    -0.169407957179    15.994914619570
         N            0.427659520168    -1.286653813563     0.040267042821    14.003074004430
         H           -0.582106479832    -1.196985813563     0.061590042821     1.007825032230
         H            0.841752520168    -2.199363813563     0.074111042821     1.007825032230
         C            3.509417520168     0.721873186437     0.311558042821    12.000000000000
         H            3.338521520168     0.849410186437     1.379533042821     1.007825032230
         H            4.572649520168     0.550658186437     0.151229042821     1.007825032230
         H            3.221128520168     1.645739186437    -0.183608957179     1.007825032230
         H            2.949237520168    -1.372805813563     0.271714042821     1.007825032230
         H            2.899878520168    -0.582970813563    -1.293659957179     1.007825032230
      Gh(H)          -4.328726479832    -0.088342813563     0.114807042821     1.007825032230
      Gh(C)          -2.651006479832     1.345021186437    -0.040289957179    12.000000000000
      Gh(C)          -3.227465479832    -0.026088813563     0.069451042821    12.000000000000
      Gh(O)          -2.575837479832    -1.056926813563     0.111337042821    15.994914619570
      Gh(H)          -1.563921479832     1.322949186437    -0.081621957179     1.007825032230
      Gh(H)          -3.059128479832     1.824751186437    -0.932142957179     1.007825032230
      Gh(H)          -2.990853479832     1.935593186437     0.812859042821     1.007825032230

  Running in c1 symmetry.

  Rotational constants: A =      0.14627  B =      0.02452  C =      0.02143 [cm^-1]
  Rotational constants: A =   4384.92188  B =    735.21547  C =    642.45784 [MHz]
  Nuclear repulsion =  179.126752772091891

  Charge       = 0
  Multiplicity = 1
  Electrons    = 40
  Nalpha       = 20
  Nbeta        = 20

  ==> Algorithm <==

  SCF Algorithm Type is DF.
  DIIS enabled.
  MOM disabled.
  Fractional occupation disabled.
  Guess Type is SAD.
  Energy threshold   = 1.00e-08
  Density threshold  = 1.00e-08
  Integral threshold = 0.00e+00

  ==> Primary Basis <==

  Basis Set: JUN-CC-PVTZ
    Blend: JUN-CC-PVTZ
    Number of shells: 170
    Number of basis function: 466
    Number of Cartesian functions: 525
    Spherical Harmonics?: true
    Max angular momentum: 3

   => Loading Basis Set <=

    Name: (JUN-CC-PVTZ AUX)
    Role: JKFIT
    Keyword: DF_BASIS_SCF
    atoms 1-2, 7, 14-15    entry C          line   152 file /home/r08543048/miniconda3/share/psi4/basis/jun-cc-pvtz-jkfit.gbs 
    atoms 3, 16            entry O          line   272 file /home/r08543048/miniconda3/share/psi4/basis/jun-cc-pvtz-jkfit.gbs 
    atoms 4                entry N          line   212 file /home/r08543048/miniconda3/share/psi4/basis/jun-cc-pvtz-jkfit.gbs 
    atoms 5-6, 8-13, 17-19 entry H          line    70 file /home/r08543048/miniconda3/share/psi4/basis/jun-cc-pvtz-jkfit.gbs 

  ==> Pre-Iterations <==

   -------------------------------------------------------
    Irrep   Nso     Nmo     Nalpha   Nbeta   Ndocc  Nsocc
   -------------------------------------------------------
     A        466     466       0       0       0       0
   -------------------------------------------------------
    Total     466     466      20      20      20       0
   -------------------------------------------------------

  ==> Integral Setup <==

  ==> DiskDFJK: Density-Fitted J/K Matrices <==

    J tasked:                  Yes
    K tasked:                  Yes
    wK tasked:                  No
    OpenMP threads:              1
    Integrals threads:           1
    Memory [MiB]:            15735
    Algorithm:                Core
    Integral Cache:           LOAD
    Schwarz Cutoff:          1E-12
    Fitting Condition:       1E-10

   => Auxiliary Basis Set <=

  Basis Set: (JUN-CC-PVTZ AUX)
    Blend: JUN-CC-PVTZ-JKFIT
    Number of shells: 342
    Number of basis function: 1090
    Number of Cartesian functions: 1313
    Spherical Harmonics?: true
    Max angular momentum: 4

  Minimum eigenvalue in the overlap matrix is 4.2228030152E-05.
  Using Symmetric Orthogonalization.

  SCF Guess: Superposition of Atomic Densities via on-the-fly atomic UHF.

  ==> Iterations <==

                           Total Energy        Delta E     RMS |[F,P]|

   @DF-RHF iter SAD:  -246.29995650589208   -2.46300e+02   0.00000e+00 
   @DF-RHF iter   1:  -246.89360692409906   -5.93650e-01   1.40490e-03 DIIS
   @DF-RHF iter   2:  -247.05500498589760   -1.61398e-01   8.11479e-04 DIIS
   @DF-RHF iter   3:  -247.10570516851365   -5.07002e-02   1.58386e-04 DIIS
   @DF-RHF iter   4:  -247.10871708821463   -3.01192e-03   6.90292e-05 DIIS
   @DF-RHF iter   5:  -247.10935553389464   -6.38446e-04   1.09406e-05 DIIS
   @DF-RHF iter   6:  -247.10939223634693   -3.67025e-05   4.39028e-06 DIIS
   @DF-RHF iter   7:  -247.10939696246243   -4.72612e-06   1.91090e-06 DIIS
   @DF-RHF iter   8:  -247.10939801716404   -1.05470e-06   7.51521e-07 DIIS
   @DF-RHF iter   9:  -247.10939820721842   -1.90054e-07   1.70049e-07 DIIS
   @DF-RHF iter  10:  -247.10939821756077   -1.03423e-08   4.09688e-08 DIIS
   @DF-RHF iter  11:  -247.10939821798252   -4.21750e-10   1.17913e-08 DIIS
   @DF-RHF iter  12:  -247.10939821802111   -3.85967e-11   3.28594e-09 DIIS
  Energy and wave function converged.


  ==> Post-Iterations <==

    Orbital Energies [Eh]
    ---------------------

    Doubly Occupied:                                                      

       1A    -20.514085     2A    -15.588261     3A    -11.349691  
       4A    -11.241582     5A    -11.215901     6A     -1.371848  
       7A     -1.213998     8A     -1.052056     9A     -0.893411  
      10A     -0.786038    11A     -0.722582    12A     -0.672640  
      13A     -0.632624    14A     -0.596939    15A     -0.558753  
      16A     -0.524376    17A     -0.514840    18A     -0.494401  
      19A     -0.420384    20A     -0.413828  

    Virtual:                                                              

      21A      0.035153    22A      0.045294    23A      0.056438  
      24A      0.062773    25A      0.068432    26A      0.074085  
      27A      0.081526    28A      0.096549    29A      0.098512  
      30A      0.105519    31A      0.108881    32A      0.113403  
      33A      0.116771    34A      0.122287    35A      0.135545  
      36A      0.145554    37A      0.151739    38A      0.157133  
      39A      0.167126    40A      0.168490    41A      0.181381  
      42A      0.191454    43A      0.195975    44A      0.205508  
      45A      0.208770    46A      0.217152    47A      0.226694  
      48A      0.236974    49A      0.247866    50A      0.262772  
      51A      0.269627    52A      0.275002    53A      0.283136  
      54A      0.287630    55A      0.298896    56A      0.302360  
      57A      0.307938    58A      0.311293    59A      0.321003  
      60A      0.321831    61A      0.336152    62A      0.339938  
      63A      0.342016    64A      0.349568    65A      0.357455  
      66A      0.358234    67A      0.365165    68A      0.371719  
      69A      0.380472    70A      0.387969    71A      0.395190  
      72A      0.401741    73A      0.419061    74A      0.424312  
      75A      0.434326    76A      0.446430    77A      0.450356  
      78A      0.458624    79A      0.462969    80A      0.474430  
      81A      0.489754    82A      0.496881    83A      0.502913  
      84A      0.509571    85A      0.519960    86A      0.524009  
      87A      0.537655    88A      0.547529    89A      0.550339  
      90A      0.555953    91A      0.564921    92A      0.573013  
      93A      0.578598    94A      0.605366    95A      0.607793  
      96A      0.609884    97A      0.624342    98A      0.631094  
      99A      0.636828   100A      0.652632   101A      0.655378  
     102A      0.664655   103A      0.693819   104A      0.702886  
     105A      0.709135   106A      0.721538   107A      0.734305  
     108A      0.743078   109A      0.756237   110A      0.768319  
     111A      0.773634   112A      0.780123   113A      0.786354  
     114A      0.788271   115A      0.795523   116A      0.816834  
     117A      0.823563   118A      0.849657   119A      0.852764  
     120A      0.873955   121A      0.874502   122A      0.891073  
     123A      0.911502   124A      0.923158   125A      0.927967  
     126A      0.937067   127A      0.949294   128A      0.967868  
     129A      0.981435   130A      0.991340   131A      1.003420  
     132A      1.017767   133A      1.030608   134A      1.045021  
     135A      1.063004   136A      1.071071   137A      1.078722  
     138A      1.088192   139A      1.096600   140A      1.107955  
     141A      1.115866   142A      1.124965   143A      1.133368  
     144A      1.143138   145A      1.160753   146A      1.180305  
     147A      1.185081   148A      1.203948   149A      1.211628  
     150A      1.217201   151A      1.237899   152A      1.245811  
     153A      1.262129   154A      1.275325   155A      1.282753  
     156A      1.303546   157A      1.309005   158A      1.318597  
     159A      1.331266   160A      1.339112   161A      1.351986  
     162A      1.359831   163A      1.364423   164A      1.384201  
     165A      1.400196   166A      1.403253   167A      1.413212  
     168A      1.418501   169A      1.435199   170A      1.446254  
     171A      1.450776   172A      1.456749   173A      1.465478  
     174A      1.484607   175A      1.490646   176A      1.499503  
     177A      1.528041   178A      1.529314   179A      1.534761  
     180A      1.552097   181A      1.572004   182A      1.583363  
     183A      1.586231   184A      1.592670   185A      1.619811  
     186A      1.629906   187A      1.642635   188A      1.658540  
     189A      1.669915   190A      1.687375   191A      1.707628  
     192A      1.721129   193A      1.727248   194A      1.750990  
     195A      1.763968   196A      1.793516   197A      1.804883  
     198A      1.840884   199A      1.851768   200A      1.874877  
     201A      1.881496   202A      1.895791   203A      1.910893  
     204A      1.913661   205A      1.949138   206A      1.975323  
     207A      1.990212   208A      2.044694   209A      2.055381  
     210A      2.076329   211A      2.102013   212A      2.124140  
     213A      2.194844   214A      2.227856   215A      2.264984  
     216A      2.332157   217A      2.348517   218A      2.358452  
     219A      2.403937   220A      2.441924   221A      2.486514  
     222A      2.497058   223A      2.521840   224A      2.548861  
     225A      2.601344   226A      2.629006   227A      2.683432  
     228A      2.735861   229A      2.746468   230A      2.782038  
     231A      2.792430   232A      2.832663   233A      2.850642  
     234A      2.854710   235A      2.860216   236A      2.895439  
     237A      2.907324   238A      2.928509   239A      2.967654  
     240A      2.973485   241A      2.980344   242A      3.005724  
     243A      3.042344   244A      3.121105   245A      3.130775  
     246A      3.136456   247A      3.169468   248A      3.170880  
     249A      3.200074   250A      3.217106   251A      3.225453  
     252A      3.260251   253A      3.281219   254A      3.334440  
     255A      3.347701   256A      3.358049   257A      3.388643  
     258A      3.395413   259A      3.434731   260A      3.440957  
     261A      3.450041   262A      3.461720   263A      3.478860  
     264A      3.486860   265A      3.491232   266A      3.509081  
     267A      3.516602   268A      3.524952   269A      3.532662  
     270A      3.551619   271A      3.564991   272A      3.579267  
     273A      3.581667   274A      3.598949   275A      3.603157  
     276A      3.638148   277A      3.652175   278A      3.663004  
     279A      3.674511   280A      3.694286   281A      3.720549  
     282A      3.739178   283A      3.773292   284A      3.777138  
     285A      3.796019   286A      3.808710   287A      3.821729  
     288A      3.843172   289A      3.846533   290A      3.856774  
     291A      3.880395   292A      3.888488   293A      3.911846  
     294A      3.914486   295A      3.925191   296A      3.929342  
     297A      3.983015   298A      3.995363   299A      4.012398  
     300A      4.015161   301A      4.022901   302A      4.031240  
     303A      4.042515   304A      4.086649   305A      4.112915  
     306A      4.163917   307A      4.180070   308A      4.193330  
     309A      4.206421   310A      4.219475   311A      4.245564  
     312A      4.254592   313A      4.265763   314A      4.274648  
     315A      4.280534   316A      4.311765   317A      4.327456  
     318A      4.334715   319A      4.348322   320A      4.362728  
     321A      4.376540   322A      4.395043   323A      4.417175  
     324A      4.426479   325A      4.436082   326A      4.444286  
     327A      4.458419   328A      4.474080   329A      4.479515  
     330A      4.490629   331A      4.495542   332A      4.517156  
     333A      4.524810   334A      4.536928   335A      4.543349  
     336A      4.560587   337A      4.567234   338A      4.571600  
     339A      4.617557   340A      4.625588   341A      4.666369  
     342A      4.670684   343A      4.697139   344A      4.719511  
     345A      4.738983   346A      4.740641   347A      4.744801  
     348A      4.757646   349A      4.780122   350A      4.785484  
     351A      4.790008   352A      4.803600   353A      4.807953  
     354A      4.812588   355A      4.842127   356A      4.860137  
     357A      4.888471   358A      4.911103   359A      4.913226  
     360A      4.934766   361A      4.948037   362A      4.966620  
     363A      4.993325   364A      5.002334   365A      5.009879  
     366A      5.069300   367A      5.081672   368A      5.106773  
     369A      5.155624   370A      5.163809   371A      5.168909  
     372A      5.212271   373A      5.229473   374A      5.263113  
     375A      5.274917   376A      5.280411   377A      5.298502  
     378A      5.317315   379A      5.342973   380A      5.349678  
     381A      5.383512   382A      5.419926   383A      5.454744  
     384A      5.474571   385A      5.524478   386A      5.560290  
     387A      5.608974   388A      5.632842   389A      5.650748  
     390A      5.693336   391A      5.724229   392A      5.736787  
     393A      5.749450   394A      5.752307   395A      5.771922  
     396A      5.795038   397A      5.802458   398A      5.850762  
     399A      5.867504   400A      5.901921   401A      5.959826  
     402A      5.988318   403A      6.028918   404A      6.032751  
     405A      6.061216   406A      6.094557   407A      6.115982  
     408A      6.118608   409A      6.197746   410A      6.221145  
     411A      6.235106   412A      6.289111   413A      6.293625  
     414A      6.313917   415A      6.396572   416A      6.448101  
     417A      6.481149   418A      6.503394   419A      6.510438  
     420A      6.532528   421A      6.542516   422A      6.592854  
     423A      6.713516   424A      6.752176   425A      6.785739  
     426A      6.797037   427A      6.847382   428A      6.946945  
     429A      6.990855   430A      7.228074   431A      7.287104  
     432A      7.363161   433A      7.405278   434A      7.479192  
     435A      7.483370   436A      7.488823   437A      7.501455  
     438A      7.538856   439A      7.637573   440A      7.776383  
     441A      7.784932   442A      7.815492   443A      7.881609  
     444A      7.882171   445A      8.167969   446A      8.336013  
     447A      8.484411   448A      9.350000   449A      9.410457  
     450A      9.766994   451A      9.845442   452A      9.862737  
     453A      9.886906   454A     10.118216   455A     10.957274  
     456A     11.552406   457A     11.908166   458A     12.238742  
     459A     13.690006   460A     13.939760   461A     14.088545  
     462A     14.567361   463A     15.891844   464A     43.275133  
     465A     46.164731   466A     60.270899  

    Final Occupation by Irrep:
              A 
    DOCC [    20 ]

  @DF-RHF Final Energy:  -247.10939821802111

   => Energetics <=

    Nuclear Repulsion Energy =            179.1267527720918906
    One-Electron Energy =                -690.9158305236719571
    Two-Electron Energy =                 264.6796795335589536
    Total Energy =                       -247.1093982180211128

Computation Completed


Properties will be evaluated at   0.000000,   0.000000,   0.000000 [a0]

Properties computed using the SCF density matrix

  Nuclear Dipole Moment: [e a0]
     X:   133.1185      Y:    -5.8915      Z:    -1.5001

  Electronic Dipole Moment: [e a0]
     X:  -132.7067      Y:     4.3138      Z:     1.5542

  Dipole Moment: [e a0]
     X:     0.4119      Y:    -1.5777      Z:     0.0541     Total:     1.6315

  Dipole Moment: [D]
     X:     1.0468      Y:    -4.0101      Z:     0.1375     Total:     4.1468


*** tstop() called on r282 at Sat Sep 11 01:31:58 2021
Module time:
	user time   =      29.25 seconds =       0.49 minutes
	system time =       0.58 seconds =       0.01 minutes
	total time  =         30 seconds =       0.50 minutes
Total time:
	user time   =      81.12 seconds =       1.35 minutes
	system time =       1.82 seconds =       0.03 minutes
	total time  =         83 seconds =       1.38 minutes

  //>>>>>>>>>>>>>>>>>>>>>>>>>>>>>>>>>>>//
  //            Monomer B HF           //
  //<<<<<<<<<<<<<<<<<<<<<<<<<<<<<<<<<<<//


*** tstart() called on r282
*** at Sat Sep 11 01:31:58 2021

   => Loading Basis Set <=

    Name: JUN-CC-PVTZ
    Role: ORBITAL
    Keyword: BASIS
    atoms 1-2, 7, 14-15    entry C          line   217 file /home/r08543048/miniconda3/share/psi4/basis/jun-cc-pvtz.gbs 
    atoms 3, 16            entry O          line   305 file /home/r08543048/miniconda3/share/psi4/basis/jun-cc-pvtz.gbs 
    atoms 4                entry N          line   261 file /home/r08543048/miniconda3/share/psi4/basis/jun-cc-pvtz.gbs 
    atoms 5-6, 8-13, 17-19 entry H          line    36 file /home/r08543048/miniconda3/share/psi4/basis/jun-cc-pvtz.gbs 


         ---------------------------------------------------------
                                   SCF
               by Justin Turney, Rob Parrish, Andy Simmonett
                          and Daniel G. A. Smith
                              RHF Reference
                        1 Threads,  20980 MiB Core
         ---------------------------------------------------------

  ==> Geometry <==

    Molecular point group: c1
    Full point group: C1

    Geometry (in Angstrom), charge = 0, multiplicity = 1:

       Center              X                  Y                   Z               Mass       
    ------------   -----------------  -----------------  -----------------  -----------------
      Gh(C)           2.690196520168    -0.439303813563    -0.230703957179    12.000000000000
      Gh(C)           1.199697520168    -0.183103813563    -0.111078957179    12.000000000000
      Gh(O)           0.726592520168     0.949809186437    -0.169407957179    15.994914619570
      Gh(N)           0.427659520168    -1.286653813563     0.040267042821    14.003074004430
      Gh(H)          -0.582106479832    -1.196985813563     0.061590042821     1.007825032230
      Gh(H)           0.841752520168    -2.199363813563     0.074111042821     1.007825032230
      Gh(C)           3.509417520168     0.721873186437     0.311558042821    12.000000000000
      Gh(H)           3.338521520168     0.849410186437     1.379533042821     1.007825032230
      Gh(H)           4.572649520168     0.550658186437     0.151229042821     1.007825032230
      Gh(H)           3.221128520168     1.645739186437    -0.183608957179     1.007825032230
      Gh(H)           2.949237520168    -1.372805813563     0.271714042821     1.007825032230
      Gh(H)           2.899878520168    -0.582970813563    -1.293659957179     1.007825032230
         H           -4.328726479832    -0.088342813563     0.114807042821     1.007825032230
         C           -2.651006479832     1.345021186437    -0.040289957179    12.000000000000
         C           -3.227465479832    -0.026088813563     0.069451042821    12.000000000000
         O           -2.575837479832    -1.056926813563     0.111337042821    15.994914619570
         H           -1.563921479832     1.322949186437    -0.081621957179     1.007825032230
         H           -3.059128479832     1.824751186437    -0.932142957179     1.007825032230
         H           -2.990853479832     1.935593186437     0.812859042821     1.007825032230

  Running in c1 symmetry.

  Rotational constants: A =      0.14627  B =      0.02452  C =      0.02143 [cm^-1]
  Rotational constants: A =   4384.92188  B =    735.21547  C =    642.45784 [MHz]
  Nuclear repulsion =   69.628353171966836

  Charge       = 0
  Multiplicity = 1
  Electrons    = 24
  Nalpha       = 12
  Nbeta        = 12

  ==> Algorithm <==

  SCF Algorithm Type is DF.
  DIIS enabled.
  MOM disabled.
  Fractional occupation disabled.
  Guess Type is SAD.
  Energy threshold   = 1.00e-08
  Density threshold  = 1.00e-08
  Integral threshold = 0.00e+00

  ==> Primary Basis <==

  Basis Set: JUN-CC-PVTZ
    Blend: JUN-CC-PVTZ
    Number of shells: 170
    Number of basis function: 466
    Number of Cartesian functions: 525
    Spherical Harmonics?: true
    Max angular momentum: 3

   => Loading Basis Set <=

    Name: (JUN-CC-PVTZ AUX)
    Role: JKFIT
    Keyword: DF_BASIS_SCF
    atoms 1-2, 7, 14-15    entry C          line   152 file /home/r08543048/miniconda3/share/psi4/basis/jun-cc-pvtz-jkfit.gbs 
    atoms 3, 16            entry O          line   272 file /home/r08543048/miniconda3/share/psi4/basis/jun-cc-pvtz-jkfit.gbs 
    atoms 4                entry N          line   212 file /home/r08543048/miniconda3/share/psi4/basis/jun-cc-pvtz-jkfit.gbs 
    atoms 5-6, 8-13, 17-19 entry H          line    70 file /home/r08543048/miniconda3/share/psi4/basis/jun-cc-pvtz-jkfit.gbs 

  ==> Pre-Iterations <==

   -------------------------------------------------------
    Irrep   Nso     Nmo     Nalpha   Nbeta   Ndocc  Nsocc
   -------------------------------------------------------
     A        466     466       0       0       0       0
   -------------------------------------------------------
    Total     466     466      12      12      12       0
   -------------------------------------------------------

  ==> Integral Setup <==

  ==> DiskDFJK: Density-Fitted J/K Matrices <==

    J tasked:                  Yes
    K tasked:                  Yes
    wK tasked:                  No
    OpenMP threads:              1
    Integrals threads:           1
    Memory [MiB]:            15735
    Algorithm:                Core
    Integral Cache:           LOAD
    Schwarz Cutoff:          1E-12
    Fitting Condition:       1E-10

   => Auxiliary Basis Set <=

  Basis Set: (JUN-CC-PVTZ AUX)
    Blend: JUN-CC-PVTZ-JKFIT
    Number of shells: 342
    Number of basis function: 1090
    Number of Cartesian functions: 1313
    Spherical Harmonics?: true
    Max angular momentum: 4

  Minimum eigenvalue in the overlap matrix is 4.2228030152E-05.
  Using Symmetric Orthogonalization.

  SCF Guess: Superposition of Atomic Densities via on-the-fly atomic UHF.

  ==> Iterations <==

                           Total Energy        Delta E     RMS |[F,P]|

   @DF-RHF iter SAD:  -152.11851308757164   -1.52119e+02   0.00000e+00 
   @DF-RHF iter   1:  -152.85473727465410   -7.36224e-01   1.05032e-03 DIIS
   @DF-RHF iter   2:  -152.93497917595758   -8.02419e-02   7.21656e-04 DIIS
   @DF-RHF iter   3:  -152.97270177286708   -3.77226e-02   1.21171e-04 DIIS
   @DF-RHF iter   4:  -152.97483832456302   -2.13655e-03   4.67491e-05 DIIS
   @DF-RHF iter   5:  -152.97523689248288   -3.98568e-04   9.34032e-06 DIIS
   @DF-RHF iter   6:  -152.97526637450943   -2.94820e-05   3.75869e-06 DIIS
   @DF-RHF iter   7:  -152.97527041679325   -4.04228e-06   1.45412e-06 DIIS
   @DF-RHF iter   8:  -152.97527106496730   -6.48174e-07   3.25655e-07 DIIS
   @DF-RHF iter   9:  -152.97527109916788   -3.42006e-08   8.99807e-08 DIIS
   @DF-RHF iter  10:  -152.97527110131657   -2.14868e-09   1.89763e-08 DIIS
   @DF-RHF iter  11:  -152.97527110140587   -8.93010e-11   3.49381e-09 DIIS
  Energy and wave function converged.


  ==> Post-Iterations <==

    Orbital Energies [Eh]
    ---------------------

    Doubly Occupied:                                                      

       1A    -20.559514     2A    -11.337556     3A    -11.243957  
       4A     -1.386802     5A     -1.027420     6A     -0.803664  
       7A     -0.674393     8A     -0.624012     9A     -0.606926  
      10A     -0.564065    11A     -0.500418    12A     -0.428769  

    Virtual:                                                              

      13A      0.033555    14A      0.046514    15A      0.055026  
      16A      0.058859    17A      0.064574    18A      0.070376  
      19A      0.078843    20A      0.093405    21A      0.095866  
      22A      0.098063    23A      0.102712    24A      0.106526  
      25A      0.117857    26A      0.118729    27A      0.132407  
      28A      0.140602    29A      0.146313    30A      0.149594  
      31A      0.161150    32A      0.166648    33A      0.175497  
      34A      0.183185    35A      0.188506    36A      0.199671  
      37A      0.204603    38A      0.211926    39A      0.227113  
      40A      0.228809    41A      0.235714    42A      0.245277  
      43A      0.254239    44A      0.263960    45A      0.267271  
      46A      0.276780    47A      0.279863    48A      0.292493  
      49A      0.304233    50A      0.310189    51A      0.324518  
      52A      0.331359    53A      0.336135    54A      0.340179  
      55A      0.348373    56A      0.353242    57A      0.358186  
      58A      0.371261    59A      0.377879    60A      0.384141  
      61A      0.390010    62A      0.396451    63A      0.400144  
      64A      0.406673    65A      0.412226    66A      0.421680  
      67A      0.430914    68A      0.433158    69A      0.441201  
      70A      0.460042    71A      0.463818    72A      0.474814  
      73A      0.477090    74A      0.486712    75A      0.492270  
      76A      0.501313    77A      0.505679    78A      0.519383  
      79A      0.528517    80A      0.531902    81A      0.543930  
      82A      0.568473    83A      0.572877    84A      0.588428  
      85A      0.605580    86A      0.614094    87A      0.629650  
      88A      0.632382    89A      0.640910    90A      0.643341  
      91A      0.650727    92A      0.664017    93A      0.667169  
      94A      0.681954    95A      0.684539    96A      0.699222  
      97A      0.711880    98A      0.730109    99A      0.739937  
     100A      0.750856   101A      0.758553   102A      0.777322  
     103A      0.788525   104A      0.801037   105A      0.809059  
     106A      0.818621   107A      0.822053   108A      0.836409  
     109A      0.845971   110A      0.852305   111A      0.857987  
     112A      0.869460   113A      0.881958   114A      0.903887  
     115A      0.908869   116A      0.923415   117A      0.930529  
     118A      0.938350   119A      0.944108   120A      0.969953  
     121A      0.971470   122A      0.991663   123A      1.004492  
     124A      1.030793   125A      1.040869   126A      1.043182  
     127A      1.056845   128A      1.068850   129A      1.076238  
     130A      1.092956   131A      1.104768   132A      1.117173  
     133A      1.121833   134A      1.140691   135A      1.149269  
     136A      1.171162   137A      1.189639   138A      1.199025  
     139A      1.215413   140A      1.228659   141A      1.233067  
     142A      1.246523   143A      1.268937   144A      1.269504  
     145A      1.273565   146A      1.290898   147A      1.300216  
     148A      1.304921   149A      1.324920   150A      1.333386  
     151A      1.337929   152A      1.347459   153A      1.363214  
     154A      1.378213   155A      1.384354   156A      1.394067  
     157A      1.430032   158A      1.438391   159A      1.452815  
     160A      1.458782   161A      1.466715   162A      1.481722  
     163A      1.489930   164A      1.508085   165A      1.519086  
     166A      1.536587   167A      1.538014   168A      1.547798  
     169A      1.561313   170A      1.563043   171A      1.587144  
     172A      1.598647   173A      1.606969   174A      1.615001  
     175A      1.631777   176A      1.636039   177A      1.660038  
     178A      1.674200   179A      1.679781   180A      1.690199  
     181A      1.719916   182A      1.730861   183A      1.742204  
     184A      1.768250   185A      1.778008   186A      1.790607  
     187A      1.808667   188A      1.827898   189A      1.834416  
     190A      1.868108   191A      1.874613   192A      1.906937  
     193A      1.920480   194A      1.941088   195A      1.956748  
     196A      1.995865   197A      2.025050   198A      2.041343  
     199A      2.070511   200A      2.098033   201A      2.112839  
     202A      2.150878   203A      2.160356   204A      2.234848  
     205A      2.267148   206A      2.289687   207A      2.309442  
     208A      2.332777   209A      2.354869   210A      2.375458  
     211A      2.390883   212A      2.418430   213A      2.425012  
     214A      2.453799   215A      2.489153   216A      2.531465  
     217A      2.554755   218A      2.561710   219A      2.610841  
     220A      2.617973   221A      2.647565   222A      2.692202  
     223A      2.703771   224A      2.721602   225A      2.735994  
     226A      2.750488   227A      2.762653   228A      2.786779  
     229A      2.871502   230A      2.891884   231A      2.905999  
     232A      2.934863   233A      2.947073   234A      2.985060  
     235A      3.024650   236A      3.060288   237A      3.065002  
     238A      3.106831   239A      3.113052   240A      3.142009  
     241A      3.200683   242A      3.203950   243A      3.215442  
     244A      3.262073   245A      3.302268   246A      3.314666  
     247A      3.377787   248A      3.383889   249A      3.393936  
     250A      3.410913   251A      3.484957   252A      3.494292  
     253A      3.496856   254A      3.525960   255A      3.541340  
     256A      3.548543   257A      3.567431   258A      3.604360  
     259A      3.614245   260A      3.623059   261A      3.635161  
     262A      3.649321   263A      3.656377   264A      3.665814  
     265A      3.701592   266A      3.703790   267A      3.751705  
     268A      3.762893   269A      3.766222   270A      3.777051  
     271A      3.781261   272A      3.806506   273A      3.813907  
     274A      3.836598   275A      3.843551   276A      3.861790  
     277A      3.880781   278A      3.894170   279A      3.903737  
     280A      3.913311   281A      3.924223   282A      3.940201  
     283A      3.991751   284A      4.000329   285A      4.017892  
     286A      4.066570   287A      4.080889   288A      4.093654  
     289A      4.101319   290A      4.136910   291A      4.156458  
     292A      4.164175   293A      4.187318   294A      4.202116  
     295A      4.222453   296A      4.245261   297A      4.249071  
     298A      4.273151   299A      4.295138   300A      4.306832  
     301A      4.316735   302A      4.335235   303A      4.366789  
     304A      4.376350   305A      4.383369   306A      4.395038  
     307A      4.436480   308A      4.442578   309A      4.463265  
     310A      4.482733   311A      4.488260   312A      4.490710  
     313A      4.518256   314A      4.545665   315A      4.546210  
     316A      4.573458   317A      4.603092   318A      4.611990  
     319A      4.642773   320A      4.650077   321A      4.666966  
     322A      4.703276   323A      4.707074   324A      4.717891  
     325A      4.728117   326A      4.737158   327A      4.740581  
     328A      4.756242   329A      4.762922   330A      4.769366  
     331A      4.785056   332A      4.796093   333A      4.819204  
     334A      4.825431   335A      4.828814   336A      4.843786  
     337A      4.852814   338A      4.867654   339A      4.882533  
     340A      4.894649   341A      4.906570   342A      4.916600  
     343A      4.939680   344A      4.949898   345A      4.965445  
     346A      4.977543   347A      4.980931   348A      5.000472  
     349A      5.007077   350A      5.016427   351A      5.021897  
     352A      5.061888   353A      5.066402   354A      5.095094  
     355A      5.103267   356A      5.134300   357A      5.139827  
     358A      5.147907   359A      5.178484   360A      5.193725  
     361A      5.220577   362A      5.251986   363A      5.261404  
     364A      5.306451   365A      5.335985   366A      5.363124  
     367A      5.383860   368A      5.445555   369A      5.463870  
     370A      5.468923   371A      5.529424   372A      5.549657  
     373A      5.606363   374A      5.613311   375A      5.643616  
     376A      5.671777   377A      5.684911   378A      5.705573  
     379A      5.718308   380A      5.740667   381A      5.798958  
     382A      5.845994   383A      5.873370   384A      5.907049  
     385A      5.912675   386A      5.944034   387A      5.992860  
     388A      6.054785   389A      6.089499   390A      6.092078  
     391A      6.107136   392A      6.133974   393A      6.218379  
     394A      6.277332   395A      6.300752   396A      6.332330  
     397A      6.343925   398A      6.379777   399A      6.414295  
     400A      6.417491   401A      6.426765   402A      6.439519  
     403A      6.475553   404A      6.492282   405A      6.529194  
     406A      6.571071   407A      6.589719   408A      6.623200  
     409A      6.696926   410A      6.778784   411A      6.819003  
     412A      6.873287   413A      6.924304   414A      6.948987  
     415A      6.976501   416A      7.115413   417A      7.201185  
     418A      7.249398   419A      7.295325   420A      7.323418  
     421A      7.348619   422A      7.416612   423A      7.438595  
     424A      7.467872   425A      7.525869   426A      7.547954  
     427A      7.635407   428A      7.651347   429A      7.681027  
     430A      7.755647   431A      7.774370   432A      7.814145  
     433A      7.838539   434A      7.864826   435A      7.939366  
     436A      7.987837   437A      8.062439   438A      8.275835  
     439A      8.412479   440A      8.461450   441A      8.857227  
     442A      9.122472   443A      9.137116   444A      9.170577  
     445A      9.453118   446A      9.622976   447A      9.825274  
     448A      9.891941   449A      9.933513   450A     10.011455  
     451A     10.179698   452A     10.594113   453A     10.952739  
     454A     11.493140   455A     11.625423   456A     11.703537  
     457A     12.021539   458A     12.320593   459A     13.837477  
     460A     14.106424   461A     14.721531   462A     42.926801  
     463A     44.799164   464A     45.631359   465A     55.833777  
     466A     60.831958  

    Final Occupation by Irrep:
              A 
    DOCC [    12 ]

  @DF-RHF Final Energy:  -152.97527110140587

   => Energetics <=

    Nuclear Repulsion Energy =             69.6283531719668360
    One-Electron Energy =                -345.6922535935176484
    Two-Electron Energy =                 123.0886293201449178
    Total Energy =                       -152.9752711014058661

Computation Completed


Properties will be evaluated at   0.000000,   0.000000,   0.000000 [a0]

Properties computed using the SCF density matrix

  Nuclear Dipole Moment: [e a0]
     X:  -128.1615      Y:     8.4152      Z:     1.8511

  Electronic Dipole Moment: [e a0]
     X:   127.6222      Y:    -7.2102      Z:    -1.9083

  Dipole Moment: [e a0]
     X:    -0.5393      Y:     1.2050      Z:    -0.0572     Total:     1.3214

  Dipole Moment: [D]
     X:    -1.3708      Y:     3.0628      Z:    -0.1453     Total:     3.3587


*** tstop() called on r282 at Sat Sep 11 01:32:23 2021
Module time:
	user time   =      23.90 seconds =       0.40 minutes
	system time =       0.49 seconds =       0.01 minutes
	total time  =         25 seconds =       0.42 minutes
Total time:
	user time   =     105.02 seconds =       1.75 minutes
	system time =       2.31 seconds =       0.04 minutes
	total time  =        108 seconds =       1.80 minutes
  Constructing Basis Sets for SAPT...

   => Loading Basis Set <=

    Name: (JUN-CC-PVTZ AUX)
    Role: RIFIT
    Keyword: DF_BASIS_SAPT
    atoms 1-2, 7, 14-15    entry C          line   132 file /home/r08543048/miniconda3/share/psi4/basis/jun-cc-pvtz-ri.gbs 
    atoms 3, 16            entry O          line   244 file /home/r08543048/miniconda3/share/psi4/basis/jun-cc-pvtz-ri.gbs 
    atoms 4                entry N          line   188 file /home/r08543048/miniconda3/share/psi4/basis/jun-cc-pvtz-ri.gbs 
    atoms 5-6, 8-13, 17-19 entry H          line    30 file /home/r08543048/miniconda3/share/psi4/basis/jun-cc-pvtz-ri.gbs 


  //>>>>>>>>>>>>>>>>>>>>>>>>>>>>>>>>>>>//
  //               SAPT0               //
  //<<<<<<<<<<<<<<<<<<<<<<<<<<<<<<<<<<<//


*** tstart() called on r282
*** at Sat Sep 11 01:32:23 2021

        SAPT0  
    Ed Hohenstein
     6 June 2009

      Orbital Information
  --------------------------
    NSO        =       466
    NMO        =       466
    NRI        =      1106
    NOCC A     =        20
    NOCC B     =        12
    FOCC A     =         0
    FOCC B     =         0
    NVIR A     =       446
    NVIR B     =       454

    Elst10,r            =    -0.018799173621 [Eh]
    Exch10              =     0.015806358290 [Eh]
    Exch10 (S^2)        =     0.015706801821 [Eh]

    Iter     Energy [mEh]          dE [mEh]         Residual      Time [s]
       1      -2.13243567       2.132435667       8.030700147             1
       2      -2.50577545       0.373339784       4.289630095             1
       3      -2.61124348       0.105468029       1.235779757             2
       4      -2.59370570      -0.017537776       0.518355482             3
       5      -2.58881767      -0.004888030       0.197319456             4
       6      -2.59051434       0.001696670       0.071552430             5
       7      -2.59123092       0.000716580       0.015863958             6
       8      -2.59108258      -0.000148349       0.004959081             6
       9      -2.59104080      -0.000041779       0.001189569             7
      10      -2.59105199       0.000011190       0.000290203             8
      11      -2.59105277       0.000000785       0.000060730             9
      12      -2.59105222      -0.000000554       0.000017755            10
      13      -2.59105220      -0.000000015       0.000006152            11
      14      -2.59105225       0.000000052       0.000001730            11
      15      -2.59105225      -0.000000007       0.000000649            12

    CHF Iterations converged


    Iter     Energy [mEh]          dE [mEh]         Residual      Time [s]
       1      -3.47998821       3.479988215      13.537445957             1
       2      -4.13752731       0.657539092       7.790833270             2
       3      -4.50743401       0.369906708       1.719261616             2
       4      -4.47028253      -0.037151483       0.666209957             3
       5      -4.46787111      -0.002411425       0.207241611             4
       6      -4.47138729       0.003516184       0.061759112             5
       7      -4.47152330       0.000136014       0.014101848             5
       8      -4.47126620      -0.000257105       0.002823547             6
       9      -4.47130146       0.000035260       0.000675076             7
      10      -4.47130254       0.000001079       0.000241826             7
      11      -4.47129988      -0.000002654       0.000129335             8
      12      -4.47130055       0.000000665       0.000052045             9
      13      -4.47130073       0.000000176       0.000011298            10
      14      -4.47130064      -0.000000082       0.000001906            10
      15      -4.47130065       0.000000009       0.000000375            11

    CHF Iterations converged

    Ind20,r (A<-B)      =    -0.002591052247 [Eh]
    Ind20,r (B<-A)      =    -0.004471300652 [Eh]
    Ind20,r             =    -0.007062352898 [Eh]
    Exch-Ind20,r (A<-B) =     0.001491367778 [Eh]
    Exch-Ind20,r (B<-A) =     0.001995340810 [Eh]
    Exch-Ind20,r        =     0.003486708588 [Eh]
    Disp20              =    -0.007792965964 [Eh]
    Disp20 (SS)         =    -0.003896482982 [Eh]
    Disp20 (OS)         =    -0.003896482982 [Eh]
    Exch-Disp20         =     0.001197443941 [Eh]
    Exch-Disp20 (SS)    =     0.000758278289 [Eh]
    Exch-Disp20 (OS)    =     0.000439165652 [Eh]

    SAPT Results 
  --------------------------------------------------------------------------------------------------------
    Electrostatics                -18.79917362 [mEh]     -11.79665955 [kcal/mol]     -49.35722354 [kJ/mol]
      Elst10,r                    -18.79917362 [mEh]     -11.79665955 [kcal/mol]     -49.35722354 [kJ/mol]

    Exchange                       15.80635829 [mEh]       9.91863957 [kcal/mol]      41.49958797 [kJ/mol]
      Exch10                       15.80635829 [mEh]       9.91863957 [kcal/mol]      41.49958797 [kJ/mol]
      Exch10(S^2)                  15.70680182 [mEh]       9.85616695 [kcal/mol]      41.23820250 [kJ/mol]

    Induction                      -5.86396084 [mEh]      -3.67969098 [kcal/mol]     -15.39582707 [kJ/mol]
      Ind20,r                      -7.06235290 [mEh]      -4.43169335 [kcal/mol]     -18.54220498 [kJ/mol]
      Exch-Ind20,r                  3.48670859 [mEh]       2.18794267 [kcal/mol]       9.15435214 [kJ/mol]
      delta HF,r (2)               -2.28831653 [mEh]      -1.43594030 [kcal/mol]      -6.00797422 [kJ/mol]

    Dispersion                     -6.59552202 [mEh]      -4.13875255 [kcal/mol]     -17.31654068 [kJ/mol]
      Disp20                       -7.79296596 [mEh]      -4.89015997 [kcal/mol]     -20.46042932 [kJ/mol]
      Exch-Disp20                   1.19744394 [mEh]       0.75140742 [kcal/mol]       3.14388863 [kJ/mol]
      Disp20 (SS)                  -3.89648298 [mEh]      -2.44507999 [kcal/mol]     -10.23021466 [kJ/mol]
      Disp20 (OS)                  -3.89648298 [mEh]      -2.44507999 [kcal/mol]     -10.23021466 [kJ/mol]
      Exch-Disp20 (SS)              0.75827829 [mEh]       0.47582681 [kcal/mol]       1.99085937 [kJ/mol]
      Exch-Disp20 (OS)              0.43916565 [mEh]       0.27558061 [kcal/mol]       1.15302926 [kJ/mol]

  Total HF                         -8.85677617 [mEh]      -5.55771096 [kcal/mol]     -23.25346264 [kJ/mol]
  Total SAPT0                     -15.45229820 [mEh]      -9.69646351 [kcal/mol]     -40.57000332 [kJ/mol]

  Special recipe for scaled SAPT0 (see Manual):
    Electrostatics sSAPT0         -18.79917362 [mEh]     -11.79665955 [kcal/mol]     -49.35722354 [kJ/mol]
    Exchange sSAPT0                15.80635829 [mEh]       9.91863957 [kcal/mol]      41.49958797 [kJ/mol]
    Induction sSAPT0               -5.79723893 [mEh]      -3.63782235 [kcal/mol]     -15.22064872 [kJ/mol]
    Dispersion sSAPT0              -6.57260765 [mEh]      -4.12437357 [kcal/mol]     -17.25637900 [kJ/mol]
  Total sSAPT0                    -15.36266191 [mEh]      -9.64021589 [kcal/mol]     -40.33466329 [kJ/mol]
  --------------------------------------------------------------------------------------------------------

*** tstop() called on r282 at Sat Sep 11 01:33:58 2021
Module time:
	user time   =      80.47 seconds =       1.34 minutes
	system time =      15.16 seconds =       0.25 minutes
	total time  =         95 seconds =       1.58 minutes
Total time:
	user time   =     185.62 seconds =       3.09 minutes
	system time =      17.47 seconds =       0.29 minutes
	total time  =        203 seconds =       3.38 minutes

    Psi4 stopped on: Saturday, 11 September 2021 01:33AM
    Psi4 wall time for execution: 0:03:23.36

*** Psi4 exiting successfully. Buy a developer a beer!
