
    -----------------------------------------------------------------------
          Psi4: An Open-Source Ab Initio Electronic Structure Package
                               Psi4 1.3.2 release

                         Git: Rev {HEAD} ecbda83 


    R. M. Parrish, L. A. Burns, D. G. A. Smith, A. C. Simmonett,
    A. E. DePrince III, E. G. Hohenstein, U. Bozkaya, A. Yu. Sokolov,
    R. Di Remigio, R. M. Richard, J. F. Gonthier, A. M. James,
    H. R. McAlexander, A. Kumar, M. Saitow, X. Wang, B. P. Pritchard,
    P. Verma, H. F. Schaefer III, K. Patkowski, R. A. King, E. F. Valeev,
    F. A. Evangelista, J. M. Turney, T. D. Crawford, and C. D. Sherrill,
    J. Chem. Theory Comput. 13(7) pp 3185--3197 (2017).
    (doi: 10.1021/acs.jctc.7b00174)


                         Additional Contributions by
    P. Kraus, H. Kruse, M. H. Lechner, M. C. Schieber, R. A. Shaw,
    A. Alenaizan, R. Galvelis, Z. L. Glick, S. Lehtola, and J. P. Misiewicz

    -----------------------------------------------------------------------


    Psi4 started on: Saturday, 11 September 2021 01:28AM

    Process ID: 57450
    Host:       r282
    PSIDATADIR: /home/r08543048/miniconda3/share/psi4
    Memory:     500.0 MiB
    Threads:    1
    
  ==> Input File <==

--------------------------------------------------------------------------
# Any line starting with the # character is a comment line
#! Sample  computation

memory 22 gb

molecule Dimer {
0 1
 C 3.251349   -0.257591   -0.000810
 C 1.744298   -0.154757    0.000140
 O 1.035297   -1.159135    0.000458
 N 1.231666    1.099009    0.001218
 H 3.557858   -0.820332    0.878369
 H 3.556593   -0.823320   -0.878487
 H 3.750304    0.708845   -0.002717
 H 0.223291    1.225778    0.000576
 H 1.834300    1.900001   -0.001161
 
 
 



    
    
    
 --
0 1
 H  -1.270404   -0.863070    0.001043
 C  -3.475582   -0.557831   -0.000182
 C  -2.055765   -0.091867    0.000178
 O  -1.736307    1.089130   -0.000630
 H  -4.161965    0.283819   -0.001178
 H  -3.644245   -1.186921   -0.875526
 H  -3.645112   -1.185550    0.875975
  
  
  
  
  







units angstrom

no_reorient
symmetry c1
}

set globals{
  basis jun-cc-pvtz
}

energy('sapt0')


--------------------------------------------------------------------------

  Memory set to  20.489 GiB by Python driver.

  //>>>>>>>>>>>>>>>>>>>>>>>>>>>>>>>>>>>//
  //              Dimer HF             //
  //<<<<<<<<<<<<<<<<<<<<<<<<<<<<<<<<<<<//


*** tstart() called on r282
*** at Sat Sep 11 01:28:43 2021

   => Loading Basis Set <=

    Name: JUN-CC-PVTZ
    Role: ORBITAL
    Keyword: BASIS
    atoms 1-2, 11-12  entry C          line   217 file /home/r08543048/miniconda3/share/psi4/basis/jun-cc-pvtz.gbs 
    atoms 3, 13       entry O          line   305 file /home/r08543048/miniconda3/share/psi4/basis/jun-cc-pvtz.gbs 
    atoms 4           entry N          line   261 file /home/r08543048/miniconda3/share/psi4/basis/jun-cc-pvtz.gbs 
    atoms 5-10, 14-16 entry H          line    36 file /home/r08543048/miniconda3/share/psi4/basis/jun-cc-pvtz.gbs 


         ---------------------------------------------------------
                                   SCF
               by Justin Turney, Rob Parrish, Andy Simmonett
                          and Daniel G. A. Smith
                              RHF Reference
                        1 Threads,  20980 MiB Core
         ---------------------------------------------------------

  ==> Geometry <==

    Molecular point group: c1
    Full point group: C1

    Geometry (in Angstrom), charge = 0, multiplicity = 1:

       Center              X                  Y                   Z               Mass       
    ------------   -----------------  -----------------  -----------------  -----------------
         C            3.253208973819    -0.264950799825    -0.000839945804    12.000000000000
         C            1.746157973819    -0.162116799825     0.000110054196    12.000000000000
         O            1.037156973819    -1.166494799825     0.000428054196    15.994914619570
         N            1.233525973819     1.091649200175     0.001188054196    14.003074004430
         H            3.559717973819    -0.827691799825     0.878339054196     1.007825032230
         H            3.558452973819    -0.830679799825    -0.878516945804     1.007825032230
         H            3.752163973819     0.701485200175    -0.002746945804     1.007825032230
         H            0.225150973819     1.218418200175     0.000546054196     1.007825032230
         H            1.836159973819     1.892641200175    -0.001190945804     1.007825032230
         H           -1.268544026181    -0.870429799825     0.001013054196     1.007825032230
         C           -3.473722026181    -0.565190799825    -0.000211945804    12.000000000000
         C           -2.053905026181    -0.099226799825     0.000148054196    12.000000000000
         O           -1.734447026181     1.081770200175    -0.000659945804    15.994914619570
         H           -4.160105026181     0.276459200175    -0.001207945804     1.007825032230
         H           -3.642385026181    -1.194280799825    -0.875555945804     1.007825032230
         H           -3.643252026181    -1.192909799825     0.875945054196     1.007825032230

  Running in c1 symmetry.

  Rotational constants: A =      0.22209  B =      0.03134  C =      0.02774 [cm^-1]
  Rotational constants: A =   6658.18559  B =    939.53603  C =    831.75776 [MHz]
  Nuclear repulsion =  287.844657436421357

  Charge       = 0
  Multiplicity = 1
  Electrons    = 56
  Nalpha       = 28
  Nbeta        = 28

  ==> Algorithm <==

  SCF Algorithm Type is DF.
  DIIS enabled.
  MOM disabled.
  Fractional occupation disabled.
  Guess Type is SAD.
  Energy threshold   = 1.00e-08
  Density threshold  = 1.00e-08
  Integral threshold = 0.00e+00

  ==> Primary Basis <==

  Basis Set: JUN-CC-PVTZ
    Blend: JUN-CC-PVTZ
    Number of shells: 145
    Number of basis function: 399
    Number of Cartesian functions: 450
    Spherical Harmonics?: true
    Max angular momentum: 3

   => Loading Basis Set <=

    Name: (JUN-CC-PVTZ AUX)
    Role: JKFIT
    Keyword: DF_BASIS_SCF
    atoms 1-2, 11-12  entry C          line   152 file /home/r08543048/miniconda3/share/psi4/basis/jun-cc-pvtz-jkfit.gbs 
    atoms 3, 13       entry O          line   272 file /home/r08543048/miniconda3/share/psi4/basis/jun-cc-pvtz-jkfit.gbs 
    atoms 4           entry N          line   212 file /home/r08543048/miniconda3/share/psi4/basis/jun-cc-pvtz-jkfit.gbs 
    atoms 5-10, 14-16 entry H          line    70 file /home/r08543048/miniconda3/share/psi4/basis/jun-cc-pvtz-jkfit.gbs 

  ==> Pre-Iterations <==

   -------------------------------------------------------
    Irrep   Nso     Nmo     Nalpha   Nbeta   Ndocc  Nsocc
   -------------------------------------------------------
     A        399     399       0       0       0       0
   -------------------------------------------------------
    Total     399     399      28      28      28       0
   -------------------------------------------------------

  ==> Integral Setup <==

  ==> DiskDFJK: Density-Fitted J/K Matrices <==

    J tasked:                  Yes
    K tasked:                  Yes
    wK tasked:                  No
    OpenMP threads:              1
    Integrals threads:           1
    Memory [MiB]:            15735
    Algorithm:                Core
    Integral Cache:           SAVE
    Schwarz Cutoff:          1E-12
    Fitting Condition:       1E-10

   => Auxiliary Basis Set <=

  Basis Set: (JUN-CC-PVTZ AUX)
    Blend: JUN-CC-PVTZ-JKFIT
    Number of shells: 293
    Number of basis function: 935
    Number of Cartesian functions: 1127
    Spherical Harmonics?: true
    Max angular momentum: 4

  Minimum eigenvalue in the overlap matrix is 5.0362966754E-05.
  Using Symmetric Orthogonalization.

  SCF Guess: Superposition of Atomic Densities via on-the-fly atomic UHF.

  ==> Iterations <==

                           Total Energy        Delta E     RMS |[F,P]|

   @DF-RHF iter SAD:  -359.48546117038580   -3.59485e+02   0.00000e+00 
   @DF-RHF iter   1:  -360.77247851123536   -1.28702e+00   1.88728e-03 DIIS
   @DF-RHF iter   2:  -360.97576292466135   -2.03284e-01   1.11784e-03 DIIS
   @DF-RHF iter   3:  -361.04158777149649   -6.58248e-02   2.13738e-04 DIIS
   @DF-RHF iter   4:  -361.04583378259332   -4.24601e-03   8.50283e-05 DIIS
   @DF-RHF iter   5:  -361.04664245298397   -8.08670e-04   1.60756e-05 DIIS
   @DF-RHF iter   6:  -361.04669379425030   -5.13413e-05   7.71447e-06 DIIS
   @DF-RHF iter   7:  -361.04670281881010   -9.02456e-06   3.02961e-06 DIIS
   @DF-RHF iter   8:  -361.04670491512360   -2.09631e-06   1.10782e-06 DIIS
   @DF-RHF iter   9:  -361.04670520798589   -2.92862e-07   4.19766e-07 DIIS
   @DF-RHF iter  10:  -361.04670523187906   -2.38932e-08   1.42891e-07 DIIS
   @DF-RHF iter  11:  -361.04670523490313   -3.02407e-09   3.46664e-08 DIIS
   @DF-RHF iter  12:  -361.04670523508616   -1.83036e-10   1.06530e-08 DIIS
   @DF-RHF iter  13:  -361.04670523509844   -1.22782e-11   2.39460e-09 DIIS
  Energy and wave function converged.


  ==> Post-Iterations <==

    Orbital Energies [Eh]
    ---------------------

    Doubly Occupied:                                                      

       1A    -20.559691     2A    -20.508311     3A    -15.569959  
       4A    -11.347070     5A    -11.332144     6A    -11.237569  
       7A    -11.232318     8A     -1.389608     9A     -1.367410  
      10A     -1.200561    11A     -1.021119    12A     -0.999375  
      13A     -0.800403    14A     -0.790242    15A     -0.720721  
      16A     -0.670127    17A     -0.659514    18A     -0.622414  
      19A     -0.609259    20A     -0.602270    21A     -0.577338  
      22A     -0.560347    23A     -0.554266    24A     -0.517282  
      25A     -0.503513    26A     -0.431859    27A     -0.416136  
      28A     -0.403380  

    Virtual:                                                              

      29A      0.044371    30A      0.048601    31A      0.068947  
      32A      0.075528    33A      0.077631    34A      0.083013  
      35A      0.084519    36A      0.100250    37A      0.106227  
      38A      0.108545    39A      0.131863    40A      0.133157  
      41A      0.141265    42A      0.151359    43A      0.151433  
      44A      0.169249    45A      0.176771    46A      0.185850  
      47A      0.188421    48A      0.200620    49A      0.207625  
      50A      0.210298    51A      0.211101    52A      0.237718  
      53A      0.244418    54A      0.262056    55A      0.267622  
      56A      0.275434    57A      0.277976    58A      0.281874  
      59A      0.290048    60A      0.294941    61A      0.295952  
      62A      0.316960    63A      0.318865    64A      0.320245  
      65A      0.330670    66A      0.334470    67A      0.342913  
      68A      0.354127    69A      0.358473    70A      0.365051  
      71A      0.381276    72A      0.392832    73A      0.406033  
      74A      0.415420    75A      0.417474    76A      0.420816  
      77A      0.429395    78A      0.458923    79A      0.463916  
      80A      0.466245    81A      0.491186    82A      0.496108  
      83A      0.507059    84A      0.517081    85A      0.532296  
      86A      0.550734    87A      0.552068    88A      0.569299  
      89A      0.576152    90A      0.602696    91A      0.612361  
      92A      0.616971    93A      0.624518    94A      0.637376  
      95A      0.648108    96A      0.648753    97A      0.663284  
      98A      0.673761    99A      0.685280   100A      0.703070  
     101A      0.711854   102A      0.717520   103A      0.729069  
     104A      0.734811   105A      0.745983   106A      0.763371  
     107A      0.774613   108A      0.788740   109A      0.793641  
     110A      0.797505   111A      0.818056   112A      0.818220  
     113A      0.826495   114A      0.846695   115A      0.848825  
     116A      0.871280   117A      0.878250   118A      0.891500  
     119A      0.899601   120A      0.907409   121A      0.925072  
     122A      0.943113   123A      0.959050   124A      0.959916  
     125A      0.964319   126A      1.005222   127A      1.011936  
     128A      1.033883   129A      1.041483   130A      1.052101  
     131A      1.068658   132A      1.077547   133A      1.089378  
     134A      1.103566   135A      1.107894   136A      1.142528  
     137A      1.145806   138A      1.153240   139A      1.187879  
     140A      1.207800   141A      1.210246   142A      1.231441  
     143A      1.231933   144A      1.250285   145A      1.257630  
     146A      1.287330   147A      1.291906   148A      1.305087  
     149A      1.319075   150A      1.335289   151A      1.342424  
     152A      1.355072   153A      1.370540   154A      1.386387  
     155A      1.387517   156A      1.404027   157A      1.410894  
     158A      1.419565   159A      1.429727   160A      1.430205  
     161A      1.459069   162A      1.470333   163A      1.484399  
     164A      1.504371   165A      1.517805   166A      1.523432  
     167A      1.530971   168A      1.564456   169A      1.574875  
     170A      1.589040   171A      1.595959   172A      1.622073  
     173A      1.630256   174A      1.642727   175A      1.664967  
     176A      1.684863   177A      1.704252   178A      1.722542  
     179A      1.750354   180A      1.765660   181A      1.793393  
     182A      1.828340   183A      1.847758   184A      1.873297  
     185A      1.894590   186A      1.898911   187A      1.936963  
     188A      1.943948   189A      2.021494   190A      2.086443  
     191A      2.108510   192A      2.188779   193A      2.238920  
     194A      2.285261   195A      2.304607   196A      2.311243  
     197A      2.348863   198A      2.383457   199A      2.407796  
     200A      2.471393   201A      2.564509   202A      2.576202  
     203A      2.614112   204A      2.617988   205A      2.628868  
     206A      2.702364   207A      2.723909   208A      2.747073  
     209A      2.747293   210A      2.779763   211A      2.786459  
     212A      2.833712   213A      2.834777   214A      2.933468  
     215A      2.945225   216A      2.952432   217A      2.985659  
     218A      3.016488   219A      3.030555   220A      3.057290  
     221A      3.067847   222A      3.093582   223A      3.096861  
     224A      3.098208   225A      3.161988   226A      3.163033  
     227A      3.192451   228A      3.202088   229A      3.226630  
     230A      3.226899   231A      3.258506   232A      3.261569  
     233A      3.286064   234A      3.302692   235A      3.332077  
     236A      3.356860   237A      3.360227   238A      3.378713  
     239A      3.389669   240A      3.424556   241A      3.434443  
     242A      3.445009   243A      3.453197   244A      3.468164  
     245A      3.487120   246A      3.499152   247A      3.499862  
     248A      3.534597   249A      3.543648   250A      3.544577  
     251A      3.570905   252A      3.578685   253A      3.610224  
     254A      3.611480   255A      3.620301   256A      3.644831  
     257A      3.653987   258A      3.655735   259A      3.657350  
     260A      3.667189   261A      3.676173   262A      3.733784  
     263A      3.754791   264A      3.764560   265A      3.779330  
     266A      3.779357   267A      3.809312   268A      3.810190  
     269A      3.822635   270A      3.868284   271A      3.877488  
     272A      3.904072   273A      3.943409   274A      3.973701  
     275A      3.983225   276A      3.990631   277A      4.012746  
     278A      4.018452   279A      4.067510   280A      4.109087  
     281A      4.117277   282A      4.130071   283A      4.163354  
     284A      4.171990   285A      4.195857   286A      4.197211  
     287A      4.235408   288A      4.242740   289A      4.268467  
     290A      4.302530   291A      4.304869   292A      4.309153  
     293A      4.320268   294A      4.341164   295A      4.368467  
     296A      4.375779   297A      4.393792   298A      4.402275  
     299A      4.422117   300A      4.436600   301A      4.465970  
     302A      4.468425   303A      4.488075   304A      4.491370  
     305A      4.520380   306A      4.521789   307A      4.554047  
     308A      4.581789   309A      4.588564   310A      4.620242  
     311A      4.640669   312A      4.705481   313A      4.705902  
     314A      4.714630   315A      4.753523   316A      4.761211  
     317A      4.764796   318A      4.783718   319A      4.803843  
     320A      4.814356   321A      4.904994   322A      4.939631  
     323A      5.016844   324A      5.035569   325A      5.114943  
     326A      5.134008   327A      5.150307   328A      5.165785  
     329A      5.193862   330A      5.214201   331A      5.224058  
     332A      5.224659   333A      5.263579   334A      5.293851  
     335A      5.321109   336A      5.363348   337A      5.425398  
     338A      5.445527   339A      5.454465   340A      5.488271  
     341A      5.495560   342A      5.542794   343A      5.557324  
     344A      5.583091   345A      5.592285   346A      5.616312  
     347A      5.667003   348A      5.669372   349A      5.685855  
     350A      5.694016   351A      5.706518   352A      5.715876  
     353A      5.737970   354A      5.755858   355A      5.770600  
     356A      5.821063   357A      5.856776   358A      5.910528  
     359A      5.967422   360A      5.997673   361A      6.058501  
     362A      6.091863   363A      6.098724   364A      6.115116  
     365A      6.209204   366A      6.247423   367A      6.293938  
     368A      6.333976   369A      6.413835   370A      6.427012  
     371A      6.432230   372A      6.447426   373A      6.590809  
     374A      6.717931   375A      6.758033   376A      6.790797  
     377A      6.800915   378A      6.944481   379A      7.199590  
     380A      7.212052   381A      7.264915   382A      7.274826  
     383A      7.322199   384A      7.371305   385A      7.414619  
     386A      7.457017   387A      7.473872   388A      7.512182  
     389A      7.696546   390A      7.714406   391A      7.753443  
     392A      7.812900   393A     12.166618   394A     12.405879  
     395A     13.777263   396A     14.159459   397A     14.517280  
     398A     14.800514   399A     15.830951  

    Final Occupation by Irrep:
              A 
    DOCC [    28 ]

  @DF-RHF Final Energy:  -361.04670523509844

   => Energetics <=

    Nuclear Repulsion Energy =            287.8446574364213575
    One-Electron Energy =               -1063.3743157365270235
    Two-Electron Energy =                 414.4829530650072229
    Total Energy =                       -361.0467052350984432

Computation Completed


Properties will be evaluated at   0.000000,   0.000000,   0.000000 [a0]

Properties computed using the SCF density matrix

  Nuclear Dipole Moment: [e a0]
     X:     0.1968      Y:    -0.7789      Z:    -0.0032

  Electronic Dipole Moment: [e a0]
     X:    -0.0670      Y:     1.0377      Z:     0.0016

  Dipole Moment: [e a0]
     X:     0.1298      Y:     0.2589      Z:    -0.0015     Total:     0.2896

  Dipole Moment: [D]
     X:     0.3300      Y:     0.6580      Z:    -0.0039     Total:     0.7361


*** tstop() called on r282 at Sat Sep 11 01:29:12 2021
Module time:
	user time   =      28.47 seconds =       0.47 minutes
	system time =       0.85 seconds =       0.01 minutes
	total time  =         29 seconds =       0.48 minutes
Total time:
	user time   =      28.47 seconds =       0.47 minutes
	system time =       0.85 seconds =       0.01 minutes
	total time  =         29 seconds =       0.48 minutes

  //>>>>>>>>>>>>>>>>>>>>>>>>>>>>>>>>>>>//
  //            Monomer A HF           //
  //<<<<<<<<<<<<<<<<<<<<<<<<<<<<<<<<<<<//


*** tstart() called on r282
*** at Sat Sep 11 01:29:12 2021

   => Loading Basis Set <=

    Name: JUN-CC-PVTZ
    Role: ORBITAL
    Keyword: BASIS
    atoms 1-2, 11-12  entry C          line   217 file /home/r08543048/miniconda3/share/psi4/basis/jun-cc-pvtz.gbs 
    atoms 3, 13       entry O          line   305 file /home/r08543048/miniconda3/share/psi4/basis/jun-cc-pvtz.gbs 
    atoms 4           entry N          line   261 file /home/r08543048/miniconda3/share/psi4/basis/jun-cc-pvtz.gbs 
    atoms 5-10, 14-16 entry H          line    36 file /home/r08543048/miniconda3/share/psi4/basis/jun-cc-pvtz.gbs 


         ---------------------------------------------------------
                                   SCF
               by Justin Turney, Rob Parrish, Andy Simmonett
                          and Daniel G. A. Smith
                              RHF Reference
                        1 Threads,  20980 MiB Core
         ---------------------------------------------------------

  ==> Geometry <==

    Molecular point group: c1
    Full point group: C1

    Geometry (in Angstrom), charge = 0, multiplicity = 1:

       Center              X                  Y                   Z               Mass       
    ------------   -----------------  -----------------  -----------------  -----------------
         C            3.253208973819    -0.264950799825    -0.000839945804    12.000000000000
         C            1.746157973819    -0.162116799825     0.000110054196    12.000000000000
         O            1.037156973819    -1.166494799825     0.000428054196    15.994914619570
         N            1.233525973819     1.091649200175     0.001188054196    14.003074004430
         H            3.559717973819    -0.827691799825     0.878339054196     1.007825032230
         H            3.558452973819    -0.830679799825    -0.878516945804     1.007825032230
         H            3.752163973819     0.701485200175    -0.002746945804     1.007825032230
         H            0.225150973819     1.218418200175     0.000546054196     1.007825032230
         H            1.836159973819     1.892641200175    -0.001190945804     1.007825032230
      Gh(H)          -1.268544026181    -0.870429799825     0.001013054196     1.007825032230
      Gh(C)          -3.473722026181    -0.565190799825    -0.000211945804    12.000000000000
      Gh(C)          -2.053905026181    -0.099226799825     0.000148054196    12.000000000000
      Gh(O)          -1.734447026181     1.081770200175    -0.000659945804    15.994914619570
      Gh(H)          -4.160105026181     0.276459200175    -0.001207945804     1.007825032230
      Gh(H)          -3.642385026181    -1.194280799825    -0.875555945804     1.007825032230
      Gh(H)          -3.643252026181    -1.192909799825     0.875945054196     1.007825032230

  Running in c1 symmetry.

  Rotational constants: A =      0.22209  B =      0.03134  C =      0.02774 [cm^-1]
  Rotational constants: A =   6658.18559  B =    939.53603  C =    831.75776 [MHz]
  Nuclear repulsion =  121.735325981694984

  Charge       = 0
  Multiplicity = 1
  Electrons    = 32
  Nalpha       = 16
  Nbeta        = 16

  ==> Algorithm <==

  SCF Algorithm Type is DF.
  DIIS enabled.
  MOM disabled.
  Fractional occupation disabled.
  Guess Type is SAD.
  Energy threshold   = 1.00e-08
  Density threshold  = 1.00e-08
  Integral threshold = 0.00e+00

  ==> Primary Basis <==

  Basis Set: JUN-CC-PVTZ
    Blend: JUN-CC-PVTZ
    Number of shells: 145
    Number of basis function: 399
    Number of Cartesian functions: 450
    Spherical Harmonics?: true
    Max angular momentum: 3

   => Loading Basis Set <=

    Name: (JUN-CC-PVTZ AUX)
    Role: JKFIT
    Keyword: DF_BASIS_SCF
    atoms 1-2, 11-12  entry C          line   152 file /home/r08543048/miniconda3/share/psi4/basis/jun-cc-pvtz-jkfit.gbs 
    atoms 3, 13       entry O          line   272 file /home/r08543048/miniconda3/share/psi4/basis/jun-cc-pvtz-jkfit.gbs 
    atoms 4           entry N          line   212 file /home/r08543048/miniconda3/share/psi4/basis/jun-cc-pvtz-jkfit.gbs 
    atoms 5-10, 14-16 entry H          line    70 file /home/r08543048/miniconda3/share/psi4/basis/jun-cc-pvtz-jkfit.gbs 

  ==> Pre-Iterations <==

   -------------------------------------------------------
    Irrep   Nso     Nmo     Nalpha   Nbeta   Ndocc  Nsocc
   -------------------------------------------------------
     A        399     399       0       0       0       0
   -------------------------------------------------------
    Total     399     399      16      16      16       0
   -------------------------------------------------------

  ==> Integral Setup <==

  ==> DiskDFJK: Density-Fitted J/K Matrices <==

    J tasked:                  Yes
    K tasked:                  Yes
    wK tasked:                  No
    OpenMP threads:              1
    Integrals threads:           1
    Memory [MiB]:            15735
    Algorithm:                Core
    Integral Cache:           LOAD
    Schwarz Cutoff:          1E-12
    Fitting Condition:       1E-10

   => Auxiliary Basis Set <=

  Basis Set: (JUN-CC-PVTZ AUX)
    Blend: JUN-CC-PVTZ-JKFIT
    Number of shells: 293
    Number of basis function: 935
    Number of Cartesian functions: 1127
    Spherical Harmonics?: true
    Max angular momentum: 4

  Minimum eigenvalue in the overlap matrix is 5.0362966754E-05.
  Using Symmetric Orthogonalization.

  SCF Guess: Superposition of Atomic Densities via on-the-fly atomic UHF.

  ==> Iterations <==

                           Total Energy        Delta E     RMS |[F,P]|

   @DF-RHF iter SAD:  -207.24069462109901   -2.07241e+02   0.00000e+00 
   @DF-RHF iter   1:  -207.88711501681044   -6.46420e-01   1.51618e-03 DIIS
   @DF-RHF iter   2:  -208.01497742274407   -1.27862e-01   9.10815e-04 DIIS
   @DF-RHF iter   3:  -208.05841042089492   -4.34330e-02   1.68456e-04 DIIS
   @DF-RHF iter   4:  -208.06087857384858   -2.46815e-03   6.82338e-05 DIIS
   @DF-RHF iter   5:  -208.06137880161171   -5.00228e-04   1.27296e-05 DIIS
   @DF-RHF iter   6:  -208.06140969691154   -3.08953e-05   6.03589e-06 DIIS
   @DF-RHF iter   7:  -208.06141535280682   -5.65590e-06   2.27714e-06 DIIS
   @DF-RHF iter   8:  -208.06141657469914   -1.22189e-06   7.45053e-07 DIIS
   @DF-RHF iter   9:  -208.06141672745099   -1.52752e-07   1.92774e-07 DIIS
   @DF-RHF iter  10:  -208.06141673525354   -7.80256e-09   6.30572e-08 DIIS
   @DF-RHF iter  11:  -208.06141673597037   -7.16824e-10   1.62047e-08 DIIS
   @DF-RHF iter  12:  -208.06141673601621   -4.58442e-11   3.31517e-09 DIIS
  Energy and wave function converged.


  ==> Post-Iterations <==

    Orbital Energies [Eh]
    ---------------------

    Doubly Occupied:                                                      

       1A    -20.513361     2A    -15.591484     3A    -11.353960  
       4A    -11.238508     5A     -1.371641     6A     -1.215842  
       7A     -1.006335     8A     -0.802824     9A     -0.729617  
      10A     -0.663767    11A     -0.615587    12A     -0.581910  
      13A     -0.564293    14A     -0.524358    15A     -0.422764  
      16A     -0.414385  

    Virtual:                                                              

      17A      0.036962    18A      0.040880    19A      0.056704  
      20A      0.072242    21A      0.074196    22A      0.080285  
      23A      0.081599    24A      0.096819    25A      0.104648  
      26A      0.110721    27A      0.128736    28A      0.131068  
      29A      0.140163    30A      0.143776    31A      0.150887  
      32A      0.154247    33A      0.171785    34A      0.178729  
      35A      0.180439    36A      0.196795    37A      0.199871  
      38A      0.207349    39A      0.212334    40A      0.230490  
      41A      0.238800    42A      0.255329    43A      0.257532  
      44A      0.272500    45A      0.279451    46A      0.281766  
      47A      0.288915    48A      0.292418    49A      0.301924  
      50A      0.314484    51A      0.318617    52A      0.328449  
      53A      0.338318    54A      0.339899    55A      0.342048  
      56A      0.371057    57A      0.372844    58A      0.378755  
      59A      0.383012    60A      0.385341    61A      0.408168  
      62A      0.413281    63A      0.428219    64A      0.430159  
      65A      0.452970    66A      0.459511    67A      0.466525  
      68A      0.473254    69A      0.487677    70A      0.497997  
      71A      0.510239    72A      0.512292    73A      0.515272  
      74A      0.536709    75A      0.551661    76A      0.554918  
      77A      0.575977    78A      0.582664    79A      0.591870  
      80A      0.600230    81A      0.610200    82A      0.610658  
      83A      0.624697    84A      0.632980    85A      0.656456  
      86A      0.656858    87A      0.688709    88A      0.697964  
      89A      0.702265    90A      0.725632    91A      0.732713  
      92A      0.758356    93A      0.763928    94A      0.767800  
      95A      0.768165    96A      0.779069    97A      0.813783  
      98A      0.824147    99A      0.844686   100A      0.851952  
     101A      0.875744   102A      0.887948   103A      0.901749  
     104A      0.902635   105A      0.927691   106A      0.928136  
     107A      0.954186   108A      0.967231   109A      0.987327  
     110A      1.002781   111A      1.019341   112A      1.026215  
     113A      1.040151   114A      1.044547   115A      1.053357  
     116A      1.066830   117A      1.068003   118A      1.094412  
     119A      1.099972   120A      1.128591   121A      1.132443  
     122A      1.149505   123A      1.159223   124A      1.191286  
     125A      1.198035   126A      1.202951   127A      1.214174  
     128A      1.226552   129A      1.229711   130A      1.245495  
     131A      1.246495   132A      1.262550   133A      1.267843  
     134A      1.270696   135A      1.284703   136A      1.319225  
     137A      1.326030   138A      1.347340   139A      1.347797  
     140A      1.369091   141A      1.384218   142A      1.395291  
     143A      1.403665   144A      1.412721   145A      1.437818  
     146A      1.438958   147A      1.459563   148A      1.481287  
     149A      1.499897   150A      1.513880   151A      1.528938  
     152A      1.530336   153A      1.555493   154A      1.560120  
     155A      1.570248   156A      1.574555   157A      1.600928  
     158A      1.609498   159A      1.610075   160A      1.619567  
     161A      1.655734   162A      1.656096   163A      1.684651  
     164A      1.702693   165A      1.742065   166A      1.785880  
     167A      1.798542   168A      1.858199   169A      1.862915  
     170A      1.885042   171A      1.894480   172A      1.899562  
     173A      1.924920   174A      1.935017   175A      1.990585  
     176A      2.020796   177A      2.028047   178A      2.082470  
     179A      2.106316   180A      2.140753   181A      2.193677  
     182A      2.264004   183A      2.271677   184A      2.323616  
     185A      2.340699   186A      2.373308   187A      2.382480  
     188A      2.442401   189A      2.467266   190A      2.499229  
     191A      2.523780   192A      2.585366   193A      2.622160  
     194A      2.634168   195A      2.720408   196A      2.735576  
     197A      2.776165   198A      2.793367   199A      2.811537  
     200A      2.827093   201A      2.866417   202A      2.897530  
     203A      2.950855   204A      2.970495   205A      2.979121  
     206A      3.001862   207A      3.054651   208A      3.088514  
     209A      3.152299   210A      3.185123   211A      3.197115  
     212A      3.209396   213A      3.230515   214A      3.253830  
     215A      3.274990   216A      3.302930   217A      3.353234  
     218A      3.377860   219A      3.417209   220A      3.434237  
     221A      3.454993   222A      3.466910   223A      3.482827  
     224A      3.510995   225A      3.529875   226A      3.532296  
     227A      3.542818   228A      3.550559   229A      3.568129  
     230A      3.581384   231A      3.582814   232A      3.613012  
     233A      3.627128   234A      3.641667   235A      3.645112  
     236A      3.650064   237A      3.663426   238A      3.725805  
     239A      3.773227   240A      3.795959   241A      3.798663  
     242A      3.802803   243A      3.823955   244A      3.829821  
     245A      3.861762   246A      3.866542   247A      3.892553  
     248A      3.917753   249A      3.935856   250A      3.960200  
     251A      3.975116   252A      3.991640   253A      4.001725  
     254A      4.052892   255A      4.057716   256A      4.069029  
     257A      4.118818   258A      4.123175   259A      4.155936  
     260A      4.162744   261A      4.178117   262A      4.204992  
     263A      4.223579   264A      4.267905   265A      4.268751  
     266A      4.299531   267A      4.301084   268A      4.320361  
     269A      4.343122   270A      4.365411   271A      4.376959  
     272A      4.390558   273A      4.408490   274A      4.418642  
     275A      4.446759   276A      4.447018   277A      4.474285  
     278A      4.501710   279A      4.508381   280A      4.518231  
     281A      4.519500   282A      4.529810   283A      4.555469  
     284A      4.569715   285A      4.575092   286A      4.628129  
     287A      4.638311   288A      4.673778   289A      4.704772  
     290A      4.717407   291A      4.735118   292A      4.735561  
     293A      4.742167   294A      4.756737   295A      4.761484  
     296A      4.776208   297A      4.779210   298A      4.800003  
     299A      4.811010   300A      4.831414   301A      4.848127  
     302A      4.877857   303A      4.900654   304A      4.913657  
     305A      4.922178   306A      4.930956   307A      4.957589  
     308A      5.020087   309A      5.095800   310A      5.110004  
     311A      5.127282   312A      5.132511   313A      5.176946  
     314A      5.199351   315A      5.208848   316A      5.209562  
     317A      5.268207   318A      5.295331   319A      5.328979  
     320A      5.415687   321A      5.422276   322A      5.435686  
     323A      5.488074   324A      5.522897   325A      5.576652  
     326A      5.608558   327A      5.622256   328A      5.655377  
     329A      5.681248   330A      5.681689   331A      5.726238  
     332A      5.742039   333A      5.763694   334A      5.764551  
     335A      5.850945   336A      5.870684   337A      5.915192  
     338A      5.976222   339A      6.033385   340A      6.046728  
     341A      6.076064   342A      6.107592   343A      6.116560  
     344A      6.185061   345A      6.194028   346A      6.239834  
     347A      6.266997   348A      6.273163   349A      6.293677  
     350A      6.338028   351A      6.425650   352A      6.436183  
     353A      6.447736   354A      6.514452   355A      6.549310  
     356A      6.610032   357A      6.699274   358A      6.722416  
     359A      6.761317   360A      6.787201   361A      6.862130  
     362A      6.931634   363A      6.985283   364A      7.208574  
     365A      7.261090   366A      7.329558   367A      7.366397  
     368A      7.449887   369A      7.472226   370A      7.478507  
     371A      7.518336   372A      7.528757   373A      7.608687  
     374A      7.752992   375A      7.785117   376A      7.801736  
     377A      7.864098   378A      7.871196   379A      8.187985  
     380A      8.309484   381A      8.492911   382A      9.347586  
     383A      9.388659   384A      9.771315   385A      9.836543  
     386A      9.873606   387A      9.912130   388A     10.156797  
     389A     10.961457   390A     11.551093   391A     11.909819  
     392A     12.170341   393A     13.675025   394A     13.826405  
     395A     14.787893   396A     15.807181   397A     43.456790  
     398A     45.690774   399A     60.399177  

    Final Occupation by Irrep:
              A 
    DOCC [    16 ]

  @DF-RHF Final Energy:  -208.06141673601621

   => Energetics <=

    Nuclear Repulsion Energy =            121.7353259816949844
    One-Electron Energy =                -524.3722138301651512
    Two-Electron Energy =                 194.5754711124539540
    Total Energy =                       -208.0614167360162128

Computation Completed


Properties will be evaluated at   0.000000,   0.000000,   0.000000 [a0]

Properties computed using the SCF density matrix

  Nuclear Dipole Moment: [e a0]
     X:   113.1186      Y:    -3.9659      Z:     0.0072

  Electronic Dipole Moment: [e a0]
     X:  -112.3459      Y:     5.4944      Z:    -0.0095

  Dipole Moment: [e a0]
     X:     0.7727      Y:     1.5286      Z:    -0.0023     Total:     1.7128

  Dipole Moment: [D]
     X:     1.9641      Y:     3.8852      Z:    -0.0058     Total:     4.3534


*** tstop() called on r282 at Sat Sep 11 01:29:26 2021
Module time:
	user time   =      14.02 seconds =       0.23 minutes
	system time =       0.37 seconds =       0.01 minutes
	total time  =         14 seconds =       0.23 minutes
Total time:
	user time   =      42.49 seconds =       0.71 minutes
	system time =       1.22 seconds =       0.02 minutes
	total time  =         43 seconds =       0.72 minutes

  //>>>>>>>>>>>>>>>>>>>>>>>>>>>>>>>>>>>//
  //            Monomer B HF           //
  //<<<<<<<<<<<<<<<<<<<<<<<<<<<<<<<<<<<//


*** tstart() called on r282
*** at Sat Sep 11 01:29:26 2021

   => Loading Basis Set <=

    Name: JUN-CC-PVTZ
    Role: ORBITAL
    Keyword: BASIS
    atoms 1-2, 11-12  entry C          line   217 file /home/r08543048/miniconda3/share/psi4/basis/jun-cc-pvtz.gbs 
    atoms 3, 13       entry O          line   305 file /home/r08543048/miniconda3/share/psi4/basis/jun-cc-pvtz.gbs 
    atoms 4           entry N          line   261 file /home/r08543048/miniconda3/share/psi4/basis/jun-cc-pvtz.gbs 
    atoms 5-10, 14-16 entry H          line    36 file /home/r08543048/miniconda3/share/psi4/basis/jun-cc-pvtz.gbs 


         ---------------------------------------------------------
                                   SCF
               by Justin Turney, Rob Parrish, Andy Simmonett
                          and Daniel G. A. Smith
                              RHF Reference
                        1 Threads,  20980 MiB Core
         ---------------------------------------------------------

  ==> Geometry <==

    Molecular point group: c1
    Full point group: C1

    Geometry (in Angstrom), charge = 0, multiplicity = 1:

       Center              X                  Y                   Z               Mass       
    ------------   -----------------  -----------------  -----------------  -----------------
      Gh(C)           3.253208973819    -0.264950799825    -0.000839945804    12.000000000000
      Gh(C)           1.746157973819    -0.162116799825     0.000110054196    12.000000000000
      Gh(O)           1.037156973819    -1.166494799825     0.000428054196    15.994914619570
      Gh(N)           1.233525973819     1.091649200175     0.001188054196    14.003074004430
      Gh(H)           3.559717973819    -0.827691799825     0.878339054196     1.007825032230
      Gh(H)           3.558452973819    -0.830679799825    -0.878516945804     1.007825032230
      Gh(H)           3.752163973819     0.701485200175    -0.002746945804     1.007825032230
      Gh(H)           0.225150973819     1.218418200175     0.000546054196     1.007825032230
      Gh(H)           1.836159973819     1.892641200175    -0.001190945804     1.007825032230
         H           -1.268544026181    -0.870429799825     0.001013054196     1.007825032230
         C           -3.473722026181    -0.565190799825    -0.000211945804    12.000000000000
         C           -2.053905026181    -0.099226799825     0.000148054196    12.000000000000
         O           -1.734447026181     1.081770200175    -0.000659945804    15.994914619570
         H           -4.160105026181     0.276459200175    -0.001207945804     1.007825032230
         H           -3.642385026181    -1.194280799825    -0.875555945804     1.007825032230
         H           -3.643252026181    -1.192909799825     0.875945054196     1.007825032230

  Running in c1 symmetry.

  Rotational constants: A =      0.22209  B =      0.03134  C =      0.02774 [cm^-1]
  Rotational constants: A =   6658.18559  B =    939.53603  C =    831.75776 [MHz]
  Nuclear repulsion =   69.629234416111842

  Charge       = 0
  Multiplicity = 1
  Electrons    = 24
  Nalpha       = 12
  Nbeta        = 12

  ==> Algorithm <==

  SCF Algorithm Type is DF.
  DIIS enabled.
  MOM disabled.
  Fractional occupation disabled.
  Guess Type is SAD.
  Energy threshold   = 1.00e-08
  Density threshold  = 1.00e-08
  Integral threshold = 0.00e+00

  ==> Primary Basis <==

  Basis Set: JUN-CC-PVTZ
    Blend: JUN-CC-PVTZ
    Number of shells: 145
    Number of basis function: 399
    Number of Cartesian functions: 450
    Spherical Harmonics?: true
    Max angular momentum: 3

   => Loading Basis Set <=

    Name: (JUN-CC-PVTZ AUX)
    Role: JKFIT
    Keyword: DF_BASIS_SCF
    atoms 1-2, 11-12  entry C          line   152 file /home/r08543048/miniconda3/share/psi4/basis/jun-cc-pvtz-jkfit.gbs 
    atoms 3, 13       entry O          line   272 file /home/r08543048/miniconda3/share/psi4/basis/jun-cc-pvtz-jkfit.gbs 
    atoms 4           entry N          line   212 file /home/r08543048/miniconda3/share/psi4/basis/jun-cc-pvtz-jkfit.gbs 
    atoms 5-10, 14-16 entry H          line    70 file /home/r08543048/miniconda3/share/psi4/basis/jun-cc-pvtz-jkfit.gbs 

  ==> Pre-Iterations <==

   -------------------------------------------------------
    Irrep   Nso     Nmo     Nalpha   Nbeta   Ndocc  Nsocc
   -------------------------------------------------------
     A        399     399       0       0       0       0
   -------------------------------------------------------
    Total     399     399      12      12      12       0
   -------------------------------------------------------

  ==> Integral Setup <==

  ==> DiskDFJK: Density-Fitted J/K Matrices <==

    J tasked:                  Yes
    K tasked:                  Yes
    wK tasked:                  No
    OpenMP threads:              1
    Integrals threads:           1
    Memory [MiB]:            15735
    Algorithm:                Core
    Integral Cache:           LOAD
    Schwarz Cutoff:          1E-12
    Fitting Condition:       1E-10

   => Auxiliary Basis Set <=

  Basis Set: (JUN-CC-PVTZ AUX)
    Blend: JUN-CC-PVTZ-JKFIT
    Number of shells: 293
    Number of basis function: 935
    Number of Cartesian functions: 1127
    Spherical Harmonics?: true
    Max angular momentum: 4

  Minimum eigenvalue in the overlap matrix is 5.0362966754E-05.
  Using Symmetric Orthogonalization.

  SCF Guess: Superposition of Atomic Densities via on-the-fly atomic UHF.

  ==> Iterations <==

                           Total Energy        Delta E     RMS |[F,P]|

   @DF-RHF iter SAD:  -152.11100896646565   -1.52111e+02   0.00000e+00 
   @DF-RHF iter   1:  -152.85380659491031   -7.42798e-01   1.23032e-03 DIIS
   @DF-RHF iter   2:  -152.93392527752044   -8.01187e-02   8.50168e-04 DIIS
   @DF-RHF iter   3:  -152.97236290048588   -3.84376e-02   1.41930e-04 DIIS
   @DF-RHF iter   4:  -152.97451021115702   -2.14731e-03   5.47982e-05 DIIS
   @DF-RHF iter   5:  -152.97491143880467   -4.01228e-04   1.09602e-05 DIIS
   @DF-RHF iter   6:  -152.97494123534705   -2.97965e-05   4.42351e-06 DIIS
   @DF-RHF iter   7:  -152.97494535559224   -4.12025e-06   1.72484e-06 DIIS
   @DF-RHF iter   8:  -152.97494602273395   -6.67142e-07   3.92650e-07 DIIS
   @DF-RHF iter   9:  -152.97494605938664   -3.66527e-08   1.06754e-07 DIIS
   @DF-RHF iter  10:  -152.97494606164264   -2.25600e-09   2.24749e-08 DIIS
   @DF-RHF iter  11:  -152.97494606173515   -9.25127e-11   4.10732e-09 DIIS
  Energy and wave function converged.


  ==> Post-Iterations <==

    Orbital Energies [Eh]
    ---------------------

    Doubly Occupied:                                                      

       1A    -20.559326     2A    -11.337829     3A    -11.242869  
       4A     -1.384942     5A     -1.025453     6A     -0.805534  
       7A     -0.674360     8A     -0.622080     9A     -0.606240  
      10A     -0.563538    11A     -0.499230    12A     -0.429445  

    Virtual:                                                              

      13A      0.035839    14A      0.042268    15A      0.056322  
      16A      0.066051    17A      0.068058    18A      0.079264  
      19A      0.079319    20A      0.095380    21A      0.100298  
      22A      0.103542    23A      0.128046    24A      0.131414  
      25A      0.137293    26A      0.143437    27A      0.148320  
      28A      0.153793    29A      0.167908    30A      0.174922  
      31A      0.181221    32A      0.193731    33A      0.196163  
      34A      0.203750    35A      0.204424    36A      0.214428  
      37A      0.216683    38A      0.226685    39A      0.245444  
      40A      0.268095    41A      0.268743    42A      0.273708  
      43A      0.286976    44A      0.292352    45A      0.300305  
      46A      0.315137    47A      0.324957    48A      0.335156  
      49A      0.350846    50A      0.355206    51A      0.362910  
      52A      0.366337    53A      0.368762    54A      0.375721  
      55A      0.385800    56A      0.395753    57A      0.397404  
      58A      0.416979    59A      0.419241    60A      0.431351  
      61A      0.438079    62A      0.444253    63A      0.457262  
      64A      0.457820    65A      0.470837    66A      0.475772  
      67A      0.487813    68A      0.513670    69A      0.515085  
      70A      0.524173    71A      0.539971    72A      0.575079  
      73A      0.578093    74A      0.579804    75A      0.610384  
      76A      0.629911    77A      0.635409    78A      0.639733  
      79A      0.647530    80A      0.661691    81A      0.674881  
      82A      0.675569    83A      0.691865    84A      0.713551  
      85A      0.723967    86A      0.729920    87A      0.739174  
      88A      0.761202    89A      0.775762    90A      0.801332  
      91A      0.801395    92A      0.804084    93A      0.813052  
      94A      0.831196    95A      0.834716    96A      0.841932  
      97A      0.856231    98A      0.869102    99A      0.869529  
     100A      0.898816   101A      0.905880   102A      0.906521  
     103A      0.936697   104A      0.937664   105A      0.960208  
     106A      0.980541   107A      0.980724   108A      1.006575  
     109A      1.021479   110A      1.031469   111A      1.048643  
     112A      1.051859   113A      1.065576   114A      1.074719  
     115A      1.083175   116A      1.089701   117A      1.114239  
     118A      1.121013   119A      1.155953   120A      1.170455  
     121A      1.181425   122A      1.189761   123A      1.209379  
     124A      1.232106   125A      1.260404   126A      1.275129  
     127A      1.281336   128A      1.283850   129A      1.298745  
     130A      1.312613   131A      1.317006   132A      1.333126  
     133A      1.333916   134A      1.372826   135A      1.397618  
     136A      1.403607   137A      1.410108   138A      1.421105  
     139A      1.438058   140A      1.462226   141A      1.473321  
     142A      1.479125   143A      1.492611   144A      1.512632  
     145A      1.525281   146A      1.529037   147A      1.549925  
     148A      1.569765   149A      1.574729   150A      1.583760  
     151A      1.588127   152A      1.594398   153A      1.600404  
     154A      1.644650   155A      1.667163   156A      1.679824  
     157A      1.712284   158A      1.723113   159A      1.727252  
     160A      1.767563   161A      1.780235   162A      1.820938  
     163A      1.834966   164A      1.850672   165A      1.853450  
     166A      1.866990   167A      1.892821   168A      1.922127  
     169A      1.934756   170A      1.977085   171A      1.997281  
     172A      2.039131   173A      2.071649   174A      2.091548  
     175A      2.145149   176A      2.223765   177A      2.241949  
     178A      2.322280   179A      2.344280   180A      2.353566  
     181A      2.374083   182A      2.377206   183A      2.434720  
     184A      2.444120   185A      2.493457   186A      2.570130  
     187A      2.583661   188A      2.597106   189A      2.611651  
     190A      2.627950   191A      2.678999   192A      2.725594  
     193A      2.738985   194A      2.749453   195A      2.757512  
     196A      2.794724   197A      2.829943   198A      2.857137  
     199A      2.868494   200A      2.924160   201A      2.940294  
     202A      2.948875   203A      3.015314   204A      3.035900  
     205A      3.051572   206A      3.081469   207A      3.091618  
     208A      3.158776   209A      3.169096   210A      3.206046  
     211A      3.220920   212A      3.223520   213A      3.293249  
     214A      3.330960   215A      3.347943   216A      3.366313  
     217A      3.386528   218A      3.431887   219A      3.450008  
     220A      3.497263   221A      3.500158   222A      3.518495  
     223A      3.537169   224A      3.586154   225A      3.589571  
     226A      3.600072   227A      3.605135   228A      3.621288  
     229A      3.630175   230A      3.647974   231A      3.654668  
     232A      3.681855   233A      3.728054   234A      3.749251  
     235A      3.760897   236A      3.770122   237A      3.809974  
     238A      3.842915   239A      3.844770   240A      3.870839  
     241A      3.879071   242A      3.890196   243A      3.921613  
     244A      3.941515   245A      3.963423   246A      3.988439  
     247A      4.003040   248A      4.009738   249A      4.063943  
     250A      4.085507   251A      4.107743   252A      4.153574  
     253A      4.166872   254A      4.187508   255A      4.232030  
     256A      4.243547   257A      4.272978   258A      4.280475  
     259A      4.292750   260A      4.303281   261A      4.313208  
     262A      4.324699   263A      4.333460   264A      4.337652  
     265A      4.364357   266A      4.371559   267A      4.403375  
     268A      4.465408   269A      4.483553   270A      4.483738  
     271A      4.508376   272A      4.525680   273A      4.540846  
     274A      4.578398   275A      4.609319   276A      4.618503  
     277A      4.629479   278A      4.678667   279A      4.695537  
     280A      4.704127   281A      4.730327   282A      4.740795  
     283A      4.748811   284A      4.758687   285A      4.768808  
     286A      4.771185   287A      4.778518   288A      4.790228  
     289A      4.803694   290A      4.831625   291A      4.832625  
     292A      4.849535   293A      4.887572   294A      4.900717  
     295A      4.929780   296A      4.931299   297A      4.941770  
     298A      4.990662   299A      5.022148   300A      5.022991  
     301A      5.045232   302A      5.075688   303A      5.087696  
     304A      5.121420   305A      5.136340   306A      5.146394  
     307A      5.146523   308A      5.163850   309A      5.185543  
     310A      5.204284   311A      5.247341   312A      5.283445  
     313A      5.350032   314A      5.428592   315A      5.450704  
     316A      5.498619   317A      5.538143   318A      5.555686  
     319A      5.590352   320A      5.657629   321A      5.663418  
     322A      5.683222   323A      5.709133   324A      5.719795  
     325A      5.758350   326A      5.835885   327A      5.861777  
     328A      5.899892   329A      5.952628   330A      5.977616  
     331A      6.025878   332A      6.076787   333A      6.094736  
     334A      6.101961   335A      6.151294   336A      6.208797  
     337A      6.251513   338A      6.300920   339A      6.325488  
     340A      6.354792   341A      6.408738   342A      6.421630  
     343A      6.435670   344A      6.449688   345A      6.503761  
     346A      6.516538   347A      6.553733   348A      6.620800  
     349A      6.682205   350A      6.738351   351A      6.760265  
     352A      6.860328   353A      6.929503   354A      6.947090  
     355A      7.088867   356A      7.206868   357A      7.270810  
     358A      7.307364   359A      7.336415   360A      7.354105  
     361A      7.419922   362A      7.449829   363A      7.470530  
     364A      7.540505   365A      7.543963   366A      7.690443  
     367A      7.709060   368A      7.755141   369A      7.814899  
     370A      7.843314   371A      7.861101   372A      7.897048  
     373A      8.028078   374A      8.255764   375A      8.449098  
     376A      8.822338   377A      9.071223   378A      9.119817  
     379A      9.140017   380A      9.395870   381A      9.802084  
     382A      9.836862   383A      9.890164   384A      9.941899  
     385A     10.153528   386A     10.589819   387A     10.939972  
     388A     11.455178   389A     11.577576   390A     11.661814  
     391A     11.967851   392A     12.413084   393A     13.814696  
     394A     14.128689   395A     14.515023   396A     42.647367  
     397A     46.155536   398A     55.622746   399A     60.555184  

    Final Occupation by Irrep:
              A 
    DOCC [    12 ]

  @DF-RHF Final Energy:  -152.97494606173515

   => Energetics <=

    Nuclear Repulsion Energy =             69.6292344161118422
    One-Electron Energy =                -345.7066718810307862
    Two-Electron Energy =                 123.1024914031838051
    Total Energy =                       -152.9749460617351247

Computation Completed


Properties will be evaluated at   0.000000,   0.000000,   0.000000 [a0]

Properties computed using the SCF density matrix

  Nuclear Dipole Moment: [e a0]
     X:  -112.9218      Y:     3.1870      Z:    -0.0103

  Electronic Dipole Moment: [e a0]
     X:   112.4015      Y:    -4.3970      Z:     0.0110

  Dipole Moment: [e a0]
     X:    -0.5202      Y:    -1.2100      Z:     0.0007     Total:     1.3171

  Dipole Moment: [D]
     X:    -1.3223      Y:    -3.0755      Z:     0.0018     Total:     3.3477


*** tstop() called on r282 at Sat Sep 11 01:29:39 2021
Module time:
	user time   =      12.05 seconds =       0.20 minutes
	system time =       0.37 seconds =       0.01 minutes
	total time  =         13 seconds =       0.22 minutes
Total time:
	user time   =      54.54 seconds =       0.91 minutes
	system time =       1.59 seconds =       0.03 minutes
	total time  =         56 seconds =       0.93 minutes
  Constructing Basis Sets for SAPT...

   => Loading Basis Set <=

    Name: (JUN-CC-PVTZ AUX)
    Role: RIFIT
    Keyword: DF_BASIS_SAPT
    atoms 1-2, 11-12  entry C          line   132 file /home/r08543048/miniconda3/share/psi4/basis/jun-cc-pvtz-ri.gbs 
    atoms 3, 13       entry O          line   244 file /home/r08543048/miniconda3/share/psi4/basis/jun-cc-pvtz-ri.gbs 
    atoms 4           entry N          line   188 file /home/r08543048/miniconda3/share/psi4/basis/jun-cc-pvtz-ri.gbs 
    atoms 5-10, 14-16 entry H          line    30 file /home/r08543048/miniconda3/share/psi4/basis/jun-cc-pvtz-ri.gbs 


  //>>>>>>>>>>>>>>>>>>>>>>>>>>>>>>>>>>>//
  //               SAPT0               //
  //<<<<<<<<<<<<<<<<<<<<<<<<<<<<<<<<<<<//


*** tstart() called on r282
*** at Sat Sep 11 01:29:39 2021

        SAPT0  
    Ed Hohenstein
     6 June 2009

      Orbital Information
  --------------------------
    NSO        =       399
    NMO        =       399
    NRI        =       949
    NOCC A     =        16
    NOCC B     =        12
    FOCC A     =         0
    FOCC B     =         0
    NVIR A     =       383
    NVIR B     =       387

    Elst10,r            =    -0.021249198611 [Eh]
    Exch10              =     0.017753391011 [Eh]
    Exch10 (S^2)        =     0.017655824522 [Eh]

    Iter     Energy [mEh]          dE [mEh]         Residual      Time [s]
       1      -2.71184875       2.711848747       9.002069942             0
       2      -3.23330517       0.521456420       4.886751182             1
       3      -3.36292267       0.129617508       1.386242084             1
       4      -3.33645931      -0.026463361       0.567874778             2
       5      -3.33248168      -0.003977634       0.214409385             2
       6      -3.33496590       0.002484219       0.077689609             3
       7      -3.33557517       0.000609269       0.017189215             3
       8      -3.33537773      -0.000197441       0.005111956             4
       9      -3.33534233      -0.000035401       0.001234099             4
      10      -3.33535465       0.000012327       0.000298404             5
      11      -3.33535571       0.000001061       0.000066885             5
      12      -3.33535513      -0.000000583       0.000020496             6
      13      -3.33535504      -0.000000089       0.000005514             6
      14      -3.33535510       0.000000061       0.000001197             7
      15      -3.33535509      -0.000000008       0.000000278             7

    CHF Iterations converged


    Iter     Energy [mEh]          dE [mEh]         Residual      Time [s]
       1      -4.06239311       4.062393113      16.019713041             1
       2      -4.69642159       0.634028475       9.015748565             1
       3      -5.27007878       0.573657196       1.983005388             2
       4      -5.21978657      -0.050292212       0.736729705             2
       5      -5.21775046      -0.002036109       0.250770622             3
       6      -5.22213466       0.004384193       0.078681409             3
       7      -5.22216268       0.000028019       0.015861280             4
       8      -5.22191733      -0.000245346       0.003035590             4
       9      -5.22194978       0.000032453       0.000787380             4
      10      -5.22195557       0.000005787       0.000193518             5
      11      -5.22195386      -0.000001707       0.000043214             5
      12      -5.22195376      -0.000000104       0.000009174             6
      13      -5.22195385       0.000000096       0.000003500             6
      14      -5.22195382      -0.000000034       0.000001556             7
      15      -5.22195383       0.000000006       0.000000411             7

    CHF Iterations converged

    Ind20,r (A<-B)      =    -0.003335355095 [Eh]
    Ind20,r (B<-A)      =    -0.005221953826 [Eh]
    Ind20,r             =    -0.008557308920 [Eh]
    Exch-Ind20,r (A<-B) =     0.002181302570 [Eh]
    Exch-Ind20,r (B<-A) =     0.002209205701 [Eh]
    Exch-Ind20,r        =     0.004390508271 [Eh]
    Disp20              =    -0.008245368112 [Eh]
    Disp20 (SS)         =    -0.004122684056 [Eh]
    Disp20 (OS)         =    -0.004122684056 [Eh]
    Exch-Disp20         =     0.001342852471 [Eh]
    Exch-Disp20 (SS)    =     0.000843662229 [Eh]
    Exch-Disp20 (OS)    =     0.000499190242 [Eh]

    SAPT Results 
  --------------------------------------------------------------------------------------------------------
    Electrostatics                -21.24919861 [mEh]     -13.33407344 [kcal/mol]     -55.78976327 [kJ/mol]
      Elst10,r                    -21.24919861 [mEh]     -13.33407344 [kcal/mol]     -55.78976327 [kJ/mol]

    Exchange                       17.75339101 [mEh]      11.14042105 [kcal/mol]      46.61152168 [kJ/mol]
      Exch10                       17.75339101 [mEh]      11.14042105 [kcal/mol]      46.61152168 [kJ/mol]
      Exch10(S^2)                  17.65582452 [mEh]      11.07919715 [kcal/mol]      46.35536090 [kJ/mol]

    Induction                      -6.84662975 [mEh]      -4.29632503 [kcal/mol]     -17.97582393 [kJ/mol]
      Ind20,r                      -8.55730892 [mEh]      -5.36979242 [kcal/mol]     -22.46721147 [kJ/mol]
      Exch-Ind20,r                  4.39050827 [mEh]       2.75508553 [kcal/mol]      11.52727788 [kJ/mol]
      delta HF,r (2)               -2.67982910 [mEh]      -1.68161815 [kcal/mol]      -7.03589033 [kJ/mol]

    Dispersion                     -6.90251564 [mEh]      -4.33139396 [kcal/mol]     -18.12255232 [kJ/mol]
      Disp20                       -8.24536811 [mEh]      -5.17404660 [kcal/mol]     -21.64821100 [kJ/mol]
      Exch-Disp20                   1.34285247 [mEh]       0.84265265 [kcal/mol]       3.52565868 [kJ/mol]
      Disp20 (SS)                  -4.12268406 [mEh]      -2.58702330 [kcal/mol]     -10.82410550 [kJ/mol]
      Disp20 (OS)                  -4.12268406 [mEh]      -2.58702330 [kcal/mol]     -10.82410550 [kJ/mol]
      Exch-Disp20 (SS)              0.84366223 [mEh]       0.52940604 [kcal/mol]       2.21503488 [kJ/mol]
      Exch-Disp20 (OS)              0.49919024 [mEh]       0.31324661 [kcal/mol]       1.31062380 [kJ/mol]

  Total HF                        -10.34243735 [mEh]      -6.48997742 [kcal/mol]     -27.15406551 [kJ/mol]
  Total SAPT0                     -17.24495299 [mEh]     -10.82137137 [kcal/mol]     -45.27661783 [kJ/mol]

  Special recipe for scaled SAPT0 (see Manual):
    Electrostatics sSAPT0         -21.24919861 [mEh]     -13.33407344 [kcal/mol]     -55.78976327 [kJ/mol]
    Exchange sSAPT0                17.75339101 [mEh]      11.14042105 [kcal/mol]      46.61152168 [kJ/mol]
    Induction sSAPT0               -6.77344064 [mEh]      -4.25039817 [kcal/mol]     -17.78366595 [kJ/mol]
    Dispersion sSAPT0              -6.88013049 [mEh]      -4.31734707 [kcal/mol]     -18.06378012 [kJ/mol]
  Total sSAPT0                    -17.14937874 [mEh]     -10.76139763 [kcal/mol]     -45.02568767 [kJ/mol]
  --------------------------------------------------------------------------------------------------------

*** tstop() called on r282 at Sat Sep 11 01:30:34 2021
Module time:
	user time   =      45.69 seconds =       0.76 minutes
	system time =       9.78 seconds =       0.16 minutes
	total time  =         55 seconds =       0.92 minutes
Total time:
	user time   =     100.34 seconds =       1.67 minutes
	system time =      11.37 seconds =       0.19 minutes
	total time  =        111 seconds =       1.85 minutes

    Psi4 stopped on: Saturday, 11 September 2021 01:30AM
    Psi4 wall time for execution: 0:01:51.88

*** Psi4 exiting successfully. Buy a developer a beer!
