
    -----------------------------------------------------------------------
          Psi4: An Open-Source Ab Initio Electronic Structure Package
                               Psi4 1.3.2 release

                         Git: Rev {HEAD} ecbda83 


    R. M. Parrish, L. A. Burns, D. G. A. Smith, A. C. Simmonett,
    A. E. DePrince III, E. G. Hohenstein, U. Bozkaya, A. Yu. Sokolov,
    R. Di Remigio, R. M. Richard, J. F. Gonthier, A. M. James,
    H. R. McAlexander, A. Kumar, M. Saitow, X. Wang, B. P. Pritchard,
    P. Verma, H. F. Schaefer III, K. Patkowski, R. A. King, E. F. Valeev,
    F. A. Evangelista, J. M. Turney, T. D. Crawford, and C. D. Sherrill,
    J. Chem. Theory Comput. 13(7) pp 3185--3197 (2017).
    (doi: 10.1021/acs.jctc.7b00174)


                         Additional Contributions by
    P. Kraus, H. Kruse, M. H. Lechner, M. C. Schieber, R. A. Shaw,
    A. Alenaizan, R. Galvelis, Z. L. Glick, S. Lehtola, and J. P. Misiewicz

    -----------------------------------------------------------------------


    Psi4 started on: Saturday, 11 September 2021 12:53AM

    Process ID: 57399
    Host:       r282
    PSIDATADIR: /home/r08543048/miniconda3/share/psi4
    Memory:     500.0 MiB
    Threads:    1
    
  ==> Input File <==

--------------------------------------------------------------------------
# Any line starting with the # character is a comment line
#! Sample  computation

memory 22 gb

molecule Dimer {
0 1
 C -3.343165   -0.850932   -0.195055
 C -1.992661   -0.180491   -0.109639
 O -1.160660   -0.290689   -1.006876
 N -1.755206    0.538171    1.016644
 H -3.923806   -0.766770    0.720849
 H -3.899162   -0.399154   -1.014665
 H -3.192877   -1.900682   -0.435273
 H -0.899368    1.074657    1.080286
 H -2.476452    0.677534    1.699021
 
 
 



    
    
    
 --
0 1
 H  1.388768    2.256826   -1.421281
 C  1.905208    0.241477   -0.685828
 C  1.311830    1.604138   -0.533806
 O  0.769843    2.024764    0.475054
 H  2.936558    0.375481   -1.033051
 C  1.844391   -0.623941    0.558796
 H  2.358538   -0.118998    1.378737
 H  0.802058   -0.732658    0.858571
 H  1.363892   -0.229009   -1.513528
 C  2.458912   -1.995891    0.312291
 H  1.927502   -2.516763   -0.484844
 H  3.505375   -1.909983    0.016092
 H  2.414859   -2.616444    1.206601






units angstrom

no_reorient
symmetry c1
}

set globals{
  basis jun-cc-pvtz
}

energy('sapt0')


--------------------------------------------------------------------------

  Memory set to  20.489 GiB by Python driver.

  //>>>>>>>>>>>>>>>>>>>>>>>>>>>>>>>>>>>//
  //              Dimer HF             //
  //<<<<<<<<<<<<<<<<<<<<<<<<<<<<<<<<<<<//


*** tstart() called on r282
*** at Sat Sep 11 00:53:54 2021

   => Loading Basis Set <=

    Name: JUN-CC-PVTZ
    Role: ORBITAL
    Keyword: BASIS
    atoms 1-2, 11-12, 15, 19     entry C          line   217 file /home/r08543048/miniconda3/share/psi4/basis/jun-cc-pvtz.gbs 
    atoms 3, 13                  entry O          line   305 file /home/r08543048/miniconda3/share/psi4/basis/jun-cc-pvtz.gbs 
    atoms 4                      entry N          line   261 file /home/r08543048/miniconda3/share/psi4/basis/jun-cc-pvtz.gbs 
    atoms 5-10, 14, 16-18, 20-22 entry H          line    36 file /home/r08543048/miniconda3/share/psi4/basis/jun-cc-pvtz.gbs 


         ---------------------------------------------------------
                                   SCF
               by Justin Turney, Rob Parrish, Andy Simmonett
                          and Daniel G. A. Smith
                              RHF Reference
                        1 Threads,  20980 MiB Core
         ---------------------------------------------------------

  ==> Geometry <==

    Molecular point group: c1
    Full point group: C1

    Geometry (in Angstrom), charge = 0, multiplicity = 1:

       Center              X                  Y                   Z               Mass       
    ------------   -----------------  -----------------  -----------------  -----------------
         C           -3.325687125759    -0.902387426496    -0.187095801089    12.000000000000
         C           -1.975183125759    -0.231946426496    -0.101679801089    12.000000000000
         O           -1.143182125759    -0.342144426496    -0.998916801089    15.994914619570
         N           -1.737728125759     0.486715573504     1.024603198911    14.003074004430
         H           -3.906328125759    -0.818225426496     0.728808198911     1.007825032230
         H           -3.881684125759    -0.450609426496    -1.006705801089     1.007825032230
         H           -3.175399125759    -1.952137426496    -0.427313801089     1.007825032230
         H           -0.881890125759     1.023201573504     1.088245198911     1.007825032230
         H           -2.458974125759     0.626078573504     1.706980198911     1.007825032230
         H            1.406245874241     2.205370573504    -1.413321801089     1.007825032230
         C            1.922685874241     0.190021573504    -0.677868801089    12.000000000000
         C            1.329307874241     1.552682573504    -0.525846801089    12.000000000000
         O            0.787320874241     1.973308573504     0.483013198911    15.994914619570
         H            2.954035874241     0.324025573504    -1.025091801089     1.007825032230
         C            1.861868874241    -0.675396426496     0.566755198911    12.000000000000
         H            2.376015874241    -0.170453426496     1.386696198911     1.007825032230
         H            0.819535874241    -0.784113426496     0.866530198911     1.007825032230
         H            1.381369874241    -0.280464426496    -1.505568801089     1.007825032230
         C            2.476389874241    -2.047346426496     0.320250198911    12.000000000000
         H            1.944979874241    -2.568218426496    -0.476884801089     1.007825032230
         H            3.522852874241    -1.961438426496     0.024051198911     1.007825032230
         H            2.432336874241    -2.667899426496     1.214560198911     1.007825032230

  Running in c1 symmetry.

  Rotational constants: A =      0.06561  B =      0.02872  C =      0.02357 [cm^-1]
  Rotational constants: A =   1966.84014  B =    861.05950  C =    706.73486 [MHz]
  Nuclear repulsion =  459.150289521284435

  Charge       = 0
  Multiplicity = 1
  Electrons    = 72
  Nalpha       = 36
  Nbeta        = 36

  ==> Algorithm <==

  SCF Algorithm Type is DF.
  DIIS enabled.
  MOM disabled.
  Fractional occupation disabled.
  Guess Type is SAD.
  Energy threshold   = 1.00e-08
  Density threshold  = 1.00e-08
  Integral threshold = 0.00e+00

  ==> Primary Basis <==

  Basis Set: JUN-CC-PVTZ
    Blend: JUN-CC-PVTZ
    Number of shells: 195
    Number of basis function: 533
    Number of Cartesian functions: 600
    Spherical Harmonics?: true
    Max angular momentum: 3

   => Loading Basis Set <=

    Name: (JUN-CC-PVTZ AUX)
    Role: JKFIT
    Keyword: DF_BASIS_SCF
    atoms 1-2, 11-12, 15, 19     entry C          line   152 file /home/r08543048/miniconda3/share/psi4/basis/jun-cc-pvtz-jkfit.gbs 
    atoms 3, 13                  entry O          line   272 file /home/r08543048/miniconda3/share/psi4/basis/jun-cc-pvtz-jkfit.gbs 
    atoms 4                      entry N          line   212 file /home/r08543048/miniconda3/share/psi4/basis/jun-cc-pvtz-jkfit.gbs 
    atoms 5-10, 14, 16-18, 20-22 entry H          line    70 file /home/r08543048/miniconda3/share/psi4/basis/jun-cc-pvtz-jkfit.gbs 

  ==> Pre-Iterations <==

   -------------------------------------------------------
    Irrep   Nso     Nmo     Nalpha   Nbeta   Ndocc  Nsocc
   -------------------------------------------------------
     A        533     533       0       0       0       0
   -------------------------------------------------------
    Total     533     533      36      36      36       0
   -------------------------------------------------------

  ==> Integral Setup <==

  ==> DiskDFJK: Density-Fitted J/K Matrices <==

    J tasked:                  Yes
    K tasked:                  Yes
    wK tasked:                  No
    OpenMP threads:              1
    Integrals threads:           1
    Memory [MiB]:            15735
    Algorithm:                Core
    Integral Cache:           SAVE
    Schwarz Cutoff:          1E-12
    Fitting Condition:       1E-10

   => Auxiliary Basis Set <=

  Basis Set: (JUN-CC-PVTZ AUX)
    Blend: JUN-CC-PVTZ-JKFIT
    Number of shells: 391
    Number of basis function: 1245
    Number of Cartesian functions: 1499
    Spherical Harmonics?: true
    Max angular momentum: 4

  Minimum eigenvalue in the overlap matrix is 3.2894928498E-05.
  Using Symmetric Orthogonalization.

  SCF Guess: Superposition of Atomic Densities via on-the-fly atomic UHF.

  ==> Iterations <==

                           Total Energy        Delta E     RMS |[F,P]|

   @DF-RHF iter SAD:  -437.65754751664372   -4.37658e+02   0.00000e+00 
   @DF-RHF iter   1:  -438.77215535634252   -1.11461e+00   1.58559e-03 DIIS
   @DF-RHF iter   2:  -439.04863672356447   -2.76481e-01   9.08580e-04 DIIS
   @DF-RHF iter   3:  -439.13409083525744   -8.54541e-02   1.77106e-04 DIIS
   @DF-RHF iter   4:  -439.13948128152930   -5.39045e-03   7.44381e-05 DIIS
   @DF-RHF iter   5:  -439.14047982563454   -9.98544e-04   1.34199e-05 DIIS
   @DF-RHF iter   6:  -439.14054017861196   -6.03530e-05   5.77251e-06 DIIS
   @DF-RHF iter   7:  -439.14054978353340   -9.60492e-06   2.19948e-06 DIIS
   @DF-RHF iter   8:  -439.14055177642683   -1.99289e-06   8.67868e-07 DIIS
   @DF-RHF iter   9:  -439.14055210604187   -3.29615e-07   2.81488e-07 DIIS
   @DF-RHF iter  10:  -439.14055213251442   -2.64725e-08   9.78894e-08 DIIS
   @DF-RHF iter  11:  -439.14055213536517   -2.85075e-09   3.74109e-08 DIIS
   @DF-RHF iter  12:  -439.14055213565371   -2.88537e-10   1.34858e-08 DIIS
   @DF-RHF iter  13:  -439.14055213571368   -5.99698e-11   4.32857e-09 DIIS
  Energy and wave function converged.


  ==> Post-Iterations <==

    Orbital Energies [Eh]
    ---------------------

    Doubly Occupied:                                                      

       1A    -20.551037     2A    -20.511605     3A    -15.574345  
       4A    -11.350470     5A    -11.330269     6A    -11.235076  
       7A    -11.225866     8A    -11.213422     9A    -11.207659  
      10A     -1.384901    11A     -1.371091    12A     -1.204486  
      13A     -1.072098    14A     -1.002711    15A     -0.968146  
      16A     -0.840229    17A     -0.793495    18A     -0.762422  
      19A     -0.719078    20A     -0.668378    21A     -0.665170  
      22A     -0.637008    23A     -0.627983    24A     -0.612323  
      25A     -0.581167    26A     -0.561855    27A     -0.557627  
      28A     -0.555654    29A     -0.521600    30A     -0.502587  
      31A     -0.497226    32A     -0.479088    33A     -0.468901  
      34A     -0.422295    35A     -0.416610    36A     -0.407577  

    Virtual:                                                              

      37A      0.042107    38A      0.051602    39A      0.056245  
      40A      0.061837    41A      0.074917    42A      0.075401  
      43A      0.078243    44A      0.086865    45A      0.094032  
      46A      0.104844    47A      0.106464    48A      0.111571  
      49A      0.118616    50A      0.126028    51A      0.131076  
      52A      0.139473    53A      0.141137    54A      0.154050  
      55A      0.157640    56A      0.170248    57A      0.173600  
      58A      0.177041    59A      0.185720    60A      0.189472  
      61A      0.194453    62A      0.200612    63A      0.201213  
      64A      0.207047    65A      0.227819    66A      0.242059  
      67A      0.249692    68A      0.256606    69A      0.263092  
      70A      0.275362    71A      0.279993    72A      0.283131  
      73A      0.287097    74A      0.289973    75A      0.296390  
      76A      0.296931    77A      0.304385    78A      0.309428  
      79A      0.313467    80A      0.317094    81A      0.321480  
      82A      0.327431    83A      0.336011    84A      0.338757  
      85A      0.348315    86A      0.353251    87A      0.363415  
      88A      0.365120    89A      0.375010    90A      0.382520  
      91A      0.390727    92A      0.396227    93A      0.407652  
      94A      0.411870    95A      0.415675    96A      0.420006  
      97A      0.423584    98A      0.432265    99A      0.439049  
     100A      0.444272   101A      0.448624   102A      0.463968  
     103A      0.482726   104A      0.491790   105A      0.494219  
     106A      0.500372   107A      0.509211   108A      0.521924  
     109A      0.527615   110A      0.534092   111A      0.535227  
     112A      0.543727   113A      0.554817   114A      0.560549  
     115A      0.570261   116A      0.579198   117A      0.583378  
     118A      0.591050   119A      0.602992   120A      0.616624  
     121A      0.618716   122A      0.621804   123A      0.635133  
     124A      0.638195   125A      0.646561   126A      0.660690  
     127A      0.680315   128A      0.684561   129A      0.689600  
     130A      0.694541   131A      0.696065   132A      0.717534  
     133A      0.720027   134A      0.726083   135A      0.732111  
     136A      0.739651   137A      0.747374   138A      0.762310  
     139A      0.765702   140A      0.785537   141A      0.797006  
     142A      0.804724   143A      0.806567   144A      0.812558  
     145A      0.822001   146A      0.829468   147A      0.837454  
     148A      0.845066   149A      0.847229   150A      0.860048  
     151A      0.873797   152A      0.882976   153A      0.885209  
     154A      0.887808   155A      0.902570   156A      0.909429  
     157A      0.916888   158A      0.922476   159A      0.926565  
     160A      0.948458   161A      0.954090   162A      0.961956  
     163A      0.986258   164A      0.991390   165A      0.999192  
     166A      1.017187   167A      1.019577   168A      1.034769  
     169A      1.044446   170A      1.060145   171A      1.070969  
     172A      1.095799   173A      1.101722   174A      1.110693  
     175A      1.126751   176A      1.130029   177A      1.137297  
     178A      1.139742   179A      1.158539   180A      1.165270  
     181A      1.183888   182A      1.192489   183A      1.206162  
     184A      1.211575   185A      1.220954   186A      1.237072  
     187A      1.248516   188A      1.265169   189A      1.279955  
     190A      1.285109   191A      1.294320   192A      1.311919  
     193A      1.329889   194A      1.336838   195A      1.345361  
     196A      1.358947   197A      1.364131   198A      1.369094  
     199A      1.377998   200A      1.385809   201A      1.398405  
     202A      1.403744   203A      1.418554   204A      1.424791  
     205A      1.439961   206A      1.443913   207A      1.461800  
     208A      1.465085   209A      1.466691   210A      1.476763  
     211A      1.478603   212A      1.490586   213A      1.499876  
     214A      1.510063   215A      1.514817   216A      1.544494  
     217A      1.554320   218A      1.569626   219A      1.572996  
     220A      1.576999   221A      1.597706   222A      1.601349  
     223A      1.614520   224A      1.615788   225A      1.622872  
     226A      1.630473   227A      1.644495   228A      1.657699  
     229A      1.671103   230A      1.675587   231A      1.691652  
     232A      1.702787   233A      1.723273   234A      1.731397  
     235A      1.740050   236A      1.754114   237A      1.764866  
     238A      1.796066   239A      1.800790   240A      1.839701  
     241A      1.866204   242A      1.874618   243A      1.880073  
     244A      1.888159   245A      1.906048   246A      1.912588  
     247A      1.919093   248A      1.938307   249A      1.946102  
     250A      1.964597   251A      1.990183   252A      2.005189  
     253A      2.039813   254A      2.071422   255A      2.094510  
     256A      2.150023   257A      2.185844   258A      2.228309  
     259A      2.275879   260A      2.293012   261A      2.337480  
     262A      2.404671   263A      2.413496   264A      2.454445  
     265A      2.494976   266A      2.501499   267A      2.519095  
     268A      2.592298   269A      2.617082   270A      2.652948  
     271A      2.702838   272A      2.743394   273A      2.758703  
     274A      2.775205   275A      2.781883   276A      2.797449  
     277A      2.827351   278A      2.838016   279A      2.856239  
     280A      2.874327   281A      2.891897   282A      2.913296  
     283A      2.943890   284A      2.965202   285A      2.977071  
     286A      2.989640   287A      3.003936   288A      3.007884  
     289A      3.022578   290A      3.046932   291A      3.069291  
     292A      3.078720   293A      3.085443   294A      3.098310  
     295A      3.128670   296A      3.133068   297A      3.142543  
     298A      3.152926   299A      3.158476   300A      3.166371  
     301A      3.200276   302A      3.204868   303A      3.216315  
     304A      3.247313   305A      3.263450   306A      3.277660  
     307A      3.291639   308A      3.296788   309A      3.315111  
     310A      3.318385   311A      3.325862   312A      3.352347  
     313A      3.362371   314A      3.372620   315A      3.381393  
     316A      3.391705   317A      3.416386   318A      3.429511  
     319A      3.432647   320A      3.443607   321A      3.448889  
     322A      3.450960   323A      3.470254   324A      3.475656  
     325A      3.490430   326A      3.493733   327A      3.509336  
     328A      3.519936   329A      3.526328   330A      3.531433  
     331A      3.538022   332A      3.542499   333A      3.557692  
     334A      3.561857   335A      3.578463   336A      3.581535  
     337A      3.597003   338A      3.608167   339A      3.622790  
     340A      3.632486   341A      3.640359   342A      3.662850  
     343A      3.663834   344A      3.679757   345A      3.686521  
     346A      3.690533   347A      3.702299   348A      3.710786  
     349A      3.741498   350A      3.762875   351A      3.768587  
     352A      3.785470   353A      3.788895   354A      3.797298  
     355A      3.815825   356A      3.819763   357A      3.848346  
     358A      3.866072   359A      3.874025   360A      3.883191  
     361A      3.899425   362A      3.903980   363A      3.918319  
     364A      3.952246   365A      3.962217   366A      3.964585  
     367A      3.971617   368A      3.983166   369A      4.004489  
     370A      4.028353   371A      4.035921   372A      4.051339  
     373A      4.061877   374A      4.070069   375A      4.117101  
     376A      4.136369   377A      4.154017   378A      4.156917  
     379A      4.180826   380A      4.196401   381A      4.208820  
     382A      4.216930   383A      4.222319   384A      4.239632  
     385A      4.268034   386A      4.273815   387A      4.290424  
     388A      4.297131   389A      4.304907   390A      4.317385  
     391A      4.326482   392A      4.347857   393A      4.353994  
     394A      4.369194   395A      4.380451   396A      4.392039  
     397A      4.400782   398A      4.411594   399A      4.413666  
     400A      4.435450   401A      4.450435   402A      4.455027  
     403A      4.456487   404A      4.468267   405A      4.495309  
     406A      4.504322   407A      4.508696   408A      4.521352  
     409A      4.541093   410A      4.550266   411A      4.576000  
     412A      4.587212   413A      4.595585   414A      4.614382  
     415A      4.623303   416A      4.629403   417A      4.642405  
     418A      4.649062   419A      4.676286   420A      4.708651  
     421A      4.709956   422A      4.721380   423A      4.733006  
     424A      4.761098   425A      4.777331   426A      4.796584  
     427A      4.832378   428A      4.837101   429A      4.858245  
     430A      4.872113   431A      4.886118   432A      4.893510  
     433A      4.912224   434A      4.936182   435A      4.976976  
     436A      5.023847   437A      5.028207   438A      5.082383  
     439A      5.106412   440A      5.115393   441A      5.120601  
     442A      5.138817   443A      5.153106   444A      5.168809  
     445A      5.205042   446A      5.209176   447A      5.226422  
     448A      5.248412   449A      5.281778   450A      5.296664  
     451A      5.302116   452A      5.323664   453A      5.331948  
     454A      5.338415   455A      5.376886   456A      5.390271  
     457A      5.414166   458A      5.421717   459A      5.432688  
     460A      5.443338   461A      5.465114   462A      5.498368  
     463A      5.544173   464A      5.561294   465A      5.589322  
     466A      5.602435   467A      5.613147   468A      5.618999  
     469A      5.652526   470A      5.672018   471A      5.681121  
     472A      5.693413   473A      5.708176   474A      5.721408  
     475A      5.743881   476A      5.752735   477A      5.769585  
     478A      5.776906   479A      5.799137   480A      5.817787  
     481A      5.853225   482A      5.883576   483A      5.907215  
     484A      5.916146   485A      5.935757   486A      5.952646  
     487A      5.992047   488A      6.001659   489A      6.026554  
     490A      6.057248   491A      6.110671   492A      6.136596  
     493A      6.157677   494A      6.219271   495A      6.231635  
     496A      6.273165   497A      6.319702   498A      6.322208  
     499A      6.441741   500A      6.450600   501A      6.516678  
     502A      6.529339   503A      6.576472   504A      6.580884  
     505A      6.618267   506A      6.719106   507A      6.787656  
     508A      6.812957   509A      6.830460   510A      6.996993  
     511A      7.231373   512A      7.268455   513A      7.298087  
     514A      7.310793   515A      7.314981   516A      7.370991  
     517A      7.459745   518A      7.481287   519A      7.520667  
     520A      7.548499   521A      7.652391   522A      7.741140  
     523A      7.811876   524A      7.823960   525A     12.406930  
     526A     12.675527   527A     13.944220   528A     14.082543  
     529A     14.315380   530A     14.500735   531A     14.617920  
     532A     14.795935   533A     15.855941  

    Final Occupation by Irrep:
              A 
    DOCC [    36 ]

  @DF-RHF Final Energy:  -439.14055213571368

   => Energetics <=

    Nuclear Repulsion Energy =            459.1502895212844351
    One-Electron Energy =               -1509.5787744773995200
    Two-Electron Energy =                 611.2879328204012381
    Total Energy =                       -439.1405521357137332

Computation Completed


Properties will be evaluated at   0.000000,   0.000000,   0.000000 [a0]

Properties computed using the SCF density matrix

  Nuclear Dipole Moment: [e a0]
     X:     2.3780      Y:    -7.0011      Z:     1.0829

  Electronic Dipole Moment: [e a0]
     X:    -2.8263      Y:     6.7574      Z:    -0.7927

  Dipole Moment: [e a0]
     X:    -0.4483      Y:    -0.2436      Z:     0.2903     Total:     0.5870

  Dipole Moment: [D]
     X:    -1.1395      Y:    -0.6192      Z:     0.7378     Total:     1.4920


*** tstop() called on r282 at Sat Sep 11 00:55:29 2021
Module time:
	user time   =      93.61 seconds =       1.56 minutes
	system time =       1.85 seconds =       0.03 minutes
	total time  =         95 seconds =       1.58 minutes
Total time:
	user time   =      93.61 seconds =       1.56 minutes
	system time =       1.85 seconds =       0.03 minutes
	total time  =         95 seconds =       1.58 minutes

  //>>>>>>>>>>>>>>>>>>>>>>>>>>>>>>>>>>>//
  //            Monomer A HF           //
  //<<<<<<<<<<<<<<<<<<<<<<<<<<<<<<<<<<<//


*** tstart() called on r282
*** at Sat Sep 11 00:55:29 2021

   => Loading Basis Set <=

    Name: JUN-CC-PVTZ
    Role: ORBITAL
    Keyword: BASIS
    atoms 1-2, 11-12, 15, 19     entry C          line   217 file /home/r08543048/miniconda3/share/psi4/basis/jun-cc-pvtz.gbs 
    atoms 3, 13                  entry O          line   305 file /home/r08543048/miniconda3/share/psi4/basis/jun-cc-pvtz.gbs 
    atoms 4                      entry N          line   261 file /home/r08543048/miniconda3/share/psi4/basis/jun-cc-pvtz.gbs 
    atoms 5-10, 14, 16-18, 20-22 entry H          line    36 file /home/r08543048/miniconda3/share/psi4/basis/jun-cc-pvtz.gbs 


         ---------------------------------------------------------
                                   SCF
               by Justin Turney, Rob Parrish, Andy Simmonett
                          and Daniel G. A. Smith
                              RHF Reference
                        1 Threads,  20980 MiB Core
         ---------------------------------------------------------

  ==> Geometry <==

    Molecular point group: c1
    Full point group: C1

    Geometry (in Angstrom), charge = 0, multiplicity = 1:

       Center              X                  Y                   Z               Mass       
    ------------   -----------------  -----------------  -----------------  -----------------
         C           -3.325687125759    -0.902387426496    -0.187095801089    12.000000000000
         C           -1.975183125759    -0.231946426496    -0.101679801089    12.000000000000
         O           -1.143182125759    -0.342144426496    -0.998916801089    15.994914619570
         N           -1.737728125759     0.486715573504     1.024603198911    14.003074004430
         H           -3.906328125759    -0.818225426496     0.728808198911     1.007825032230
         H           -3.881684125759    -0.450609426496    -1.006705801089     1.007825032230
         H           -3.175399125759    -1.952137426496    -0.427313801089     1.007825032230
         H           -0.881890125759     1.023201573504     1.088245198911     1.007825032230
         H           -2.458974125759     0.626078573504     1.706980198911     1.007825032230
      Gh(H)           1.406245874241     2.205370573504    -1.413321801089     1.007825032230
      Gh(C)           1.922685874241     0.190021573504    -0.677868801089    12.000000000000
      Gh(C)           1.329307874241     1.552682573504    -0.525846801089    12.000000000000
      Gh(O)           0.787320874241     1.973308573504     0.483013198911    15.994914619570
      Gh(H)           2.954035874241     0.324025573504    -1.025091801089     1.007825032230
      Gh(C)           1.861868874241    -0.675396426496     0.566755198911    12.000000000000
      Gh(H)           2.376015874241    -0.170453426496     1.386696198911     1.007825032230
      Gh(H)           0.819535874241    -0.784113426496     0.866530198911     1.007825032230
      Gh(H)           1.381369874241    -0.280464426496    -1.505568801089     1.007825032230
      Gh(C)           2.476389874241    -2.047346426496     0.320250198911    12.000000000000
      Gh(H)           1.944979874241    -2.568218426496    -0.476884801089     1.007825032230
      Gh(H)           3.522852874241    -1.961438426496     0.024051198911     1.007825032230
      Gh(H)           2.432336874241    -2.667899426496     1.214560198911     1.007825032230

  Running in c1 symmetry.

  Rotational constants: A =      0.06561  B =      0.02872  C =      0.02357 [cm^-1]
  Rotational constants: A =   1966.84014  B =    861.05950  C =    706.73486 [MHz]
  Nuclear repulsion =  121.741098618458651

  Charge       = 0
  Multiplicity = 1
  Electrons    = 32
  Nalpha       = 16
  Nbeta        = 16

  ==> Algorithm <==

  SCF Algorithm Type is DF.
  DIIS enabled.
  MOM disabled.
  Fractional occupation disabled.
  Guess Type is SAD.
  Energy threshold   = 1.00e-08
  Density threshold  = 1.00e-08
  Integral threshold = 0.00e+00

  ==> Primary Basis <==

  Basis Set: JUN-CC-PVTZ
    Blend: JUN-CC-PVTZ
    Number of shells: 195
    Number of basis function: 533
    Number of Cartesian functions: 600
    Spherical Harmonics?: true
    Max angular momentum: 3

   => Loading Basis Set <=

    Name: (JUN-CC-PVTZ AUX)
    Role: JKFIT
    Keyword: DF_BASIS_SCF
    atoms 1-2, 11-12, 15, 19     entry C          line   152 file /home/r08543048/miniconda3/share/psi4/basis/jun-cc-pvtz-jkfit.gbs 
    atoms 3, 13                  entry O          line   272 file /home/r08543048/miniconda3/share/psi4/basis/jun-cc-pvtz-jkfit.gbs 
    atoms 4                      entry N          line   212 file /home/r08543048/miniconda3/share/psi4/basis/jun-cc-pvtz-jkfit.gbs 
    atoms 5-10, 14, 16-18, 20-22 entry H          line    70 file /home/r08543048/miniconda3/share/psi4/basis/jun-cc-pvtz-jkfit.gbs 

  ==> Pre-Iterations <==

   -------------------------------------------------------
    Irrep   Nso     Nmo     Nalpha   Nbeta   Ndocc  Nsocc
   -------------------------------------------------------
     A        533     533       0       0       0       0
   -------------------------------------------------------
    Total     533     533      16      16      16       0
   -------------------------------------------------------

  ==> Integral Setup <==

  ==> DiskDFJK: Density-Fitted J/K Matrices <==

    J tasked:                  Yes
    K tasked:                  Yes
    wK tasked:                  No
    OpenMP threads:              1
    Integrals threads:           1
    Memory [MiB]:            15735
    Algorithm:                Core
    Integral Cache:           LOAD
    Schwarz Cutoff:          1E-12
    Fitting Condition:       1E-10

   => Auxiliary Basis Set <=

  Basis Set: (JUN-CC-PVTZ AUX)
    Blend: JUN-CC-PVTZ-JKFIT
    Number of shells: 391
    Number of basis function: 1245
    Number of Cartesian functions: 1499
    Spherical Harmonics?: true
    Max angular momentum: 4

  Minimum eigenvalue in the overlap matrix is 3.2894928498E-05.
  Using Symmetric Orthogonalization.

  SCF Guess: Superposition of Atomic Densities via on-the-fly atomic UHF.

  ==> Iterations <==

                           Total Energy        Delta E     RMS |[F,P]|

   @DF-RHF iter SAD:  -207.24165421133225   -2.07242e+02   0.00000e+00 
   @DF-RHF iter   1:  -207.88759689097722   -6.45943e-01   1.13474e-03 DIIS
   @DF-RHF iter   2:  -208.01545864713407   -1.27862e-01   6.80586e-04 DIIS
   @DF-RHF iter   3:  -208.05871068131231   -4.32520e-02   1.25881e-04 DIIS
   @DF-RHF iter   4:  -208.06117951122292   -2.46883e-03   5.11882e-05 DIIS
   @DF-RHF iter   5:  -208.06168219354697   -5.02682e-04   9.59238e-06 DIIS
   @DF-RHF iter   6:  -208.06171365239675   -3.14588e-05   4.56824e-06 DIIS
   @DF-RHF iter   7:  -208.06171945814640   -5.80575e-06   1.72527e-06 DIIS
   @DF-RHF iter   8:  -208.06172071167009   -1.25352e-06   5.59257e-07 DIIS
   @DF-RHF iter   9:  -208.06172086572636   -1.54056e-07   1.43923e-07 DIIS
   @DF-RHF iter  10:  -208.06172087348253   -7.75617e-09   4.69890e-08 DIIS
   @DF-RHF iter  11:  -208.06172087418614   -7.03608e-10   1.22519e-08 DIIS
   @DF-RHF iter  12:  -208.06172087423215   -4.60147e-11   2.60350e-09 DIIS
  Energy and wave function converged.


  ==> Post-Iterations <==

    Orbital Energies [Eh]
    ---------------------

    Doubly Occupied:                                                      

       1A    -20.514350     2A    -15.590507     3A    -11.354227  
       4A    -11.238717     5A     -1.372658     6A     -1.215632  
       7A     -1.006868     8A     -0.802160     9A     -0.729396  
      10A     -0.664062    11A     -0.615868    12A     -0.582784  
      13A     -0.564308    14A     -0.524610    15A     -0.423739  
      16A     -0.414793  

    Virtual:                                                              

      17A      0.032644    18A      0.042242    19A      0.046565  
      20A      0.057643    21A      0.069425    22A      0.073000  
      23A      0.076976    24A      0.084226    25A      0.087313  
      26A      0.102666    27A      0.108900    28A      0.109801  
      29A      0.116813    30A      0.121392    31A      0.126678  
      32A      0.132103    33A      0.133569    34A      0.149970  
      35A      0.152542    36A      0.158586    37A      0.166518  
      38A      0.167185    39A      0.174551    40A      0.180027  
      41A      0.186891    42A      0.188918    43A      0.193612  
      44A      0.198203    45A      0.215095    46A      0.225606  
      47A      0.234044    48A      0.250053    49A      0.255363  
      50A      0.260553    51A      0.272142    52A      0.276468  
      53A      0.282283    54A      0.287388    55A      0.298200  
      56A      0.302988    57A      0.304849    58A      0.308159  
      59A      0.310208    60A      0.319170    61A      0.327247  
      62A      0.328490    63A      0.333432    64A      0.342408  
      65A      0.352143    66A      0.363240    67A      0.367889  
      68A      0.370510    69A      0.378356    70A      0.379546  
      71A      0.390858    72A      0.394268    73A      0.398818  
      74A      0.413708    75A      0.421738    76A      0.430640  
      77A      0.438033    78A      0.442209    79A      0.456378  
      80A      0.463547    81A      0.474619    82A      0.476233  
      83A      0.480327    84A      0.495465    85A      0.500271  
      86A      0.511242    87A      0.516895    88A      0.520963  
      89A      0.525539    90A      0.541495    91A      0.546789  
      92A      0.560058    93A      0.565238    94A      0.576782  
      95A      0.581008    96A      0.585707    97A      0.594252  
      98A      0.604608    99A      0.612289   100A      0.618597  
     101A      0.625812   102A      0.631287   103A      0.636209  
     104A      0.646269   105A      0.652162   106A      0.656162  
     107A      0.661936   108A      0.666502   109A      0.676037  
     110A      0.683096   111A      0.693621   112A      0.699810  
     113A      0.711056   114A      0.715966   115A      0.727376  
     116A      0.741566   117A      0.749382   118A      0.752823  
     119A      0.756966   120A      0.777401   121A      0.786897  
     122A      0.800227   123A      0.805602   124A      0.816046  
     125A      0.824853   126A      0.831989   127A      0.843103  
     128A      0.880155   129A      0.891699   130A      0.896637  
     131A      0.912372   132A      0.920671   133A      0.933459  
     134A      0.938770   135A      0.957038   136A      0.964137  
     137A      0.984111   138A      1.004431   139A      1.027971  
     140A      1.037803   141A      1.040080   142A      1.063629  
     143A      1.072300   144A      1.077107   145A      1.090428  
     146A      1.095818   147A      1.115254   148A      1.121007  
     149A      1.122834   150A      1.138084   151A      1.146406  
     152A      1.158800   153A      1.168085   154A      1.172829  
     155A      1.188491   156A      1.198060   157A      1.203515  
     158A      1.218918   159A      1.224652   160A      1.232738  
     161A      1.250968   162A      1.254995   163A      1.264395  
     164A      1.274379   165A      1.285735   166A      1.296634  
     167A      1.305434   168A      1.319570   169A      1.320615  
     170A      1.328350   171A      1.343711   172A      1.353308  
     173A      1.363072   174A      1.370356   175A      1.375385  
     176A      1.386765   177A      1.390176   178A      1.400740  
     179A      1.409455   180A      1.419454   181A      1.424887  
     182A      1.437432   183A      1.449960   184A      1.455775  
     185A      1.458765   186A      1.467279   187A      1.482979  
     188A      1.486242   189A      1.498811   190A      1.511281  
     191A      1.527681   192A      1.543313   193A      1.546785  
     194A      1.559348   195A      1.565090   196A      1.573553  
     197A      1.578386   198A      1.588650   199A      1.599223  
     200A      1.606020   201A      1.614248   202A      1.620866  
     203A      1.633262   204A      1.641961   205A      1.656800  
     206A      1.659399   207A      1.666915   208A      1.681098  
     209A      1.686526   210A      1.711993   211A      1.720348  
     212A      1.737125   213A      1.750223   214A      1.770916  
     215A      1.803846   216A      1.821297   217A      1.849975  
     218A      1.875482   219A      1.885757   220A      1.901579  
     221A      1.917014   222A      1.920026   223A      1.943661  
     224A      1.965800   225A      1.973974   226A      1.982656  
     227A      2.000188   228A      2.009938   229A      2.042044  
     230A      2.047695   231A      2.090003   232A      2.126337  
     233A      2.157738   234A      2.174573   235A      2.186619  
     236A      2.188981   237A      2.227750   238A      2.238184  
     239A      2.274079   240A      2.292692   241A      2.308962  
     242A      2.345115   243A      2.353051   244A      2.400129  
     245A      2.416863   246A      2.446944   247A      2.459684  
     248A      2.471643   249A      2.482640   250A      2.517329  
     251A      2.527893   252A      2.607776   253A      2.636753  
     254A      2.642614   255A      2.673555   256A      2.692648  
     257A      2.713790   258A      2.743301   259A      2.745218  
     260A      2.787654   261A      2.831447   262A      2.839317  
     263A      2.855415   264A      2.886130   265A      2.939670  
     266A      2.940773   267A      2.986891   268A      3.002571  
     269A      3.015034   270A      3.053479   271A      3.067443  
     272A      3.093283   273A      3.155577   274A      3.199465  
     275A      3.213143   276A      3.237972   277A      3.256026  
     278A      3.272119   279A      3.290479   280A      3.294615  
     281A      3.364185   282A      3.388563   283A      3.425544  
     284A      3.436435   285A      3.452068   286A      3.498198  
     287A      3.517792   288A      3.519641   289A      3.528236  
     290A      3.538088   291A      3.552677   292A      3.566281  
     293A      3.574304   294A      3.594177   295A      3.605622  
     296A      3.618736   297A      3.623050   298A      3.625957  
     299A      3.644643   300A      3.646415   301A      3.651462  
     302A      3.657586   303A      3.674959   304A      3.675703  
     305A      3.692476   306A      3.734575   307A      3.775038  
     308A      3.789025   309A      3.796866   310A      3.805666  
     311A      3.814031   312A      3.820303   313A      3.849993  
     314A      3.859706   315A      3.864681   316A      3.871845  
     317A      3.885188   318A      3.893538   319A      3.905061  
     320A      3.916636   321A      3.935650   322A      3.946160  
     323A      3.953435   324A      3.966828   325A      3.973395  
     326A      3.992230   327A      4.017171   328A      4.026630  
     329A      4.036864   330A      4.057684   331A      4.065800  
     332A      4.086328   333A      4.106106   334A      4.134122  
     335A      4.145965   336A      4.155220   337A      4.180525  
     338A      4.187067   339A      4.191805   340A      4.215486  
     341A      4.231528   342A      4.253228   343A      4.264725  
     344A      4.284850   345A      4.308193   346A      4.315195  
     347A      4.334148   348A      4.362000   349A      4.366876  
     350A      4.395000   351A      4.400777   352A      4.404856  
     353A      4.416505   354A      4.434596   355A      4.445199  
     356A      4.455320   357A      4.468889   358A      4.490724  
     359A      4.504305   360A      4.512651   361A      4.515376  
     362A      4.539630   363A      4.548203   364A      4.555465  
     365A      4.570982   366A      4.584311   367A      4.584878  
     368A      4.599581   369A      4.607058   370A      4.617822  
     371A      4.630002   372A      4.636637   373A      4.645269  
     374A      4.657220   375A      4.677453   376A      4.699009  
     377A      4.708737   378A      4.719905   379A      4.730834  
     380A      4.742642   381A      4.755139   382A      4.771937  
     383A      4.772920   384A      4.781729   385A      4.792707  
     386A      4.797142   387A      4.807654   388A      4.829160  
     389A      4.835662   390A      4.861945   391A      4.865375  
     392A      4.874865   393A      4.885662   394A      4.893325  
     395A      4.911286   396A      4.921005   397A      4.929339  
     398A      4.931870   399A      4.938309   400A      4.949717  
     401A      4.967380   402A      4.978838   403A      5.001527  
     404A      5.012737   405A      5.038834   406A      5.051483  
     407A      5.060699   408A      5.079121   409A      5.103785  
     410A      5.122152   411A      5.129517   412A      5.135432  
     413A      5.146376   414A      5.163508   415A      5.201314  
     416A      5.209246   417A      5.221772   418A      5.247215  
     419A      5.258713   420A      5.271050   421A      5.301357  
     422A      5.324342   423A      5.359546   424A      5.362970  
     425A      5.410275   426A      5.428051   427A      5.443196  
     428A      5.455051   429A      5.484663   430A      5.493356  
     431A      5.535854   432A      5.556175   433A      5.579618  
     434A      5.597668   435A      5.621099   436A      5.647122  
     437A      5.662437   438A      5.675398   439A      5.683891  
     440A      5.697248   441A      5.719323   442A      5.742914  
     443A      5.749372   444A      5.785656   445A      5.833858  
     446A      5.837416   447A      5.868485   448A      5.889018  
     449A      5.921565   450A      5.936030   451A      6.005896  
     452A      6.020529   453A      6.036001   454A      6.055692  
     455A      6.074707   456A      6.096095   457A      6.173243  
     458A      6.182687   459A      6.203800   460A      6.227648  
     461A      6.252387   462A      6.261724   463A      6.306509  
     464A      6.317533   465A      6.365618   466A      6.401123  
     467A      6.436814   468A      6.438204   469A      6.456839  
     470A      6.483218   471A      6.501004   472A      6.519124  
     473A      6.539505   474A      6.615716   475A      6.668681  
     476A      6.676523   477A      6.685282   478A      6.709496  
     479A      6.791874   480A      6.812958   481A      6.826655  
     482A      6.949726   483A      7.002078   484A      7.046608  
     485A      7.055617   486A      7.230103   487A      7.311705  
     488A      7.332733   489A      7.342849   490A      7.378659  
     491A      7.463373   492A      7.486707   493A      7.517108  
     494A      7.561297   495A      7.582587   496A      7.671485  
     497A      7.687617   498A      7.699557   499A      7.714778  
     500A      7.801664   501A      7.819685   502A      7.822192  
     503A      7.853142   504A      7.894594   505A      7.940467  
     506A      8.126605   507A      8.237846   508A      8.280071  
     509A      8.414154   510A      8.524934   511A      8.692539  
     512A      9.469259   513A      9.546230   514A      9.693591  
     515A      9.796862   516A      9.846443   517A      9.867857  
     518A      9.948612   519A      9.993067   520A     10.092396  
     521A     11.012267   522A     11.711818   523A     11.995035  
     524A     12.432878   525A     13.770697   526A     13.977263  
     527A     14.789531   528A     15.836849   529A     44.151394  
     530A     44.646543   531A     45.561407   532A     45.924743  
     533A     60.790164  

    Final Occupation by Irrep:
              A 
    DOCC [    16 ]

  @DF-RHF Final Energy:  -208.06172087423215

   => Energetics <=

    Nuclear Repulsion Energy =            121.7410986184586505
    One-Electron Energy =                -524.3762816361025898
    Two-Electron Energy =                 194.5734621434118026
    Total Energy =                       -208.0617208742321509

Computation Completed


Properties will be evaluated at   0.000000,   0.000000,   0.000000 [a0]

Properties computed using the SCF density matrix

  Nuclear Dipole Moment: [e a0]
     X:  -127.4035      Y:   -14.5657      Z:    -0.8726

  Electronic Dipole Moment: [e a0]
     X:   126.3750      Y:    14.9402      Z:     2.1777

  Dipole Moment: [e a0]
     X:    -1.0285      Y:     0.3745      Z:     1.3051     Total:     1.7034

  Dipole Moment: [D]
     X:    -2.6142      Y:     0.9520      Z:     3.3172     Total:     4.3295


*** tstop() called on r282 at Sat Sep 11 00:56:25 2021
Module time:
	user time   =      54.62 seconds =       0.91 minutes
	system time =       0.79 seconds =       0.01 minutes
	total time  =         56 seconds =       0.93 minutes
Total time:
	user time   =     148.23 seconds =       2.47 minutes
	system time =       2.64 seconds =       0.04 minutes
	total time  =        151 seconds =       2.52 minutes

  //>>>>>>>>>>>>>>>>>>>>>>>>>>>>>>>>>>>//
  //            Monomer B HF           //
  //<<<<<<<<<<<<<<<<<<<<<<<<<<<<<<<<<<<//


*** tstart() called on r282
*** at Sat Sep 11 00:56:25 2021

   => Loading Basis Set <=

    Name: JUN-CC-PVTZ
    Role: ORBITAL
    Keyword: BASIS
    atoms 1-2, 11-12, 15, 19     entry C          line   217 file /home/r08543048/miniconda3/share/psi4/basis/jun-cc-pvtz.gbs 
    atoms 3, 13                  entry O          line   305 file /home/r08543048/miniconda3/share/psi4/basis/jun-cc-pvtz.gbs 
    atoms 4                      entry N          line   261 file /home/r08543048/miniconda3/share/psi4/basis/jun-cc-pvtz.gbs 
    atoms 5-10, 14, 16-18, 20-22 entry H          line    36 file /home/r08543048/miniconda3/share/psi4/basis/jun-cc-pvtz.gbs 


         ---------------------------------------------------------
                                   SCF
               by Justin Turney, Rob Parrish, Andy Simmonett
                          and Daniel G. A. Smith
                              RHF Reference
                        1 Threads,  20980 MiB Core
         ---------------------------------------------------------

  ==> Geometry <==

    Molecular point group: c1
    Full point group: C1

    Geometry (in Angstrom), charge = 0, multiplicity = 1:

       Center              X                  Y                   Z               Mass       
    ------------   -----------------  -----------------  -----------------  -----------------
      Gh(C)          -3.325687125759    -0.902387426496    -0.187095801089    12.000000000000
      Gh(C)          -1.975183125759    -0.231946426496    -0.101679801089    12.000000000000
      Gh(O)          -1.143182125759    -0.342144426496    -0.998916801089    15.994914619570
      Gh(N)          -1.737728125759     0.486715573504     1.024603198911    14.003074004430
      Gh(H)          -3.906328125759    -0.818225426496     0.728808198911     1.007825032230
      Gh(H)          -3.881684125759    -0.450609426496    -1.006705801089     1.007825032230
      Gh(H)          -3.175399125759    -1.952137426496    -0.427313801089     1.007825032230
      Gh(H)          -0.881890125759     1.023201573504     1.088245198911     1.007825032230
      Gh(H)          -2.458974125759     0.626078573504     1.706980198911     1.007825032230
         H            1.406245874241     2.205370573504    -1.413321801089     1.007825032230
         C            1.922685874241     0.190021573504    -0.677868801089    12.000000000000
         C            1.329307874241     1.552682573504    -0.525846801089    12.000000000000
         O            0.787320874241     1.973308573504     0.483013198911    15.994914619570
         H            2.954035874241     0.324025573504    -1.025091801089     1.007825032230
         C            1.861868874241    -0.675396426496     0.566755198911    12.000000000000
         H            2.376015874241    -0.170453426496     1.386696198911     1.007825032230
         H            0.819535874241    -0.784113426496     0.866530198911     1.007825032230
         H            1.381369874241    -0.280464426496    -1.505568801089     1.007825032230
         C            2.476389874241    -2.047346426496     0.320250198911    12.000000000000
         H            1.944979874241    -2.568218426496    -0.476884801089     1.007825032230
         H            3.522852874241    -1.961438426496     0.024051198911     1.007825032230
         H            2.432336874241    -2.667899426496     1.214560198911     1.007825032230

  Running in c1 symmetry.

  Rotational constants: A =      0.06561  B =      0.02872  C =      0.02357 [cm^-1]
  Rotational constants: A =   1966.84014  B =    861.05950  C =    706.73486 [MHz]
  Nuclear repulsion =  172.381926472238263

  Charge       = 0
  Multiplicity = 1
  Electrons    = 40
  Nalpha       = 20
  Nbeta        = 20

  ==> Algorithm <==

  SCF Algorithm Type is DF.
  DIIS enabled.
  MOM disabled.
  Fractional occupation disabled.
  Guess Type is SAD.
  Energy threshold   = 1.00e-08
  Density threshold  = 1.00e-08
  Integral threshold = 0.00e+00

  ==> Primary Basis <==

  Basis Set: JUN-CC-PVTZ
    Blend: JUN-CC-PVTZ
    Number of shells: 195
    Number of basis function: 533
    Number of Cartesian functions: 600
    Spherical Harmonics?: true
    Max angular momentum: 3

   => Loading Basis Set <=

    Name: (JUN-CC-PVTZ AUX)
    Role: JKFIT
    Keyword: DF_BASIS_SCF
    atoms 1-2, 11-12, 15, 19     entry C          line   152 file /home/r08543048/miniconda3/share/psi4/basis/jun-cc-pvtz-jkfit.gbs 
    atoms 3, 13                  entry O          line   272 file /home/r08543048/miniconda3/share/psi4/basis/jun-cc-pvtz-jkfit.gbs 
    atoms 4                      entry N          line   212 file /home/r08543048/miniconda3/share/psi4/basis/jun-cc-pvtz-jkfit.gbs 
    atoms 5-10, 14, 16-18, 20-22 entry H          line    70 file /home/r08543048/miniconda3/share/psi4/basis/jun-cc-pvtz-jkfit.gbs 

  ==> Pre-Iterations <==

   -------------------------------------------------------
    Irrep   Nso     Nmo     Nalpha   Nbeta   Ndocc  Nsocc
   -------------------------------------------------------
     A        533     533       0       0       0       0
   -------------------------------------------------------
    Total     533     533      20      20      20       0
   -------------------------------------------------------

  ==> Integral Setup <==

  ==> DiskDFJK: Density-Fitted J/K Matrices <==

    J tasked:                  Yes
    K tasked:                  Yes
    wK tasked:                  No
    OpenMP threads:              1
    Integrals threads:           1
    Memory [MiB]:            15735
    Algorithm:                Core
    Integral Cache:           LOAD
    Schwarz Cutoff:          1E-12
    Fitting Condition:       1E-10

   => Auxiliary Basis Set <=

  Basis Set: (JUN-CC-PVTZ AUX)
    Blend: JUN-CC-PVTZ-JKFIT
    Number of shells: 391
    Number of basis function: 1245
    Number of Cartesian functions: 1499
    Spherical Harmonics?: true
    Max angular momentum: 4

  Minimum eigenvalue in the overlap matrix is 3.2894928498E-05.
  Using Symmetric Orthogonalization.

  SCF Guess: Superposition of Atomic Densities via on-the-fly atomic UHF.

  ==> Iterations <==

                           Total Energy        Delta E     RMS |[F,P]|

   @DF-RHF iter SAD:  -230.24987519157816   -2.30250e+02   0.00000e+00 
   @DF-RHF iter   1:  -230.86084875539092   -6.10974e-01   1.15712e-03 DIIS
   @DF-RHF iter   2:  -231.01296568921333   -1.52117e-01   7.10619e-04 DIIS
   @DF-RHF iter   3:  -231.06735802997943   -5.43923e-02   1.40505e-04 DIIS
   @DF-RHF iter   4:  -231.07081353085195   -3.45550e-03   6.00692e-05 DIIS
   @DF-RHF iter   5:  -231.07147463182076   -6.61101e-04   1.04863e-05 DIIS
   @DF-RHF iter   6:  -231.07151456848192   -3.99367e-05   4.33652e-06 DIIS
   @DF-RHF iter   7:  -231.07152088636980   -6.31789e-06   1.91423e-06 DIIS
   @DF-RHF iter   8:  -231.07152222940258   -1.34303e-06   6.29913e-07 DIIS
   @DF-RHF iter   9:  -231.07152241327111   -1.83869e-07   1.16443e-07 DIIS
   @DF-RHF iter  10:  -231.07152241922344   -5.95233e-09   3.02217e-08 DIIS
   @DF-RHF iter  11:  -231.07152241948049   -2.57046e-10   8.76547e-09 DIIS
  Energy and wave function converged.


  ==> Post-Iterations <==

    Orbital Energies [Eh]
    ---------------------

    Doubly Occupied:                                                      

       1A    -20.556528     2A    -11.332125     3A    -11.242520  
       4A    -11.226407     5A    -11.218884     6A     -1.384853  
       7A     -1.085615     8A     -0.979904     9A     -0.849680  
      10A     -0.770326    11A     -0.673194    12A     -0.653554  
      13A     -0.632672    14A     -0.570577    15A     -0.568748  
      16A     -0.513203    17A     -0.501491    18A     -0.491826  
      19A     -0.481744    20A     -0.421095  

    Virtual:                                                              

      21A      0.033322    22A      0.044246    23A      0.049533  
      24A      0.058401    25A      0.066388    26A      0.072085  
      27A      0.074759    28A      0.077065    29A      0.089044  
      30A      0.096959    31A      0.101932    32A      0.106705  
      33A      0.114341    34A      0.121366    35A      0.126314  
      36A      0.132128    37A      0.135999    38A      0.142343  
      39A      0.144465    40A      0.162176    41A      0.163885  
      42A      0.174339    43A      0.179227    44A      0.182131  
      45A      0.186106    46A      0.192113    47A      0.204886  
      48A      0.209625    49A      0.214268    50A      0.219736  
      51A      0.221556    52A      0.240335    53A      0.249316  
      54A      0.254794    55A      0.263027    56A      0.273017  
      57A      0.279452    58A      0.282778    59A      0.287192  
      60A      0.300014    61A      0.302882    62A      0.310099  
      63A      0.312581    64A      0.317743    65A      0.325351  
      66A      0.333603    67A      0.339535    68A      0.345125  
      69A      0.354343    70A      0.359279    71A      0.367667  
      72A      0.372173    73A      0.381415    74A      0.391952  
      75A      0.394191    76A      0.396490    77A      0.403261  
      78A      0.408328    79A      0.412554    80A      0.416247  
      81A      0.421884    82A      0.430583    83A      0.432027  
      84A      0.443373    85A      0.449492    86A      0.458499  
      87A      0.466551    88A      0.478686    89A      0.483727  
      90A      0.495675    91A      0.500196    92A      0.509421  
      93A      0.514737    94A      0.518146    95A      0.528029  
      96A      0.532102    97A      0.546599    98A      0.552686  
      99A      0.562397   100A      0.566643   101A      0.572752  
     102A      0.579736   103A      0.594966   104A      0.604083  
     105A      0.605280   106A      0.615647   107A      0.640560  
     108A      0.645438   109A      0.657902   110A      0.661100  
     111A      0.667284   112A      0.678408   113A      0.689078  
     114A      0.699749   115A      0.710359   116A      0.719069  
     117A      0.730793   118A      0.741774   119A      0.748758  
     120A      0.757770   121A      0.765943   122A      0.774847  
     123A      0.791844   124A      0.800596   125A      0.814758  
     126A      0.826152   127A      0.831756   128A      0.834099  
     129A      0.841573   130A      0.843920   131A      0.850026  
     132A      0.860162   133A      0.864163   134A      0.877122  
     135A      0.883179   136A      0.894101   137A      0.896919  
     138A      0.902742   139A      0.913048   140A      0.926932  
     141A      0.933716   142A      0.939877   143A      0.968777  
     144A      0.978299   145A      0.987614   146A      1.000345  
     147A      1.005172   148A      1.016499   149A      1.034205  
     150A      1.041609   151A      1.049884   152A      1.062298  
     153A      1.074780   154A      1.084476   155A      1.090524  
     156A      1.107540   157A      1.115757   158A      1.131856  
     159A      1.137337   160A      1.153483   161A      1.160525  
     162A      1.169778   163A      1.181237   164A      1.192146  
     165A      1.209337   166A      1.217291   167A      1.221784  
     168A      1.246457   169A      1.259484   170A      1.261419  
     171A      1.270485   172A      1.279053   173A      1.292786  
     174A      1.297314   175A      1.311352   176A      1.333988  
     177A      1.339094   178A      1.353921   179A      1.358336  
     180A      1.374543   181A      1.386805   182A      1.403518  
     183A      1.410165   184A      1.413513   185A      1.421555  
     186A      1.437589   187A      1.445801   188A      1.450131  
     189A      1.467209   190A      1.474552   191A      1.478053  
     192A      1.488652   193A      1.503841   194A      1.516598  
     195A      1.518370   196A      1.541666   197A      1.545030  
     198A      1.558101   199A      1.564273   200A      1.578651  
     201A      1.587224   202A      1.594270   203A      1.601430  
     204A      1.610908   205A      1.617512   206A      1.627348  
     207A      1.634357   208A      1.646005   209A      1.669859  
     210A      1.676326   211A      1.687824   212A      1.696624  
     213A      1.712350   214A      1.726826   215A      1.735357  
     216A      1.755945   217A      1.772177   218A      1.779726  
     219A      1.794116   220A      1.810504   221A      1.833141  
     222A      1.841971   223A      1.860167   224A      1.871564  
     225A      1.882203   226A      1.898236   227A      1.909673  
     228A      1.919212   229A      1.928797   230A      1.931082  
     231A      1.953606   232A      1.977316   233A      1.982886  
     234A      2.017103   235A      2.028313   236A      2.034259  
     237A      2.063113   238A      2.093913   239A      2.110381  
     240A      2.163538   241A      2.204584   242A      2.265264  
     243A      2.303956   244A      2.352634   245A      2.367584  
     246A      2.390701   247A      2.413368   248A      2.430824  
     249A      2.452405   250A      2.496008   251A      2.511449  
     252A      2.591603   253A      2.597397   254A      2.617424  
     255A      2.650361   256A      2.699470   257A      2.717797  
     258A      2.759197   259A      2.764675   260A      2.768637  
     261A      2.790802   262A      2.828080   263A      2.845717  
     264A      2.858472   265A      2.872081   266A      2.881148  
     267A      2.905201   268A      2.936332   269A      2.948249  
     270A      2.955241   271A      2.959617   272A      2.977700  
     273A      2.996300   274A      3.020265   275A      3.055836  
     276A      3.075566   277A      3.082018   278A      3.097420  
     279A      3.122990   280A      3.132868   281A      3.138602  
     282A      3.150312   283A      3.161604   284A      3.184220  
     285A      3.225492   286A      3.231274   287A      3.277823  
     288A      3.292867   289A      3.310566   290A      3.326061  
     291A      3.345837   292A      3.348796   293A      3.360804  
     294A      3.380953   295A      3.406798   296A      3.430361  
     297A      3.438560   298A      3.459199   299A      3.466787  
     300A      3.468960   301A      3.486390   302A      3.497759  
     303A      3.517137   304A      3.525860   305A      3.537950  
     306A      3.547900   307A      3.564718   308A      3.580351  
     309A      3.584021   310A      3.591815   311A      3.593924  
     312A      3.620111   313A      3.624224   314A      3.635137  
     315A      3.641513   316A      3.652179   317A      3.669772  
     318A      3.684378   319A      3.697698   320A      3.723557  
     321A      3.754096   322A      3.762700   323A      3.774224  
     324A      3.792428   325A      3.799615   326A      3.846013  
     327A      3.854210   328A      3.865194   329A      3.877873  
     330A      3.880441   331A      3.892206   332A      3.908895  
     333A      3.921421   334A      3.937397   335A      3.942567  
     336A      3.952954   337A      3.956441   338A      3.966497  
     339A      3.994555   340A      4.015301   341A      4.019512  
     342A      4.038991   343A      4.046837   344A      4.073752  
     345A      4.099032   346A      4.111909   347A      4.142958  
     348A      4.160668   349A      4.187807   350A      4.200040  
     351A      4.213675   352A      4.233293   353A      4.257159  
     354A      4.259990   355A      4.270734   356A      4.279149  
     357A      4.293412   358A      4.307831   359A      4.315693  
     360A      4.324945   361A      4.335609   362A      4.343023  
     363A      4.354849   364A      4.366019   365A      4.376330  
     366A      4.395485   367A      4.401977   368A      4.410505  
     369A      4.442975   370A      4.446067   371A      4.484486  
     372A      4.500756   373A      4.505318   374A      4.519016  
     375A      4.526653   376A      4.538549   377A      4.552886  
     378A      4.554480   379A      4.585519   380A      4.588041  
     381A      4.611831   382A      4.625927   383A      4.628873  
     384A      4.643291   385A      4.652959   386A      4.676105  
     387A      4.691021   388A      4.699757   389A      4.730784  
     390A      4.743725   391A      4.744195   392A      4.762551  
     393A      4.767240   394A      4.776676   395A      4.785772  
     396A      4.812544   397A      4.818226   398A      4.822865  
     399A      4.847234   400A      4.851245   401A      4.861657  
     402A      4.867108   403A      4.891700   404A      4.895853  
     405A      4.907531   406A      4.920841   407A      4.922237  
     408A      4.946889   409A      4.960610   410A      4.980919  
     411A      5.008375   412A      5.013866   413A      5.028152  
     414A      5.052792   415A      5.065213   416A      5.077350  
     417A      5.098156   418A      5.110415   419A      5.117416  
     420A      5.139100   421A      5.145786   422A      5.157597  
     423A      5.170764   424A      5.182318   425A      5.191062  
     426A      5.236622   427A      5.264717   428A      5.274221  
     429A      5.294425   430A      5.310308   431A      5.321294  
     432A      5.357059   433A      5.375633   434A      5.407972  
     435A      5.420879   436A      5.427125   437A      5.451784  
     438A      5.517328   439A      5.582419   440A      5.595361  
     441A      5.626595   442A      5.658900   443A      5.660605  
     444A      5.675533   445A      5.684923   446A      5.704930  
     447A      5.757814   448A      5.763391   449A      5.792802  
     450A      5.806331   451A      5.841844   452A      5.856712  
     453A      5.895023   454A      5.908929   455A      5.917726  
     456A      5.940997   457A      5.973868   458A      5.981855  
     459A      5.990610   460A      6.046780   461A      6.079293  
     462A      6.123855   463A      6.126675   464A      6.161970  
     465A      6.204593   466A      6.223771   467A      6.261693  
     468A      6.307112   469A      6.320831   470A      6.351926  
     471A      6.453784   472A      6.464388   473A      6.484396  
     474A      6.507497   475A      6.518198   476A      6.533038  
     477A      6.556411   478A      6.577758   479A      6.606454  
     480A      6.634219   481A      6.715000   482A      6.754901  
     483A      6.811951   484A      6.881160   485A      6.964172  
     486A      6.983911   487A      7.082805   488A      7.259658  
     489A      7.296066   490A      7.309642   491A      7.346822  
     492A      7.380120   493A      7.446364   494A      7.471516  
     495A      7.519936   496A      7.543933   497A      7.568646  
     498A      7.646645   499A      7.746946   500A      7.750483  
     501A      7.827420   502A      7.842899   503A      7.874279  
     504A      7.899557   505A      8.063413   506A      8.293209  
     507A      8.459822   508A      8.809890   509A      9.118480  
     510A      9.135872   511A      9.163713   512A      9.515988  
     513A      9.840956   514A      9.849204   515A      9.956046  
     516A      9.962614   517A     10.175571   518A     10.561595  
     519A     10.958799   520A     11.434934   521A     11.621600  
     522A     11.706813   523A     11.994665   524A     12.671406  
     525A     13.848885   526A     14.045884   527A     14.304980  
     528A     14.496670   529A     14.606675   530A     43.044302  
     531A     46.186356   532A     55.689305   533A     60.984214  

    Final Occupation by Irrep:
              A 
    DOCC [    20 ]

  @DF-RHF Final Energy:  -231.07152241948049

   => Energetics <=

    Nuclear Repulsion Energy =            172.3819264722382627
    One-Electron Energy =                -654.5969965629222997
    Two-Electron Energy =                 251.1435476712035495
    Total Energy =                       -231.0715224194804875

Computation Completed


Properties will be evaluated at   0.000000,   0.000000,   0.000000 [a0]

Properties computed using the SCF density matrix

  Nuclear Dipole Moment: [e a0]
     X:   129.7816      Y:     7.5647      Z:     1.9555

  Electronic Dipole Moment: [e a0]
     X:  -129.2004      Y:    -8.2155      Z:    -2.8314

  Dipole Moment: [e a0]
     X:     0.5812      Y:    -0.6509      Z:    -0.8759     Total:     1.2363

  Dipole Moment: [D]
     X:     1.4772      Y:    -1.6544      Z:    -2.2262     Total:     3.1425


*** tstop() called on r282 at Sat Sep 11 00:57:16 2021
Module time:
	user time   =      49.99 seconds =       0.83 minutes
	system time =       0.81 seconds =       0.01 minutes
	total time  =         51 seconds =       0.85 minutes
Total time:
	user time   =     198.23 seconds =       3.30 minutes
	system time =       3.45 seconds =       0.06 minutes
	total time  =        202 seconds =       3.37 minutes
  Constructing Basis Sets for SAPT...

   => Loading Basis Set <=

    Name: (JUN-CC-PVTZ AUX)
    Role: RIFIT
    Keyword: DF_BASIS_SAPT
    atoms 1-2, 11-12, 15, 19     entry C          line   132 file /home/r08543048/miniconda3/share/psi4/basis/jun-cc-pvtz-ri.gbs 
    atoms 3, 13                  entry O          line   244 file /home/r08543048/miniconda3/share/psi4/basis/jun-cc-pvtz-ri.gbs 
    atoms 4                      entry N          line   188 file /home/r08543048/miniconda3/share/psi4/basis/jun-cc-pvtz-ri.gbs 
    atoms 5-10, 14, 16-18, 20-22 entry H          line    30 file /home/r08543048/miniconda3/share/psi4/basis/jun-cc-pvtz-ri.gbs 


  //>>>>>>>>>>>>>>>>>>>>>>>>>>>>>>>>>>>//
  //               SAPT0               //
  //<<<<<<<<<<<<<<<<<<<<<<<<<<<<<<<<<<<//


*** tstart() called on r282
*** at Sat Sep 11 00:57:16 2021

        SAPT0  
    Ed Hohenstein
     6 June 2009

      Orbital Information
  --------------------------
    NSO        =       533
    NMO        =       533
    NRI        =      1263
    NOCC A     =        16
    NOCC B     =        20
    FOCC A     =         0
    FOCC B     =         0
    NVIR A     =       517
    NVIR B     =       513

    Elst10,r            =    -0.018606706271 [Eh]
    Exch10              =     0.017026921427 [Eh]
    Exch10 (S^2)        =     0.016924618768 [Eh]

    Iter     Energy [mEh]          dE [mEh]         Residual      Time [s]
       1      -2.92778550       2.927785496       8.793503990             2
       2      -3.55451224       0.626726747       4.562178831             3
       3      -3.65764430       0.103132055       1.375124942             4
       4      -3.63393997      -0.023704332       0.582608422             5
       5      -3.62880134      -0.005138626       0.204653568             6
       6      -3.63135824       0.002556902       0.079910331             7
       7      -3.63214399       0.000785744       0.019682678             9
       8      -3.63186614      -0.000277848       0.004591264            10
       9      -3.63184824      -0.000017893       0.001206290            11
      10      -3.63186009       0.000011847       0.000454989            12
      11      -3.63186155       0.000001463       0.000175955            13
      12      -3.63185966      -0.000001890       0.000064885            14
      13      -3.63185994       0.000000274       0.000019013            16
      14      -3.63186008       0.000000140       0.000005153            17
      15      -3.63186006      -0.000000018       0.000001458            18
      16      -3.63186005      -0.000000010       0.000000358            19

    CHF Iterations converged


    Iter     Energy [mEh]          dE [mEh]         Residual      Time [s]
       1      -4.11272993       4.112729932      18.322918485             2
       2      -4.32021423       0.207484303       7.143965233             3
       3      -4.83709177       0.516877534       2.492230879             4
       4      -4.87011469       0.033022926       1.011574146             6
       5      -4.83376386      -0.036350834       0.301056141             7
       6      -4.83656438       0.002800517       0.105437931             9
       7      -4.83867869       0.002114309       0.035633756            10
       8      -4.83833194      -0.000346742       0.022615751            11
       9      -4.83812127      -0.000210678       0.008095991            13
      10      -4.83823352       0.000112249       0.002582391            15
      11      -4.83824590       0.000012382       0.000621773            16
      12      -4.83823863      -0.000007271       0.000169630            17
      13      -4.83823833      -0.000000294       0.000043842            19
      14      -4.83823872       0.000000384       0.000013932            20
      15      -4.83823877       0.000000051       0.000003868            22
      16      -4.83823873      -0.000000041       0.000001002            23
      17      -4.83823873       0.000000004       0.000000332            24

    CHF Iterations converged

    Ind20,r (A<-B)      =    -0.003631860050 [Eh]
    Ind20,r (B<-A)      =    -0.004838238730 [Eh]
    Ind20,r             =    -0.008470098780 [Eh]
    Exch-Ind20,r (A<-B) =     0.002726880332 [Eh]
    Exch-Ind20,r (B<-A) =     0.002086489291 [Eh]
    Exch-Ind20,r        =     0.004813369623 [Eh]
    Disp20              =    -0.011830301771 [Eh]
    Disp20 (SS)         =    -0.005915150885 [Eh]
    Disp20 (OS)         =    -0.005915150885 [Eh]
    Exch-Disp20         =     0.001587104220 [Eh]
    Exch-Disp20 (SS)    =     0.000991278542 [Eh]
    Exch-Disp20 (OS)    =     0.000595825678 [Eh]

    SAPT Results 
  --------------------------------------------------------------------------------------------------------
    Electrostatics                -18.60670627 [mEh]     -11.67588446 [kcal/mol]     -48.85190059 [kJ/mol]
      Elst10,r                    -18.60670627 [mEh]     -11.67588446 [kcal/mol]     -48.85190059 [kJ/mol]

    Exchange                       17.02692143 [mEh]      10.68455450 [kcal/mol]      44.70417605 [kJ/mol]
      Exch10                       17.02692143 [mEh]      10.68455450 [kcal/mol]      44.70417605 [kJ/mol]
      Exch10(S^2)                  16.92461877 [mEh]      10.62035862 [kcal/mol]      44.43558045 [kJ/mol]

    Induction                      -5.72905716 [mEh]      -3.59503764 [kcal/mol]     -15.04163749 [kJ/mol]
      Ind20,r                      -8.47009878 [mEh]      -5.31506723 [kcal/mol]     -22.23824128 [kJ/mol]
      Exch-Ind20,r                  4.81336962 [mEh]       3.02043504 [kcal/mol]      12.63750021 [kJ/mol]
      delta HF,r (2)               -2.07232800 [mEh]      -1.30040545 [kcal/mol]      -5.44089641 [kJ/mol]

    Dispersion                    -10.24319755 [mEh]      -6.42770350 [kcal/mol]     -26.89351146 [kJ/mol]
      Disp20                      -11.83030177 [mEh]      -7.42362644 [kcal/mol]     -31.06045302 [kJ/mol]
      Exch-Disp20                   1.58710422 [mEh]       0.99592293 [kcal/mol]       4.16694156 [kJ/mol]
      Disp20 (SS)                  -5.91515089 [mEh]      -3.71181322 [kcal/mol]     -15.53022651 [kJ/mol]
      Disp20 (OS)                  -5.91515089 [mEh]      -3.71181322 [kcal/mol]     -15.53022651 [kJ/mol]
      Exch-Disp20 (SS)              0.99127854 [mEh]       0.62203668 [kcal/mol]       2.60260145 [kJ/mol]
      Exch-Disp20 (OS)              0.59582568 [mEh]       0.37388626 [kcal/mol]       1.56434010 [kJ/mol]

  Total HF                         -7.30884200 [mEh]      -4.58636760 [kcal/mol]     -19.18936203 [kJ/mol]
  Total SAPT0                     -17.55203955 [mEh]     -11.01407110 [kcal/mol]     -46.08287349 [kJ/mol]

  Special recipe for scaled SAPT0 (see Manual):
    Electrostatics sSAPT0         -18.60670627 [mEh]     -11.67588446 [kcal/mol]     -48.85190059 [kJ/mol]
    Exchange sSAPT0                17.02692143 [mEh]      10.68455450 [kcal/mol]      44.70417605 [kJ/mol]
    Induction sSAPT0               -5.64124372 [mEh]      -3.53993388 [kcal/mol]     -14.81108334 [kJ/mol]
    Dispersion sSAPT0             -10.21424297 [mEh]      -6.40953423 [kcal/mol]     -26.81749123 [kJ/mol]
  Total sSAPT0                    -17.43527153 [mEh]     -10.94079807 [kcal/mol]     -45.77629911 [kJ/mol]
  --------------------------------------------------------------------------------------------------------

*** tstop() called on r282 at Sat Sep 11 01:00:03 2021
Module time:
	user time   =     142.68 seconds =       2.38 minutes
	system time =      24.22 seconds =       0.40 minutes
	total time  =        167 seconds =       2.78 minutes
Total time:
	user time   =     341.06 seconds =       5.68 minutes
	system time =      27.67 seconds =       0.46 minutes
	total time  =        369 seconds =       6.15 minutes

    Psi4 stopped on: Saturday, 11 September 2021 01:00AM
    Psi4 wall time for execution: 0:06:09.43

*** Psi4 exiting successfully. Buy a developer a beer!
