
    -----------------------------------------------------------------------
          Psi4: An Open-Source Ab Initio Electronic Structure Package
                               Psi4 1.3.2 release

                         Git: Rev {HEAD} ecbda83 


    R. M. Parrish, L. A. Burns, D. G. A. Smith, A. C. Simmonett,
    A. E. DePrince III, E. G. Hohenstein, U. Bozkaya, A. Yu. Sokolov,
    R. Di Remigio, R. M. Richard, J. F. Gonthier, A. M. James,
    H. R. McAlexander, A. Kumar, M. Saitow, X. Wang, B. P. Pritchard,
    P. Verma, H. F. Schaefer III, K. Patkowski, R. A. King, E. F. Valeev,
    F. A. Evangelista, J. M. Turney, T. D. Crawford, and C. D. Sherrill,
    J. Chem. Theory Comput. 13(7) pp 3185--3197 (2017).
    (doi: 10.1021/acs.jctc.7b00174)


                         Additional Contributions by
    P. Kraus, H. Kruse, M. H. Lechner, M. C. Schieber, R. A. Shaw,
    A. Alenaizan, R. Galvelis, Z. L. Glick, S. Lehtola, and J. P. Misiewicz

    -----------------------------------------------------------------------


    Psi4 started on: Saturday, 11 September 2021 01:05AM

    Process ID: 57411
    Host:       r282
    PSIDATADIR: /home/r08543048/miniconda3/share/psi4
    Memory:     500.0 MiB
    Threads:    1
    
  ==> Input File <==

--------------------------------------------------------------------------
# Any line starting with the # character is a comment line
#! Sample  computation

memory 22 gb

molecule Dimer {
0 1
 C 3.078565   -0.082785    0.164354
 C 1.600713   -0.412538    0.084865
 O 0.889453   -0.015192   -0.835211
 N 1.117056   -1.179260    1.095375
 H 0.171028   -1.532769    1.029475
 H 1.735088   -1.554645    1.790766
 C 3.391373    1.266779   -0.463903
 H 2.900337    2.070320    0.083306
 H 4.463972    1.453423   -0.459841
 H 3.031750    1.294188   -1.489478
 H 3.412658   -0.121341    1.202486
 H 3.606796   -0.877199   -0.369065



    
    
    
 --
0 1
 H  -2.102771   -1.849108   -1.738561
 C  -2.230402    0.122390   -0.755761
 C  -1.960769   -1.347175   -0.765110
 O  -1.608848   -2.002253    0.202006
 H  -3.234426    0.268972   -1.171353
 C  -2.085060    0.790041    0.598814
 H  -2.764752    0.319182    1.311515
 H  -1.073381    0.618657    0.966549
 H  -1.534391    0.557929   -1.480571
 C  -2.359380    2.286063    0.513153
 H  -1.660728    2.765480   -0.173358
 H  -3.370131    2.480156    0.151283
 H  -2.255523    2.764483    1.486385






units angstrom

no_reorient
symmetry c1
}

set globals{
  basis jun-cc-pvtz
}

energy('sapt0')


--------------------------------------------------------------------------

  Memory set to  20.489 GiB by Python driver.

  //>>>>>>>>>>>>>>>>>>>>>>>>>>>>>>>>>>>//
  //              Dimer HF             //
  //<<<<<<<<<<<<<<<<<<<<<<<<<<<<<<<<<<<//


*** tstart() called on r282
*** at Sat Sep 11 01:05:12 2021

   => Loading Basis Set <=

    Name: JUN-CC-PVTZ
    Role: ORBITAL
    Keyword: BASIS
    atoms 1-2, 7, 14-15, 18, 22       entry C          line   217 file /home/r08543048/miniconda3/share/psi4/basis/jun-cc-pvtz.gbs 
    atoms 3, 16                       entry O          line   305 file /home/r08543048/miniconda3/share/psi4/basis/jun-cc-pvtz.gbs 
    atoms 4                           entry N          line   261 file /home/r08543048/miniconda3/share/psi4/basis/jun-cc-pvtz.gbs 
    atoms 5-6, 8-13, 17, 19-21, 23-25 entry H          line    36 file /home/r08543048/miniconda3/share/psi4/basis/jun-cc-pvtz.gbs 


         ---------------------------------------------------------
                                   SCF
               by Justin Turney, Rob Parrish, Andy Simmonett
                          and Daniel G. A. Smith
                              RHF Reference
                        1 Threads,  20980 MiB Core
         ---------------------------------------------------------

  ==> Geometry <==

    Molecular point group: c1
    Full point group: C1

    Geometry (in Angstrom), charge = 0, multiplicity = 1:

       Center              X                  Y                   Z               Mass       
    ------------   -----------------  -----------------  -----------------  -----------------
         C            3.087579285518    -0.023634465318     0.172100134956    12.000000000000
         C            1.609727285518    -0.353387465318     0.092611134956    12.000000000000
         O            0.898467285518     0.043958534682    -0.827464865044    15.994914619570
         N            1.126070285518    -1.120109465318     1.103121134956    14.003074004430
         H            0.180042285518    -1.473618465318     1.037221134956     1.007825032230
         H            1.744102285518    -1.495494465318     1.798512134956     1.007825032230
         C            3.400387285518     1.325929534682    -0.456156865044    12.000000000000
         H            2.909351285518     2.129470534682     0.091052134956     1.007825032230
         H            4.472986285518     1.512573534682    -0.452094865044     1.007825032230
         H            3.040764285518     1.353338534682    -1.481731865044     1.007825032230
         H            3.421672285518    -0.062190465318     1.210232134956     1.007825032230
         H            3.615810285518    -0.818048465318    -0.361318865044     1.007825032230
         H           -2.093756714482    -1.789957465318    -1.730814865044     1.007825032230
         C           -2.221387714482     0.181540534682    -0.748014865044    12.000000000000
         C           -1.951754714482    -1.288024465318    -0.757363865044    12.000000000000
         O           -1.599833714482    -1.943102465318     0.209752134956    15.994914619570
         H           -3.225411714482     0.328122534682    -1.163606865044     1.007825032230
         C           -2.076045714482     0.849191534682     0.606560134956    12.000000000000
         H           -2.755737714482     0.378332534682     1.319261134956     1.007825032230
         H           -1.064366714482     0.677807534682     0.974295134956     1.007825032230
         H           -1.525376714482     0.617079534682    -1.472824865044     1.007825032230
         C           -2.350365714482     2.345213534682     0.520899134956    12.000000000000
         H           -1.651713714482     2.824630534682    -0.165611865044     1.007825032230
         H           -3.361116714482     2.539306534682     0.159029134956     1.007825032230
         H           -2.246508714482     2.823633534682     1.494131134956     1.007825032230

  Running in c1 symmetry.

  Rotational constants: A =      0.05455  B =      0.02209  C =      0.01820 [cm^-1]
  Rotational constants: A =   1635.44544  B =    662.20162  C =    545.50617 [MHz]
  Nuclear repulsion =  545.182903516320380

  Charge       = 0
  Multiplicity = 1
  Electrons    = 80
  Nalpha       = 40
  Nbeta        = 40

  ==> Algorithm <==

  SCF Algorithm Type is DF.
  DIIS enabled.
  MOM disabled.
  Fractional occupation disabled.
  Guess Type is SAD.
  Energy threshold   = 1.00e-08
  Density threshold  = 1.00e-08
  Integral threshold = 0.00e+00

  ==> Primary Basis <==

  Basis Set: JUN-CC-PVTZ
    Blend: JUN-CC-PVTZ
    Number of shells: 220
    Number of basis function: 600
    Number of Cartesian functions: 675
    Spherical Harmonics?: true
    Max angular momentum: 3

   => Loading Basis Set <=

    Name: (JUN-CC-PVTZ AUX)
    Role: JKFIT
    Keyword: DF_BASIS_SCF
    atoms 1-2, 7, 14-15, 18, 22       entry C          line   152 file /home/r08543048/miniconda3/share/psi4/basis/jun-cc-pvtz-jkfit.gbs 
    atoms 3, 16                       entry O          line   272 file /home/r08543048/miniconda3/share/psi4/basis/jun-cc-pvtz-jkfit.gbs 
    atoms 4                           entry N          line   212 file /home/r08543048/miniconda3/share/psi4/basis/jun-cc-pvtz-jkfit.gbs 
    atoms 5-6, 8-13, 17, 19-21, 23-25 entry H          line    70 file /home/r08543048/miniconda3/share/psi4/basis/jun-cc-pvtz-jkfit.gbs 

  ==> Pre-Iterations <==

   -------------------------------------------------------
    Irrep   Nso     Nmo     Nalpha   Nbeta   Ndocc  Nsocc
   -------------------------------------------------------
     A        600     600       0       0       0       0
   -------------------------------------------------------
    Total     600     600      40      40      40       0
   -------------------------------------------------------

  ==> Integral Setup <==

  ==> DiskDFJK: Density-Fitted J/K Matrices <==

    J tasked:                  Yes
    K tasked:                  Yes
    wK tasked:                  No
    OpenMP threads:              1
    Integrals threads:           1
    Memory [MiB]:            15735
    Algorithm:                Core
    Integral Cache:           SAVE
    Schwarz Cutoff:          1E-12
    Fitting Condition:       1E-10

   => Auxiliary Basis Set <=

  Basis Set: (JUN-CC-PVTZ AUX)
    Blend: JUN-CC-PVTZ-JKFIT
    Number of shells: 440
    Number of basis function: 1400
    Number of Cartesian functions: 1685
    Spherical Harmonics?: true
    Max angular momentum: 4

  Minimum eigenvalue in the overlap matrix is 3.1208501662E-05.
  Using Symmetric Orthogonalization.

  SCF Guess: Superposition of Atomic Densities via on-the-fly atomic UHF.

  ==> Iterations <==

                           Total Energy        Delta E     RMS |[F,P]|

   @DF-RHF iter SAD:  -476.71666424056650   -4.76717e+02   0.00000e+00 
   @DF-RHF iter   1:  -477.77875094221417   -1.06209e+00   1.46835e-03 DIIS
   @DF-RHF iter   2:  -478.08845266576867   -3.09702e-01   8.25512e-04 DIIS
   @DF-RHF iter   3:  -478.18101780230410   -9.25651e-02   1.64143e-04 DIIS
   @DF-RHF iter   4:  -478.18691661959792   -5.89882e-03   7.17886e-05 DIIS
   @DF-RHF iter   5:  -478.18803303289644   -1.11641e-03   1.19467e-05 DIIS
   @DF-RHF iter   6:  -478.18809924641107   -6.62135e-05   4.74223e-06 DIIS
   @DF-RHF iter   7:  -478.18810816805802   -8.92165e-06   1.97292e-06 DIIS
   @DF-RHF iter   8:  -478.18811012187177   -1.95381e-06   7.89714e-07 DIIS
   @DF-RHF iter   9:  -478.18811047448804   -3.52616e-07   2.30365e-07 DIIS
   @DF-RHF iter  10:  -478.18811049894151   -2.44535e-08   8.15990e-08 DIIS
   @DF-RHF iter  11:  -478.18811050145848   -2.51697e-09   2.83608e-08 DIIS
   @DF-RHF iter  12:  -478.18811050168426   -2.25782e-10   1.22009e-08 DIIS
   @DF-RHF iter  13:  -478.18811050173355   -4.92832e-11   4.07838e-09 DIIS
  Energy and wave function converged.


  ==> Post-Iterations <==

    Orbital Energies [Eh]
    ---------------------

    Doubly Occupied:                                                      

       1A    -20.550799     2A    -20.512346     3A    -15.571877  
       4A    -11.346464     5A    -11.330051     6A    -11.238472  
       7A    -11.225832     8A    -11.215638     9A    -11.213193  
      10A    -11.207672    11A     -1.384642    12A     -1.371177  
      13A     -1.202910    14A     -1.071987    15A     -1.050013  
      16A     -0.968052    17A     -0.890482    18A     -0.839932  
      19A     -0.778011    20A     -0.762051    21A     -0.713487  
      22A     -0.673244    23A     -0.667003    24A     -0.639494  
      25A     -0.631199    26A     -0.624869    27A     -0.595772  
      28A     -0.561496    29A     -0.557924    30A     -0.553392  
      31A     -0.522556    32A     -0.513470    33A     -0.502953  
      34A     -0.499297    35A     -0.491602    36A     -0.478726  
      37A     -0.468674    38A     -0.420121    39A     -0.415986  
      40A     -0.406994  

    Virtual:                                                              

      41A      0.044920    42A      0.050135    43A      0.054407  
      44A      0.058025    45A      0.067099    46A      0.074661  
      47A      0.076672    48A      0.083004    49A      0.091029  
      50A      0.099034    51A      0.101953    52A      0.105754  
      53A      0.110329    54A      0.113525    55A      0.124769  
      56A      0.130350    57A      0.132080    58A      0.138564  
      59A      0.142346    60A      0.149436    61A      0.159789  
      62A      0.166691    63A      0.174077    64A      0.178636  
      65A      0.185304    66A      0.188613    67A      0.195408  
      68A      0.196247    69A      0.201835    70A      0.209901  
      71A      0.212734    72A      0.220252    73A      0.232457  
      74A      0.246666    75A      0.254768    76A      0.259884  
      77A      0.264700    78A      0.276086    79A      0.283872  
      80A      0.285701    81A      0.288871    82A      0.294700  
      83A      0.296087    84A      0.302671    85A      0.307365  
      86A      0.314334    87A      0.320208    88A      0.320839  
      89A      0.325057    90A      0.331373    91A      0.332406  
      92A      0.335997    93A      0.340584    94A      0.343636  
      95A      0.349699    96A      0.357651    97A      0.363807  
      98A      0.370830    99A      0.371888   100A      0.377629  
     101A      0.380941   102A      0.397412   103A      0.401750  
     104A      0.406439   105A      0.411703   106A      0.418490  
     107A      0.422539   108A      0.430810   109A      0.436739  
     110A      0.439355   111A      0.443210   112A      0.455492  
     113A      0.462993   114A      0.467351   115A      0.479116  
     116A      0.488199   117A      0.494455   118A      0.503138  
     119A      0.506418   120A      0.510176   121A      0.518644  
     122A      0.524501   123A      0.535089   124A      0.548074  
     125A      0.548951   126A      0.550770   127A      0.558681  
     128A      0.568038   129A      0.570403   130A      0.578400  
     131A      0.582176   132A      0.590575   133A      0.592685  
     134A      0.600297   135A      0.612606   136A      0.618246  
     137A      0.630712   138A      0.641618   139A      0.646542  
     140A      0.651549   141A      0.658316   142A      0.670620  
     143A      0.675926   144A      0.688823   145A      0.695429  
     146A      0.699377   147A      0.713336   148A      0.720595  
     149A      0.729108   150A      0.732893   151A      0.743380  
     152A      0.750882   153A      0.757582   154A      0.763360  
     155A      0.767310   156A      0.782164   157A      0.787053  
     158A      0.790952   159A      0.797680   160A      0.811145  
     161A      0.813661   162A      0.826968   163A      0.832747  
     164A      0.838048   165A      0.842138   166A      0.848737  
     167A      0.852746   168A      0.856568   169A      0.871821  
     170A      0.880606   171A      0.890371   172A      0.891962  
     173A      0.900141   174A      0.907636   175A      0.913846  
     176A      0.918495   177A      0.922089   178A      0.926897  
     179A      0.939970   180A      0.954415   181A      0.970188  
     182A      0.977622   183A      0.984980   184A      0.992780  
     185A      1.007519   186A      1.013851   187A      1.019423  
     188A      1.025352   189A      1.040557   190A      1.055281  
     191A      1.058936   192A      1.071074   193A      1.077933  
     194A      1.096643   195A      1.107484   196A      1.118150  
     197A      1.123144   198A      1.137993   199A      1.142430  
     200A      1.151502   201A      1.171358   202A      1.178286  
     203A      1.182636   204A      1.198489   205A      1.206908  
     206A      1.217569   207A      1.218846   208A      1.232269  
     209A      1.245267   210A      1.264033   211A      1.277638  
     212A      1.296896   213A      1.303926   214A      1.314735  
     215A      1.321544   216A      1.329725   217A      1.345841  
     218A      1.355987   219A      1.358424   220A      1.363985  
     221A      1.369049   222A      1.377535   223A      1.386707  
     224A      1.394012   225A      1.401932   226A      1.410399  
     227A      1.423621   228A      1.429906   229A      1.438806  
     230A      1.439644   231A      1.446512   232A      1.461339  
     233A      1.468850   234A      1.476395   235A      1.477718  
     236A      1.489037   237A      1.494844   238A      1.498065  
     239A      1.515608   240A      1.529485   241A      1.536546  
     242A      1.547681   243A      1.555206   244A      1.565462  
     245A      1.570565   246A      1.575839   247A      1.589867  
     248A      1.594379   249A      1.602923   250A      1.608761  
     251A      1.619528   252A      1.624685   253A      1.634304  
     254A      1.642738   255A      1.652639   256A      1.658521  
     257A      1.674428   258A      1.680538   259A      1.694976  
     260A      1.701602   261A      1.722112   262A      1.737974  
     263A      1.747809   264A      1.758031   265A      1.765780  
     266A      1.780161   267A      1.799285   268A      1.805624  
     269A      1.818372   270A      1.822012   271A      1.842251  
     272A      1.856583   273A      1.871881   274A      1.884985  
     275A      1.897773   276A      1.916020   277A      1.926237  
     278A      1.936536   279A      1.942836   280A      1.953820  
     281A      1.968857   282A      1.987106   283A      1.998038  
     284A      2.006333   285A      2.042263   286A      2.067055  
     287A      2.077594   288A      2.109125   289A      2.162984  
     290A      2.206138   291A      2.252427   292A      2.286064  
     293A      2.305987   294A      2.347785   295A      2.416340  
     296A      2.429604   297A      2.474894   298A      2.496343  
     299A      2.519769   300A      2.555420   301A      2.596783  
     302A      2.632833   303A      2.690464   304A      2.711851  
     305A      2.759086   306A      2.765594   307A      2.786035  
     308A      2.791126   309A      2.834698   310A      2.839301  
     311A      2.851592   312A      2.859648   313A      2.875140  
     314A      2.892738   315A      2.902550   316A      2.910617  
     317A      2.914562   318A      2.933162   319A      2.952590  
     320A      2.975403   321A      2.981059   322A      3.005951  
     323A      3.006379   324A      3.010536   325A      3.030235  
     326A      3.053913   327A      3.062248   328A      3.074949  
     329A      3.091464   330A      3.114220   331A      3.124909  
     332A      3.131952   333A      3.139322   334A      3.148650  
     335A      3.156212   336A      3.158900   337A      3.165954  
     338A      3.177002   339A      3.196533   340A      3.219683  
     341A      3.230456   342A      3.245989   343A      3.262757  
     344A      3.282024   345A      3.291496   346A      3.312007  
     347A      3.320573   348A      3.328232   349A      3.338620  
     350A      3.342494   351A      3.360827   352A      3.371040  
     353A      3.377703   354A      3.385834   355A      3.399779  
     356A      3.410118   357A      3.421241   358A      3.430441  
     359A      3.441436   360A      3.449767   361A      3.455032  
     362A      3.463069   363A      3.467962   364A      3.474017  
     365A      3.482502   366A      3.487739   367A      3.498134  
     368A      3.503580   369A      3.507075   370A      3.522426  
     371A      3.525169   372A      3.531490   373A      3.539952  
     374A      3.547226   375A      3.557492   376A      3.569577  
     377A      3.573641   378A      3.581254   379A      3.592677  
     380A      3.603558   381A      3.609694   382A      3.617353  
     383A      3.626857   384A      3.634126   385A      3.639256  
     386A      3.649331   387A      3.677427   388A      3.693760  
     389A      3.704003   390A      3.713995   391A      3.721174  
     392A      3.744235   393A      3.754081   394A      3.764891  
     395A      3.773247   396A      3.789373   397A      3.797416  
     398A      3.810210   399A      3.823476   400A      3.825913  
     401A      3.849402   402A      3.857479   403A      3.866609  
     404A      3.871697   405A      3.882687   406A      3.897068  
     407A      3.904777   408A      3.920923   409A      3.927379  
     410A      3.942571   411A      3.955157   412A      3.965125  
     413A      3.969408   414A      3.983265   415A      4.003674  
     416A      4.012081   417A      4.026557   418A      4.036182  
     419A      4.051099   420A      4.060427   421A      4.092053  
     422A      4.097136   423A      4.117876   424A      4.133299  
     425A      4.159879   426A      4.187027   427A      4.199533  
     428A      4.202190   429A      4.215272   430A      4.225097  
     431A      4.227815   432A      4.248657   433A      4.258790  
     434A      4.269078   435A      4.275003   436A      4.286615  
     437A      4.296200   438A      4.301510   439A      4.309324  
     440A      4.325960   441A      4.334348   442A      4.343178  
     443A      4.351988   444A      4.363467   445A      4.381779  
     446A      4.388095   447A      4.394283   448A      4.409973  
     449A      4.416137   450A      4.434006   451A      4.441547  
     452A      4.454059   453A      4.454714   454A      4.459201  
     455A      4.460977   456A      4.477223   457A      4.490012  
     458A      4.502560   459A      4.511358   460A      4.523606  
     461A      4.526631   462A      4.543809   463A      4.552517  
     464A      4.566818   465A      4.593438   466A      4.610770  
     467A      4.612445   468A      4.619082   469A      4.632805  
     470A      4.648482   471A      4.653862   472A      4.670275  
     473A      4.687100   474A      4.695214   475A      4.709594  
     476A      4.718211   477A      4.724277   478A      4.748497  
     479A      4.765186   480A      4.777713   481A      4.810986  
     482A      4.833901   483A      4.840430   484A      4.866603  
     485A      4.882162   486A      4.886462   487A      4.897749  
     488A      4.904091   489A      4.929534   490A      4.936668  
     491A      4.958591   492A      5.003471   493A      5.022252  
     494A      5.029398   495A      5.035517   496A      5.083909  
     497A      5.111386   498A      5.120706   499A      5.126977  
     500A      5.160819   501A      5.167934   502A      5.178209  
     503A      5.210496   504A      5.227287   505A      5.251301  
     506A      5.269694   507A      5.280315   508A      5.285213  
     509A      5.297834   510A      5.304779   511A      5.307544  
     512A      5.324526   513A      5.333667   514A      5.350397  
     515A      5.355270   516A      5.380332   517A      5.391835  
     518A      5.419314   519A      5.424683   520A      5.436385  
     521A      5.446363   522A      5.449047   523A      5.477111  
     524A      5.523447   525A      5.560732   526A      5.594394  
     527A      5.605517   528A      5.619735   529A      5.650388  
     530A      5.657548   531A      5.678934   532A      5.687800  
     533A      5.706345   534A      5.725531   535A      5.738953  
     536A      5.743870   537A      5.759606   538A      5.770600  
     539A      5.777951   540A      5.787598   541A      5.805569  
     542A      5.817883   543A      5.853848   544A      5.863165  
     545A      5.871896   546A      5.900589   547A      5.913143  
     548A      5.926449   549A      5.952111   550A      5.954650  
     551A      5.987158   552A      6.001297   553A      6.027808  
     554A      6.051503   555A      6.087184   556A      6.114335  
     557A      6.137223   558A      6.159657   559A      6.214755  
     560A      6.245061   561A      6.274329   562A      6.322030  
     563A      6.350485   564A      6.498204   565A      6.505789  
     566A      6.518105   567A      6.530055   568A      6.534437  
     569A      6.578571   570A      6.593303   571A      6.631312  
     572A      6.725130   573A      6.811032   574A      6.815183  
     575A      6.843859   576A      6.998204   577A      7.239856  
     578A      7.271290   579A      7.300743   580A      7.315100  
     581A      7.348436   582A      7.404858   583A      7.469783  
     584A      7.514321   585A      7.537964   586A      7.555249  
     587A      7.653659   588A      7.743198   589A      7.828837  
     590A      7.847417   591A     12.423090   592A     12.681890  
     593A     13.957569   594A     14.060066   595A     14.229757  
     596A     14.325414   597A     14.520717   598A     14.596481  
     599A     14.657397   600A     15.913159  

    Final Occupation by Irrep:
              A 
    DOCC [    40 ]

  @DF-RHF Final Energy:  -478.18811050173355

   => Energetics <=

    Nuclear Repulsion Energy =            545.1829035163203798
    One-Electron Energy =               -1733.4023073067262430
    Two-Electron Energy =                 710.0312932886724866
    Total Energy =                       -478.1881105017334903

Computation Completed


Properties will be evaluated at   0.000000,   0.000000,   0.000000 [a0]

Properties computed using the SCF density matrix

  Nuclear Dipole Moment: [e a0]
     X:     1.3628      Y:     8.9423      Z:     1.1710

  Electronic Dipole Moment: [e a0]
     X:    -0.9087      Y:    -8.8200      Z:    -0.8856

  Dipole Moment: [e a0]
     X:     0.4541      Y:     0.1223      Z:     0.2855     Total:     0.5501

  Dipole Moment: [D]
     X:     1.1542      Y:     0.3107      Z:     0.7256     Total:     1.3983


*** tstop() called on r282 at Sat Sep 11 01:07:36 2021
Module time:
	user time   =     141.30 seconds =       2.35 minutes
	system time =       2.46 seconds =       0.04 minutes
	total time  =        144 seconds =       2.40 minutes
Total time:
	user time   =     141.30 seconds =       2.35 minutes
	system time =       2.46 seconds =       0.04 minutes
	total time  =        144 seconds =       2.40 minutes

  //>>>>>>>>>>>>>>>>>>>>>>>>>>>>>>>>>>>//
  //            Monomer A HF           //
  //<<<<<<<<<<<<<<<<<<<<<<<<<<<<<<<<<<<//


*** tstart() called on r282
*** at Sat Sep 11 01:07:36 2021

   => Loading Basis Set <=

    Name: JUN-CC-PVTZ
    Role: ORBITAL
    Keyword: BASIS
    atoms 1-2, 7, 14-15, 18, 22       entry C          line   217 file /home/r08543048/miniconda3/share/psi4/basis/jun-cc-pvtz.gbs 
    atoms 3, 16                       entry O          line   305 file /home/r08543048/miniconda3/share/psi4/basis/jun-cc-pvtz.gbs 
    atoms 4                           entry N          line   261 file /home/r08543048/miniconda3/share/psi4/basis/jun-cc-pvtz.gbs 
    atoms 5-6, 8-13, 17, 19-21, 23-25 entry H          line    36 file /home/r08543048/miniconda3/share/psi4/basis/jun-cc-pvtz.gbs 


         ---------------------------------------------------------
                                   SCF
               by Justin Turney, Rob Parrish, Andy Simmonett
                          and Daniel G. A. Smith
                              RHF Reference
                        1 Threads,  20980 MiB Core
         ---------------------------------------------------------

  ==> Geometry <==

    Molecular point group: c1
    Full point group: C1

    Geometry (in Angstrom), charge = 0, multiplicity = 1:

       Center              X                  Y                   Z               Mass       
    ------------   -----------------  -----------------  -----------------  -----------------
         C            3.087579285518    -0.023634465318     0.172100134956    12.000000000000
         C            1.609727285518    -0.353387465318     0.092611134956    12.000000000000
         O            0.898467285518     0.043958534682    -0.827464865044    15.994914619570
         N            1.126070285518    -1.120109465318     1.103121134956    14.003074004430
         H            0.180042285518    -1.473618465318     1.037221134956     1.007825032230
         H            1.744102285518    -1.495494465318     1.798512134956     1.007825032230
         C            3.400387285518     1.325929534682    -0.456156865044    12.000000000000
         H            2.909351285518     2.129470534682     0.091052134956     1.007825032230
         H            4.472986285518     1.512573534682    -0.452094865044     1.007825032230
         H            3.040764285518     1.353338534682    -1.481731865044     1.007825032230
         H            3.421672285518    -0.062190465318     1.210232134956     1.007825032230
         H            3.615810285518    -0.818048465318    -0.361318865044     1.007825032230
      Gh(H)          -2.093756714482    -1.789957465318    -1.730814865044     1.007825032230
      Gh(C)          -2.221387714482     0.181540534682    -0.748014865044    12.000000000000
      Gh(C)          -1.951754714482    -1.288024465318    -0.757363865044    12.000000000000
      Gh(O)          -1.599833714482    -1.943102465318     0.209752134956    15.994914619570
      Gh(H)          -3.225411714482     0.328122534682    -1.163606865044     1.007825032230
      Gh(C)          -2.076045714482     0.849191534682     0.606560134956    12.000000000000
      Gh(H)          -2.755737714482     0.378332534682     1.319261134956     1.007825032230
      Gh(H)          -1.064366714482     0.677807534682     0.974295134956     1.007825032230
      Gh(H)          -1.525376714482     0.617079534682    -1.472824865044     1.007825032230
      Gh(C)          -2.350365714482     2.345213534682     0.520899134956    12.000000000000
      Gh(H)          -1.651713714482     2.824630534682    -0.165611865044     1.007825032230
      Gh(H)          -3.361116714482     2.539306534682     0.159029134956     1.007825032230
      Gh(H)          -2.246508714482     2.823633534682     1.494131134956     1.007825032230

  Running in c1 symmetry.

  Rotational constants: A =      0.05455  B =      0.02209  C =      0.01820 [cm^-1]
  Rotational constants: A =   1635.44544  B =    662.20162  C =    545.50617 [MHz]
  Nuclear repulsion =  179.118257288420523

  Charge       = 0
  Multiplicity = 1
  Electrons    = 40
  Nalpha       = 20
  Nbeta        = 20

  ==> Algorithm <==

  SCF Algorithm Type is DF.
  DIIS enabled.
  MOM disabled.
  Fractional occupation disabled.
  Guess Type is SAD.
  Energy threshold   = 1.00e-08
  Density threshold  = 1.00e-08
  Integral threshold = 0.00e+00

  ==> Primary Basis <==

  Basis Set: JUN-CC-PVTZ
    Blend: JUN-CC-PVTZ
    Number of shells: 220
    Number of basis function: 600
    Number of Cartesian functions: 675
    Spherical Harmonics?: true
    Max angular momentum: 3

   => Loading Basis Set <=

    Name: (JUN-CC-PVTZ AUX)
    Role: JKFIT
    Keyword: DF_BASIS_SCF
    atoms 1-2, 7, 14-15, 18, 22       entry C          line   152 file /home/r08543048/miniconda3/share/psi4/basis/jun-cc-pvtz-jkfit.gbs 
    atoms 3, 16                       entry O          line   272 file /home/r08543048/miniconda3/share/psi4/basis/jun-cc-pvtz-jkfit.gbs 
    atoms 4                           entry N          line   212 file /home/r08543048/miniconda3/share/psi4/basis/jun-cc-pvtz-jkfit.gbs 
    atoms 5-6, 8-13, 17, 19-21, 23-25 entry H          line    70 file /home/r08543048/miniconda3/share/psi4/basis/jun-cc-pvtz-jkfit.gbs 

  ==> Pre-Iterations <==

   -------------------------------------------------------
    Irrep   Nso     Nmo     Nalpha   Nbeta   Ndocc  Nsocc
   -------------------------------------------------------
     A        600     600       0       0       0       0
   -------------------------------------------------------
    Total     600     600      20      20      20       0
   -------------------------------------------------------

  ==> Integral Setup <==

  ==> DiskDFJK: Density-Fitted J/K Matrices <==

    J tasked:                  Yes
    K tasked:                  Yes
    wK tasked:                  No
    OpenMP threads:              1
    Integrals threads:           1
    Memory [MiB]:            15735
    Algorithm:                Core
    Integral Cache:           LOAD
    Schwarz Cutoff:          1E-12
    Fitting Condition:       1E-10

   => Auxiliary Basis Set <=

  Basis Set: (JUN-CC-PVTZ AUX)
    Blend: JUN-CC-PVTZ-JKFIT
    Number of shells: 440
    Number of basis function: 1400
    Number of Cartesian functions: 1685
    Spherical Harmonics?: true
    Max angular momentum: 4

  Minimum eigenvalue in the overlap matrix is 3.1208501662E-05.
  Using Symmetric Orthogonalization.

  SCF Guess: Superposition of Atomic Densities via on-the-fly atomic UHF.

  ==> Iterations <==

                           Total Energy        Delta E     RMS |[F,P]|

   @DF-RHF iter SAD:  -246.29944241350850   -2.46299e+02   0.00000e+00 
   @DF-RHF iter   1:  -246.89391897221350   -5.94477e-01   1.09086e-03 DIIS
   @DF-RHF iter   2:  -247.05521809862211   -1.61299e-01   6.29924e-04 DIIS
   @DF-RHF iter   3:  -247.10586467931955   -5.06466e-02   1.22805e-04 DIIS
   @DF-RHF iter   4:  -247.10887913670723   -3.01446e-03   5.37149e-05 DIIS
   @DF-RHF iter   5:  -247.10952021772039   -6.41081e-04   8.56373e-06 DIIS
   @DF-RHF iter   6:  -247.10955766885820   -3.74511e-05   3.46253e-06 DIIS
   @DF-RHF iter   7:  -247.10956253765283   -4.86879e-06   1.50761e-06 DIIS
   @DF-RHF iter   8:  -247.10956363105615   -1.09340e-06   5.88606e-07 DIIS
   @DF-RHF iter   9:  -247.10956382533504   -1.94279e-07   1.33253e-07 DIIS
   @DF-RHF iter  10:  -247.10956383584843   -1.05134e-08   3.25843e-08 DIIS
   @DF-RHF iter  11:  -247.10956383629161   -4.43180e-10   9.40776e-09 DIIS
  Energy and wave function converged.


  ==> Post-Iterations <==

    Orbital Energies [Eh]
    ---------------------

    Doubly Occupied:                                                      

       1A    -20.514842     2A    -15.587759     3A    -11.349879  
       4A    -11.241778     5A    -11.216128     6A     -1.372436  
       7A     -1.213733     8A     -1.052449     9A     -0.893536  
      10A     -0.785092    11A     -0.722497    12A     -0.672665  
      13A     -0.632352    14A     -0.597425    15A     -0.559423  
      16A     -0.524410    17A     -0.514831    18A     -0.494743  
      19A     -0.421160    20A     -0.414256  

    Virtual:                                                              

      21A      0.033166    22A      0.043535    23A      0.046076  
      24A      0.056101    25A      0.062408    26A      0.069830  
      27A      0.075573    28A      0.079864    29A      0.086056  
      30A      0.096181    31A      0.101811    32A      0.103644  
      33A      0.111283    34A      0.115365    35A      0.118914  
      36A      0.122813    37A      0.129117    38A      0.136780  
      39A      0.137879    40A      0.142653    41A      0.150587  
      42A      0.160295    43A      0.165857    44A      0.168365  
      45A      0.175845    46A      0.180424    47A      0.186891  
      48A      0.188883    49A      0.194723    50A      0.197427  
      51A      0.206934    52A      0.215227    53A      0.219066  
      54A      0.234170    55A      0.237032    56A      0.255426  
      57A      0.258354    58A      0.266309    59A      0.273070  
      60A      0.277699    61A      0.281464    62A      0.292285  
      63A      0.297058    64A      0.305858    65A      0.314484  
      66A      0.315250    67A      0.316377    68A      0.324872  
      69A      0.326986    70A      0.330319    71A      0.334603  
      72A      0.336819    73A      0.341864    74A      0.347681  
      75A      0.356186    76A      0.361128    77A      0.364419  
      78A      0.368687    79A      0.371218    80A      0.379930  
      81A      0.390421    82A      0.397330    83A      0.405659  
      84A      0.414401    85A      0.415535    86A      0.420911  
      87A      0.426502    88A      0.431715    89A      0.447673  
      90A      0.454637    91A      0.460667    92A      0.470696  
      93A      0.476397    94A      0.478742    95A      0.483774  
      96A      0.488574    97A      0.496493    98A      0.504061  
      99A      0.509903   100A      0.520143   101A      0.523905  
     102A      0.532033   103A      0.538573   104A      0.547158  
     105A      0.554167   106A      0.559131   107A      0.568177  
     108A      0.575774   109A      0.589083   110A      0.591186  
     111A      0.593698   112A      0.600211   113A      0.605323  
     114A      0.614629   115A      0.621442   116A      0.626949  
     117A      0.632564   118A      0.639519   119A      0.645952  
     120A      0.654092   121A      0.665026   122A      0.667562  
     123A      0.672016   124A      0.675500   125A      0.693781  
     126A      0.695138   127A      0.703429   128A      0.710213  
     129A      0.716405   130A      0.729540   131A      0.730482  
     132A      0.742668   133A      0.744419   134A      0.752635  
     135A      0.765230   136A      0.774337   137A      0.785570  
     138A      0.790642   139A      0.799450   140A      0.808247  
     141A      0.815981   142A      0.819522   143A      0.828208  
     144A      0.845336   145A      0.854054   146A      0.883002  
     147A      0.883425   148A      0.895332   149A      0.901982  
     150A      0.922802   151A      0.929200   152A      0.936518  
     153A      0.937962   154A      0.955768   155A      0.959259  
     156A      0.966388   157A      0.980505   158A      1.002184  
     159A      1.008852   160A      1.026144   161A      1.043389  
     162A      1.046704   163A      1.049172   164A      1.072877  
     165A      1.086839   166A      1.093612   167A      1.100543  
     168A      1.105552   169A      1.115961   170A      1.120321  
     171A      1.137800   172A      1.147131   173A      1.155168  
     174A      1.165206   175A      1.172108   176A      1.177799  
     177A      1.189628   178A      1.200907   179A      1.211143  
     180A      1.223297   181A      1.225325   182A      1.236293  
     183A      1.252220   184A      1.264269   185A      1.274726  
     186A      1.276308   187A      1.286667   188A      1.303896  
     189A      1.310023   190A      1.313882   191A      1.325992  
     192A      1.334634   193A      1.338468   194A      1.345386  
     195A      1.352290   196A      1.361919   197A      1.369190  
     198A      1.377513   199A      1.380636   200A      1.389837  
     201A      1.398281   202A      1.409427   203A      1.416912  
     204A      1.423177   205A      1.428832   206A      1.431642  
     207A      1.442056   208A      1.447295   209A      1.463046  
     210A      1.468765   211A      1.475773   212A      1.481751  
     213A      1.492545   214A      1.496402   215A      1.515020  
     216A      1.517146   217A      1.531846   218A      1.541569  
     219A      1.548762   220A      1.556676   221A      1.560843  
     222A      1.571171   223A      1.583425   224A      1.590212  
     225A      1.599017   226A      1.603375   227A      1.613826  
     228A      1.624188   229A      1.627323   230A      1.639965  
     231A      1.650425   232A      1.652800   233A      1.657069  
     234A      1.661979   235A      1.674490   236A      1.683205  
     237A      1.696562   238A      1.714302   239A      1.721171  
     240A      1.728340   241A      1.745287   242A      1.773995  
     243A      1.778686   244A      1.796990   245A      1.815827  
     246A      1.825530   247A      1.841545   248A      1.857415  
     249A      1.875614   250A      1.895647   251A      1.913287  
     252A      1.920541   253A      1.927909   254A      1.958602  
     255A      1.970080   256A      1.978183   257A      1.984445  
     258A      1.994500   259A      2.006683   260A      2.011528  
     261A      2.019795   262A      2.049201   263A      2.073434  
     264A      2.100554   265A      2.145811   266A      2.168450  
     267A      2.188086   268A      2.190014   269A      2.207428  
     270A      2.235331   271A      2.241796   272A      2.283492  
     273A      2.305091   274A      2.320058   275A      2.352146  
     276A      2.356777   277A      2.417567   278A      2.420870  
     279A      2.451614   280A      2.473456   281A      2.483358  
     282A      2.486664   283A      2.526724   284A      2.584452  
     285A      2.615416   286A      2.648147   287A      2.657316  
     288A      2.685954   289A      2.712029   290A      2.719124  
     291A      2.745307   292A      2.774447   293A      2.819875  
     294A      2.831209   295A      2.860182   296A      2.872998  
     297A      2.876773   298A      2.904097   299A      2.908703  
     300A      2.926708   301A      2.945170   302A      2.958970  
     303A      2.994153   304A      3.005069   305A      3.017063  
     306A      3.064600   307A      3.075199   308A      3.121254  
     309A      3.135513   310A      3.150729   311A      3.170555  
     312A      3.201357   313A      3.217606   314A      3.239407  
     315A      3.258104   316A      3.270872   317A      3.289053  
     318A      3.347211   319A      3.350127   320A      3.375806  
     321A      3.394837   322A      3.406316   323A      3.435659  
     324A      3.452625   325A      3.468549   326A      3.473966  
     327A      3.491785   328A      3.501997   329A      3.518271  
     330A      3.524351   331A      3.531830   332A      3.541959  
     333A      3.549671   334A      3.563549   335A      3.573036  
     336A      3.581831   337A      3.590957   338A      3.606382  
     339A      3.609390   340A      3.618154   341A      3.630631  
     342A      3.641405   343A      3.647264   344A      3.655285  
     345A      3.668210   346A      3.673384   347A      3.691485  
     348A      3.698812   349A      3.729339   350A      3.745130  
     351A      3.784017   352A      3.797041   353A      3.803616  
     354A      3.811614   355A      3.815417   356A      3.836158  
     357A      3.838791   358A      3.852942   359A      3.860212  
     360A      3.870050   361A      3.874463   362A      3.883487  
     363A      3.891600   364A      3.907094   365A      3.916447  
     366A      3.925790   367A      3.929761   368A      3.939837  
     369A      3.955407   370A      3.970576   371A      3.981265  
     372A      3.982333   373A      3.999857   374A      4.021154  
     375A      4.027522   376A      4.033923   377A      4.066432  
     378A      4.074499   379A      4.086171   380A      4.096856  
     381A      4.118492   382A      4.121549   383A      4.153118  
     384A      4.179759   385A      4.190345   386A      4.204513  
     387A      4.219289   388A      4.221960   389A      4.242657  
     390A      4.244144   391A      4.265164   392A      4.271561  
     393A      4.286704   394A      4.296612   395A      4.311634  
     396A      4.329372   397A      4.335616   398A      4.347438  
     399A      4.365002   400A      4.376002   401A      4.398772  
     402A      4.409747   403A      4.426418   404A      4.429240  
     405A      4.441804   406A      4.450494   407A      4.457874  
     408A      4.468107   409A      4.473275   410A      4.483104  
     411A      4.496962   412A      4.506429   413A      4.518057  
     414A      4.522707   415A      4.543076   416A      4.548976  
     417A      4.559371   418A      4.580540   419A      4.587457  
     420A      4.595616   421A      4.603794   422A      4.609060  
     423A      4.622006   424A      4.626750   425A      4.646404  
     426A      4.650498   427A      4.665269   428A      4.669362  
     429A      4.679720   430A      4.699500   431A      4.710765  
     432A      4.712317   433A      4.725621   434A      4.730940  
     435A      4.749396   436A      4.754340   437A      4.763347  
     438A      4.777871   439A      4.791605   440A      4.797219  
     441A      4.807915   442A      4.812023   443A      4.832193  
     444A      4.841897   445A      4.862127   446A      4.871269  
     447A      4.882789   448A      4.887315   449A      4.890598  
     450A      4.904952   451A      4.911473   452A      4.919751  
     453A      4.928703   454A      4.941213   455A      4.943254  
     456A      4.954047   457A      4.972855   458A      4.983497  
     459A      4.994503   460A      5.003828   461A      5.012939  
     462A      5.026180   463A      5.042901   464A      5.057706  
     465A      5.066491   466A      5.081547   467A      5.106664  
     468A      5.129125   469A      5.143471   470A      5.150882  
     471A      5.166728   472A      5.181963   473A      5.206231  
     474A      5.223328   475A      5.248135   476A      5.255961  
     477A      5.266121   478A      5.277002   479A      5.283187  
     480A      5.300409   481A      5.304041   482A      5.345125  
     483A      5.357326   484A      5.363391   485A      5.367439  
     486A      5.408334   487A      5.431079   488A      5.439909  
     489A      5.452197   490A      5.472166   491A      5.490082  
     492A      5.516002   493A      5.556323   494A      5.590983  
     495A      5.609772   496A      5.644374   497A      5.656379  
     498A      5.665361   499A      5.678988   500A      5.692008  
     501A      5.724692   502A      5.740001   503A      5.745190  
     504A      5.756546   505A      5.783615   506A      5.798137  
     507A      5.835018   508A      5.835696   509A      5.857783  
     510A      5.870365   511A      5.885279   512A      5.905442  
     513A      5.928671   514A      5.945429   515A      6.011167  
     516A      6.021311   517A      6.033629   518A      6.051104  
     519A      6.073940   520A      6.080565   521A      6.103151  
     522A      6.174207   523A      6.183708   524A      6.207183  
     525A      6.233599   526A      6.252964   527A      6.266843  
     528A      6.308889   529A      6.345944   530A      6.366978  
     531A      6.402739   532A      6.448949   533A      6.483556  
     534A      6.491553   535A      6.503819   536A      6.505441  
     537A      6.519302   538A      6.536895   539A      6.546412  
     540A      6.633837   541A      6.671206   542A      6.678306  
     543A      6.687802   544A      6.715026   545A      6.807966  
     546A      6.814512   547A      6.843863   548A      6.951280  
     549A      7.003530   550A      7.048009   551A      7.057578  
     552A      7.240406   553A      7.334201   554A      7.339537  
     555A      7.360597   556A      7.405693   557A      7.483835  
     558A      7.506263   559A      7.536129   560A      7.562905  
     561A      7.586829   562A      7.672755   563A      7.687545  
     564A      7.701254   565A      7.718695   566A      7.810973  
     567A      7.826763   568A      7.843279   569A      7.857187  
     570A      7.895720   571A      7.942105   572A      8.129260  
     573A      8.242061   574A      8.281055   575A      8.415764  
     576A      8.526843   577A      8.695830   578A      9.474109  
     579A      9.549254   580A      9.695470   581A      9.798548  
     582A      9.848646   583A      9.869844   584A      9.955857  
     585A      9.995531   586A     10.095408   587A     11.015703  
     588A     11.715683   589A     11.996532   590A     12.456038  
     591A     13.772822   592A     13.968146   593A     14.233415  
     594A     14.614720   595A     15.894569   596A     44.159449  
     597A     44.671640   598A     45.572826   599A     45.942965  
     600A     60.809025  

    Final Occupation by Irrep:
              A 
    DOCC [    20 ]

  @DF-RHF Final Energy:  -247.10956383629161

   => Energetics <=

    Nuclear Repulsion Energy =            179.1182572884205229
    One-Electron Energy =                -690.8928481126700945
    Two-Electron Energy =                 264.6650269879579582
    Total Energy =                       -247.1095638362916134

Computation Completed


Properties will be evaluated at   0.000000,   0.000000,   0.000000 [a0]

Properties computed using the SCF density matrix

  Nuclear Dipole Moment: [e a0]
     X:   156.9250      Y:    -1.2276      Z:     3.3927

  Electronic Dipole Moment: [e a0]
     X:  -156.1329      Y:     0.5081      Z:    -2.1720

  Dipole Moment: [e a0]
     X:     0.7921      Y:    -0.7195      Z:     1.2206     Total:     1.6233

  Dipole Moment: [D]
     X:     2.0133      Y:    -1.8287      Z:     3.1026     Total:     4.1259


*** tstop() called on r282 at Sat Sep 11 01:08:52 2021
Module time:
	user time   =      75.14 seconds =       1.25 minutes
	system time =       1.10 seconds =       0.02 minutes
	total time  =         76 seconds =       1.27 minutes
Total time:
	user time   =     216.45 seconds =       3.61 minutes
	system time =       3.56 seconds =       0.06 minutes
	total time  =        220 seconds =       3.67 minutes

  //>>>>>>>>>>>>>>>>>>>>>>>>>>>>>>>>>>>//
  //            Monomer B HF           //
  //<<<<<<<<<<<<<<<<<<<<<<<<<<<<<<<<<<<//


*** tstart() called on r282
*** at Sat Sep 11 01:08:52 2021

   => Loading Basis Set <=

    Name: JUN-CC-PVTZ
    Role: ORBITAL
    Keyword: BASIS
    atoms 1-2, 7, 14-15, 18, 22       entry C          line   217 file /home/r08543048/miniconda3/share/psi4/basis/jun-cc-pvtz.gbs 
    atoms 3, 16                       entry O          line   305 file /home/r08543048/miniconda3/share/psi4/basis/jun-cc-pvtz.gbs 
    atoms 4                           entry N          line   261 file /home/r08543048/miniconda3/share/psi4/basis/jun-cc-pvtz.gbs 
    atoms 5-6, 8-13, 17, 19-21, 23-25 entry H          line    36 file /home/r08543048/miniconda3/share/psi4/basis/jun-cc-pvtz.gbs 


         ---------------------------------------------------------
                                   SCF
               by Justin Turney, Rob Parrish, Andy Simmonett
                          and Daniel G. A. Smith
                              RHF Reference
                        1 Threads,  20980 MiB Core
         ---------------------------------------------------------

  ==> Geometry <==

    Molecular point group: c1
    Full point group: C1

    Geometry (in Angstrom), charge = 0, multiplicity = 1:

       Center              X                  Y                   Z               Mass       
    ------------   -----------------  -----------------  -----------------  -----------------
      Gh(C)           3.087579285518    -0.023634465318     0.172100134956    12.000000000000
      Gh(C)           1.609727285518    -0.353387465318     0.092611134956    12.000000000000
      Gh(O)           0.898467285518     0.043958534682    -0.827464865044    15.994914619570
      Gh(N)           1.126070285518    -1.120109465318     1.103121134956    14.003074004430
      Gh(H)           0.180042285518    -1.473618465318     1.037221134956     1.007825032230
      Gh(H)           1.744102285518    -1.495494465318     1.798512134956     1.007825032230
      Gh(C)           3.400387285518     1.325929534682    -0.456156865044    12.000000000000
      Gh(H)           2.909351285518     2.129470534682     0.091052134956     1.007825032230
      Gh(H)           4.472986285518     1.512573534682    -0.452094865044     1.007825032230
      Gh(H)           3.040764285518     1.353338534682    -1.481731865044     1.007825032230
      Gh(H)           3.421672285518    -0.062190465318     1.210232134956     1.007825032230
      Gh(H)           3.615810285518    -0.818048465318    -0.361318865044     1.007825032230
         H           -2.093756714482    -1.789957465318    -1.730814865044     1.007825032230
         C           -2.221387714482     0.181540534682    -0.748014865044    12.000000000000
         C           -1.951754714482    -1.288024465318    -0.757363865044    12.000000000000
         O           -1.599833714482    -1.943102465318     0.209752134956    15.994914619570
         H           -3.225411714482     0.328122534682    -1.163606865044     1.007825032230
         C           -2.076045714482     0.849191534682     0.606560134956    12.000000000000
         H           -2.755737714482     0.378332534682     1.319261134956     1.007825032230
         H           -1.064366714482     0.677807534682     0.974295134956     1.007825032230
         H           -1.525376714482     0.617079534682    -1.472824865044     1.007825032230
         C           -2.350365714482     2.345213534682     0.520899134956    12.000000000000
         H           -1.651713714482     2.824630534682    -0.165611865044     1.007825032230
         H           -3.361116714482     2.539306534682     0.159029134956     1.007825032230
         H           -2.246508714482     2.823633534682     1.494131134956     1.007825032230

  Running in c1 symmetry.

  Rotational constants: A =      0.05455  B =      0.02209  C =      0.01820 [cm^-1]
  Rotational constants: A =   1635.44544  B =    662.20162  C =    545.50617 [MHz]
  Nuclear repulsion =  172.375112778509276

  Charge       = 0
  Multiplicity = 1
  Electrons    = 40
  Nalpha       = 20
  Nbeta        = 20

  ==> Algorithm <==

  SCF Algorithm Type is DF.
  DIIS enabled.
  MOM disabled.
  Fractional occupation disabled.
  Guess Type is SAD.
  Energy threshold   = 1.00e-08
  Density threshold  = 1.00e-08
  Integral threshold = 0.00e+00

  ==> Primary Basis <==

  Basis Set: JUN-CC-PVTZ
    Blend: JUN-CC-PVTZ
    Number of shells: 220
    Number of basis function: 600
    Number of Cartesian functions: 675
    Spherical Harmonics?: true
    Max angular momentum: 3

   => Loading Basis Set <=

    Name: (JUN-CC-PVTZ AUX)
    Role: JKFIT
    Keyword: DF_BASIS_SCF
    atoms 1-2, 7, 14-15, 18, 22       entry C          line   152 file /home/r08543048/miniconda3/share/psi4/basis/jun-cc-pvtz-jkfit.gbs 
    atoms 3, 16                       entry O          line   272 file /home/r08543048/miniconda3/share/psi4/basis/jun-cc-pvtz-jkfit.gbs 
    atoms 4                           entry N          line   212 file /home/r08543048/miniconda3/share/psi4/basis/jun-cc-pvtz-jkfit.gbs 
    atoms 5-6, 8-13, 17, 19-21, 23-25 entry H          line    70 file /home/r08543048/miniconda3/share/psi4/basis/jun-cc-pvtz-jkfit.gbs 

  ==> Pre-Iterations <==

   -------------------------------------------------------
    Irrep   Nso     Nmo     Nalpha   Nbeta   Ndocc  Nsocc
   -------------------------------------------------------
     A        600     600       0       0       0       0
   -------------------------------------------------------
    Total     600     600      20      20      20       0
   -------------------------------------------------------

  ==> Integral Setup <==

  ==> DiskDFJK: Density-Fitted J/K Matrices <==

    J tasked:                  Yes
    K tasked:                  Yes
    wK tasked:                  No
    OpenMP threads:              1
    Integrals threads:           1
    Memory [MiB]:            15735
    Algorithm:                Core
    Integral Cache:           LOAD
    Schwarz Cutoff:          1E-12
    Fitting Condition:       1E-10

   => Auxiliary Basis Set <=

  Basis Set: (JUN-CC-PVTZ AUX)
    Blend: JUN-CC-PVTZ-JKFIT
    Number of shells: 440
    Number of basis function: 1400
    Number of Cartesian functions: 1685
    Spherical Harmonics?: true
    Max angular momentum: 4

  Minimum eigenvalue in the overlap matrix is 3.1208501662E-05.
  Using Symmetric Orthogonalization.

  SCF Guess: Superposition of Atomic Densities via on-the-fly atomic UHF.

  ==> Iterations <==

                           Total Energy        Delta E     RMS |[F,P]|

   @DF-RHF iter SAD:  -230.24967806030980   -2.30250e+02   0.00000e+00 
   @DF-RHF iter   1:  -230.86087000171068   -6.11192e-01   1.02789e-03 DIIS
   @DF-RHF iter   2:  -231.01298304474949   -1.52113e-01   6.31242e-04 DIIS
   @DF-RHF iter   3:  -231.06737203159361   -5.43890e-02   1.24798e-04 DIIS
   @DF-RHF iter   4:  -231.07082701804129   -3.45499e-03   5.33565e-05 DIIS
   @DF-RHF iter   5:  -231.07148798871032   -6.60971e-04   9.31520e-06 DIIS
   @DF-RHF iter   6:  -231.07152792175694   -3.99330e-05   3.85183e-06 DIIS
   @DF-RHF iter   7:  -231.07153423800273   -6.31625e-06   1.70013e-06 DIIS
   @DF-RHF iter   8:  -231.07153558043566   -1.34243e-06   5.59391e-07 DIIS
   @DF-RHF iter   9:  -231.07153576417352   -1.83738e-07   1.03427e-07 DIIS
   @DF-RHF iter  10:  -231.07153577013099   -5.95747e-09   2.68463e-08 DIIS
   @DF-RHF iter  11:  -231.07153577038864   -2.57643e-10   7.79623e-09 DIIS
  Energy and wave function converged.


  ==> Post-Iterations <==

    Orbital Energies [Eh]
    ---------------------

    Doubly Occupied:                                                      

       1A    -20.556541     2A    -11.332137     3A    -11.242533  
       4A    -11.226420     5A    -11.218906     6A     -1.384903  
       7A     -1.085607     8A     -0.979886     9A     -0.849679  
      10A     -0.770322    11A     -0.673186    12A     -0.653528  
      13A     -0.632697    14A     -0.570522    15A     -0.568791  
      16A     -0.513218    17A     -0.501536    18A     -0.491843  
      19A     -0.481743    20A     -0.421072  

    Virtual:                                                              

      21A      0.030251    22A      0.044037    23A      0.048342  
      24A      0.053327    25A      0.064479    26A      0.065166  
      27A      0.071099    28A      0.075712    29A      0.086485  
      30A      0.092526    31A      0.095113    32A      0.102250  
      33A      0.103420    34A      0.109219    35A      0.117843  
      36A      0.123732    37A      0.125623    38A      0.132921  
      39A      0.134713    40A      0.144158    41A      0.147107  
      42A      0.157961    43A      0.158931    44A      0.167780  
      45A      0.173042    46A      0.180261    47A      0.182823  
      48A      0.189383    49A      0.195602    50A      0.196450  
      51A      0.212560    52A      0.214301    53A      0.218543  
      54A      0.221499    55A      0.231068    56A      0.243785  
      57A      0.245244    58A      0.257514    59A      0.268014  
      60A      0.272182    61A      0.281376    62A      0.285469  
      63A      0.291128    64A      0.296927    65A      0.304660  
      66A      0.311523    67A      0.313753    68A      0.318621  
      69A      0.322347    70A      0.331782    71A      0.336591  
      72A      0.341090    73A      0.345793    74A      0.347562  
      75A      0.356477    76A      0.363669    77A      0.366387  
      78A      0.377713    79A      0.383740    80A      0.388675  
      81A      0.391644    82A      0.397245    83A      0.400168  
      84A      0.406878    85A      0.412957    86A      0.414375  
      87A      0.419444    88A      0.429330    89A      0.431011  
      90A      0.438752    91A      0.442936    92A      0.447841  
      93A      0.457239    94A      0.469439    95A      0.471978  
      96A      0.477191    97A      0.485634    98A      0.497588  
      99A      0.504295   100A      0.507135   101A      0.518393  
     102A      0.523546   103A      0.528287   104A      0.532642  
     105A      0.537762   106A      0.541752   107A      0.550555  
     108A      0.561390   109A      0.566362   110A      0.567112  
     111A      0.577292   112A      0.582180   113A      0.594486  
     114A      0.605866   115A      0.611576   116A      0.616966  
     117A      0.626229   118A      0.632091   119A      0.644996  
     120A      0.660909   121A      0.663227   122A      0.670763  
     123A      0.677430   124A      0.687030   125A      0.688172  
     126A      0.700803   127A      0.703993   128A      0.712613  
     129A      0.727186   130A      0.739783   131A      0.744290  
     132A      0.749213   133A      0.770277   134A      0.775335  
     135A      0.779331   136A      0.782495   137A      0.802314  
     138A      0.804182   139A      0.810039   140A      0.823451  
     141A      0.835331   142A      0.838556   143A      0.844517  
     144A      0.850819   145A      0.851700   146A      0.863372  
     147A      0.874796   148A      0.883712   149A      0.884463  
     150A      0.892891   151A      0.909179   152A      0.914663  
     153A      0.919420   154A      0.937165   155A      0.945625  
     156A      0.954537   157A      0.958362   158A      0.983775  
     159A      0.989526   160A      0.991109   161A      1.015260  
     162A      1.027127   163A      1.033425   164A      1.034722  
     165A      1.047333   166A      1.056126   167A      1.065049  
     168A      1.071094   169A      1.079036   170A      1.083654  
     171A      1.115073   172A      1.128059   173A      1.134561  
     174A      1.149603   175A      1.154468   176A      1.155839  
     177A      1.170931   178A      1.177122   179A      1.187848  
     180A      1.199547   181A      1.207836   182A      1.215333  
     183A      1.233448   184A      1.242184   185A      1.247092  
     186A      1.250706   187A      1.263777   188A      1.269797  
     189A      1.286605   190A      1.290694   191A      1.298296  
     192A      1.304138   193A      1.306458   194A      1.321334  
     195A      1.336339   196A      1.344949   197A      1.351794  
     198A      1.360993   199A      1.370658   200A      1.377530  
     201A      1.386575   202A      1.396053   203A      1.407246  
     204A      1.419459   205A      1.430270   206A      1.432275  
     207A      1.450946   208A      1.456683   209A      1.463745  
     210A      1.472355   211A      1.481558   212A      1.498047  
     213A      1.508315   214A      1.513937   215A      1.517429  
     216A      1.527898   217A      1.543725   218A      1.555223  
     219A      1.560724   220A      1.565192   221A      1.571138  
     222A      1.573805   223A      1.599312   224A      1.600470  
     225A      1.603222   226A      1.614431   227A      1.618927  
     228A      1.628849   229A      1.632423   230A      1.636296  
     231A      1.647967   232A      1.662856   233A      1.675396  
     234A      1.687505   235A      1.690642   236A      1.704228  
     237A      1.707535   238A      1.726393   239A      1.742415  
     240A      1.749150   241A      1.755692   242A      1.773907  
     243A      1.792000   244A      1.797735   245A      1.807555  
     246A      1.817727   247A      1.838850   248A      1.859897  
     249A      1.868363   250A      1.871755   251A      1.885795  
     252A      1.904912   253A      1.912499   254A      1.927301  
     255A      1.933413   256A      1.947981   257A      1.962966  
     258A      1.975772   259A      1.999351   260A      2.012502  
     261A      2.035436   262A      2.041888   263A      2.056605  
     264A      2.080057   265A      2.101659   266A      2.138986  
     267A      2.160729   268A      2.185474   269A      2.213684  
     270A      2.244016   271A      2.300064   272A      2.307311  
     273A      2.333046   274A      2.369785   275A      2.393760  
     276A      2.415094   277A      2.419715   278A      2.441550  
     279A      2.467082   280A      2.503060   281A      2.528127  
     282A      2.535995   283A      2.555297   284A      2.599528  
     285A      2.640007   286A      2.655190   287A      2.675823  
     288A      2.719451   289A      2.743086   290A      2.762655  
     291A      2.774755   292A      2.797275   293A      2.812041  
     294A      2.844076   295A      2.855413   296A      2.871626  
     297A      2.886767   298A      2.890454   299A      2.909917  
     300A      2.951551   301A      2.953791   302A      2.978554  
     303A      2.981349   304A      2.989050   305A      3.004469  
     306A      3.042204   307A      3.064065   308A      3.082943  
     309A      3.101773   310A      3.111098   311A      3.126581  
     312A      3.138503   313A      3.147832   314A      3.157823  
     315A      3.169953   316A      3.188238   317A      3.236562  
     318A      3.243755   319A      3.278757   320A      3.297024  
     321A      3.313816   322A      3.327130   323A      3.348180  
     324A      3.354923   325A      3.381128   326A      3.383578  
     327A      3.409490   328A      3.433234   329A      3.442953  
     330A      3.460110   331A      3.469881   332A      3.472243  
     333A      3.486568   334A      3.499092   335A      3.515149  
     336A      3.525907   337A      3.537572   338A      3.543172  
     339A      3.555514   340A      3.564615   341A      3.580884  
     342A      3.588940   343A      3.592392   344A      3.613731  
     345A      3.622492   346A      3.625877   347A      3.635614  
     348A      3.645779   349A      3.652245   350A      3.662815  
     351A      3.686777   352A      3.694358   353A      3.709754  
     354A      3.744507   355A      3.753793   356A      3.764196  
     357A      3.773323   358A      3.782394   359A      3.798570  
     360A      3.806714   361A      3.809069   362A      3.823524  
     363A      3.838959   364A      3.861553   365A      3.870795  
     366A      3.877133   367A      3.888801   368A      3.896363  
     369A      3.909944   370A      3.925078   371A      3.927690  
     372A      3.942746   373A      3.947819   374A      3.955788  
     375A      3.962656   376A      3.969030   377A      4.007047  
     378A      4.019894   379A      4.038723   380A      4.047959  
     381A      4.076236   382A      4.092989   383A      4.096660  
     384A      4.101167   385A      4.121265   386A      4.142791  
     387A      4.154734   388A      4.183598   389A      4.192515  
     390A      4.206228   391A      4.215161   392A      4.232435  
     393A      4.236864   394A      4.260134   395A      4.267604  
     396A      4.283952   397A      4.306795   398A      4.310509  
     399A      4.314672   400A      4.327673   401A      4.340204  
     402A      4.351002   403A      4.358318   404A      4.378233  
     405A      4.393123   406A      4.406690   407A      4.412306  
     408A      4.442130   409A      4.447248   410A      4.447996  
     411A      4.456347   412A      4.478809   413A      4.488275  
     414A      4.499135   415A      4.509009   416A      4.520564  
     417A      4.529446   418A      4.539506   419A      4.559314  
     420A      4.561587   421A      4.576290   422A      4.593509  
     423A      4.606399   424A      4.616774   425A      4.629729  
     426A      4.638045   427A      4.646325   428A      4.656975  
     429A      4.677743   430A      4.686229   431A      4.701883  
     432A      4.708764   433A      4.719854   434A      4.734545  
     435A      4.748754   436A      4.752868   437A      4.764123  
     438A      4.772049   439A      4.796524   440A      4.808794  
     441A      4.825132   442A      4.826624   443A      4.832691  
     444A      4.842120   445A      4.850445   446A      4.862477  
     447A      4.864688   448A      4.874768   449A      4.883380  
     450A      4.895406   451A      4.902794   452A      4.911765  
     453A      4.918944   454A      4.927911   455A      4.934181  
     456A      4.959273   457A      4.962259   458A      4.972930  
     459A      4.992154   460A      5.002299   461A      5.009320  
     462A      5.019935   463A      5.024698   464A      5.030327  
     465A      5.064223   466A      5.072265   467A      5.083864  
     468A      5.101627   469A      5.102349   470A      5.120057  
     471A      5.124532   472A      5.151365   473A      5.156195  
     474A      5.170965   475A      5.195195   476A      5.205009  
     477A      5.232390   478A      5.265590   479A      5.274672  
     480A      5.295824   481A      5.308401   482A      5.311654  
     483A      5.323186   484A      5.356480   485A      5.359298  
     486A      5.376232   487A      5.406334   488A      5.410438  
     489A      5.428650   490A      5.443562   491A      5.478967  
     492A      5.507178   493A      5.576915   494A      5.591590  
     495A      5.602618   496A      5.609439   497A      5.635686  
     498A      5.667846   499A      5.676972   500A      5.702298  
     501A      5.708415   502A      5.744305   503A      5.758230  
     504A      5.763963   505A      5.799379   506A      5.811506  
     507A      5.843884   508A      5.852171   509A      5.869049  
     510A      5.896676   511A      5.910258   512A      5.929768  
     513A      5.943137   514A      5.965975   515A      5.990371  
     516A      6.002669   517A      6.043787   518A      6.104833  
     519A      6.116446   520A      6.124972   521A      6.152384  
     522A      6.222969   523A      6.257951   524A      6.293398  
     525A      6.300015   526A      6.322085   527A      6.322862  
     528A      6.365493   529A      6.422779   530A      6.438397  
     531A      6.474159   532A      6.492475   533A      6.509919  
     534A      6.519123   535A      6.539949   536A      6.555124  
     537A      6.574253   538A      6.586048   539A      6.618138  
     540A      6.630307   541A      6.738096   542A      6.804152  
     543A      6.812888   544A      6.877995   545A      6.968781  
     546A      6.970918   547A      6.989024   548A      7.108431  
     549A      7.262049   550A      7.296580   551A      7.311086  
     552A      7.338758   553A      7.347882   554A      7.429601  
     555A      7.466426   556A      7.510958   557A      7.541248  
     558A      7.571309   559A      7.635768   560A      7.652729  
     561A      7.667436   562A      7.748994   563A      7.756265  
     564A      7.818292   565A      7.836346   566A      7.873812  
     567A      7.955410   568A      7.989494   569A      8.058796  
     570A      8.299424   571A      8.419764   572A      8.472060  
     573A      8.843260   574A      9.130891   575A      9.165321  
     576A      9.205138   577A      9.557450   578A      9.629363  
     579A      9.852537   580A      9.936941   581A      9.982437  
     582A     10.026190   583A     10.191479   584A     10.568931  
     585A     10.959202   586A     11.454762   587A     11.658118  
     588A     11.726863   589A     12.045703   590A     12.675676  
     591A     13.852309   592A     14.056209   593A     14.314662  
     594A     14.504122   595A     14.618125   596A     43.273818  
     597A     44.862618   598A     45.716587   599A     55.832801  
     600A     61.195922  

    Final Occupation by Irrep:
              A 
    DOCC [    20 ]

  @DF-RHF Final Energy:  -231.07153577038864

   => Energetics <=

    Nuclear Repulsion Energy =            172.3751127785092763
    One-Electron Energy =                -654.5831472882016442
    Two-Electron Energy =                 251.1364987393037325
    Total Energy =                       -231.0715357703886355

Computation Completed


Properties will be evaluated at   0.000000,   0.000000,   0.000000 [a0]

Properties computed using the SCF density matrix

  Nuclear Dipole Moment: [e a0]
     X:  -155.5622      Y:    10.1699      Z:    -2.2216

  Electronic Dipole Moment: [e a0]
     X:   155.2110      Y:    -9.3001      Z:     1.4163

  Dipole Moment: [e a0]
     X:    -0.3513      Y:     0.8698      Z:    -0.8053     Total:     1.2363

  Dipole Moment: [D]
     X:    -0.8928      Y:     2.2108      Z:    -2.0469     Total:     3.1424


*** tstop() called on r282 at Sat Sep 11 01:10:05 2021
Module time:
	user time   =      72.43 seconds =       1.21 minutes
	system time =       1.08 seconds =       0.02 minutes
	total time  =         73 seconds =       1.22 minutes
Total time:
	user time   =     288.88 seconds =       4.81 minutes
	system time =       4.64 seconds =       0.08 minutes
	total time  =        293 seconds =       4.88 minutes
  Constructing Basis Sets for SAPT...

   => Loading Basis Set <=

    Name: (JUN-CC-PVTZ AUX)
    Role: RIFIT
    Keyword: DF_BASIS_SAPT
    atoms 1-2, 7, 14-15, 18, 22       entry C          line   132 file /home/r08543048/miniconda3/share/psi4/basis/jun-cc-pvtz-ri.gbs 
    atoms 3, 16                       entry O          line   244 file /home/r08543048/miniconda3/share/psi4/basis/jun-cc-pvtz-ri.gbs 
    atoms 4                           entry N          line   188 file /home/r08543048/miniconda3/share/psi4/basis/jun-cc-pvtz-ri.gbs 
    atoms 5-6, 8-13, 17, 19-21, 23-25 entry H          line    30 file /home/r08543048/miniconda3/share/psi4/basis/jun-cc-pvtz-ri.gbs 


  //>>>>>>>>>>>>>>>>>>>>>>>>>>>>>>>>>>>//
  //               SAPT0               //
  //<<<<<<<<<<<<<<<<<<<<<<<<<<<<<<<<<<<//


*** tstart() called on r282
*** at Sat Sep 11 01:10:06 2021

        SAPT0  
    Ed Hohenstein
     6 June 2009

      Orbital Information
  --------------------------
    NSO        =       600
    NMO        =       600
    NRI        =      1420
    NOCC A     =        20
    NOCC B     =        20
    FOCC A     =         0
    FOCC B     =         0
    NVIR A     =       580
    NVIR B     =       580

    Elst10,r            =    -0.018446958858 [Eh]
    Exch10              =     0.017083525591 [Eh]
    Exch10 (S^2)        =     0.016981845891 [Eh]

    Iter     Energy [mEh]          dE [mEh]         Residual      Time [s]
       1      -2.95162698       2.951626983       8.813651683             2
       2      -3.58263835       0.631011365       4.568052852             4
       3      -3.68665273       0.104014386       1.375836953             5
       4      -3.66338275      -0.023269985       0.582775487             7
       5      -3.65789955      -0.005483197       0.203396894             9
       6      -3.66045472       0.002555172       0.080227751            11
       7      -3.66125563       0.000800910       0.020357511            12
       8      -3.66098842      -0.000267211       0.005068345            14
       9      -3.66095802      -0.000030401       0.001304585            16
      10      -3.66097009       0.000012066       0.000478733            18
      11      -3.66097276       0.000002672       0.000169881            19
      12      -3.66097064      -0.000002118       0.000069336            21
      13      -3.66097095       0.000000310       0.000019845            23
      14      -3.66097108       0.000000125       0.000005494            25
      15      -3.66097106      -0.000000018       0.000001643            27
      16      -3.66097105      -0.000000010       0.000000442            28

    CHF Iterations converged


    Iter     Energy [mEh]          dE [mEh]         Residual      Time [s]
       1      -4.05154547       4.051545467      18.088901698             2
       2      -4.25691091       0.205365442       7.054657543             4
       3      -4.76161063       0.504699719       2.468508690             6
       4      -4.79432991       0.032719280       0.999966481             7
       5      -4.75850473      -0.035825182       0.298256333             9
       6      -4.76122638       0.002721654       0.104619499            11
       7      -4.76332227       0.002095889       0.035268213            13
       8      -4.76298291      -0.000339359       0.022224002            15
       9      -4.76277672      -0.000206192       0.008016532            16
      10      -4.76288710       0.000110380       0.002568137            18
      11      -4.76289934       0.000012247       0.000617031            20
      12      -4.76289216      -0.000007185       0.000168763            22
      13      -4.76289186      -0.000000297       0.000044049            23
      14      -4.76289225       0.000000383       0.000013857            25
      15      -4.76289230       0.000000050       0.000003814            27
      16      -4.76289226      -0.000000040       0.000000980            29

    CHF Iterations converged

    Ind20,r (A<-B)      =    -0.003660971047 [Eh]
    Ind20,r (B<-A)      =    -0.004762892256 [Eh]
    Ind20,r             =    -0.008423863303 [Eh]
    Exch-Ind20,r (A<-B) =     0.002752213216 [Eh]
    Exch-Ind20,r (B<-A) =     0.002083056228 [Eh]
    Exch-Ind20,r        =     0.004835269444 [Eh]
    Disp20              =    -0.012089727401 [Eh]
    Disp20 (SS)         =    -0.006044863701 [Eh]
    Disp20 (OS)         =    -0.006044863701 [Eh]
    Exch-Disp20         =     0.001606668819 [Eh]
    Exch-Disp20 (SS)    =     0.001003651954 [Eh]
    Exch-Disp20 (OS)    =     0.000603016865 [Eh]

    SAPT Results 
  --------------------------------------------------------------------------------------------------------
    Electrostatics                -18.44695886 [mEh]     -11.57564145 [kcal/mol]     -48.43248381 [kJ/mol]
      Elst10,r                    -18.44695886 [mEh]     -11.57564145 [kcal/mol]     -48.43248381 [kJ/mol]

    Exchange                       17.08352559 [mEh]      10.72007415 [kcal/mol]      44.85279026 [kJ/mol]
      Exch10                       17.08352559 [mEh]      10.72007415 [kcal/mol]      44.85279026 [kJ/mol]
      Exch10(S^2)                  16.98184589 [mEh]      10.65626918 [kcal/mol]      44.58583024 [kJ/mol]

    Induction                      -5.64746179 [mEh]      -3.54383577 [kcal/mol]     -14.82740888 [kJ/mol]
      Ind20,r                      -8.42386330 [mEh]      -5.28605403 [kcal/mol]     -22.11685006 [kJ/mol]
      Exch-Ind20,r                  4.83526944 [mEh]       3.03417738 [kcal/mol]      12.69499818 [kJ/mol]
      delta HF,r (2)               -2.05886793 [mEh]      -1.29195913 [kcal/mol]      -5.40555700 [kJ/mol]

    Dispersion                    -10.48305858 [mEh]      -6.57821857 [kcal/mol]     -27.52326652 [kJ/mol]
      Disp20                      -12.08972740 [mEh]      -7.58641848 [kcal/mol]     -31.74157492 [kJ/mol]
      Exch-Disp20                   1.60666882 [mEh]       1.00819990 [kcal/mol]       4.21830840 [kJ/mol]
      Disp20 (SS)                  -6.04486370 [mEh]      -3.79320924 [kcal/mol]     -15.87078746 [kJ/mol]
      Disp20 (OS)                  -6.04486370 [mEh]      -3.79320924 [kcal/mol]     -15.87078746 [kJ/mol]
      Exch-Disp20 (SS)              1.00365195 [mEh]       0.62980111 [kcal/mol]       2.63508784 [kJ/mol]
      Exch-Disp20 (OS)              0.60301686 [mEh]       0.37839880 [kcal/mol]       1.58322056 [kJ/mol]

  Total HF                         -7.01089505 [mEh]      -4.39940307 [kcal/mol]     -18.40710243 [kJ/mol]
  Total SAPT0                     -17.49395364 [mEh]     -10.97762164 [kcal/mol]     -45.93036894 [kJ/mol]

  Special recipe for scaled SAPT0 (see Manual):
    Electrostatics sSAPT0         -18.44695886 [mEh]     -11.57564145 [kcal/mol]     -48.43248381 [kJ/mol]
    Exchange sSAPT0                17.08352559 [mEh]      10.72007415 [kcal/mol]      44.85279026 [kJ/mol]
    Induction sSAPT0               -5.56008641 [mEh]      -3.48900690 [kcal/mol]     -14.59800486 [kJ/mol]
    Dispersion sSAPT0             -10.45402539 [mEh]      -6.55999997 [kcal/mol]     -27.44703989 [kJ/mol]
  Total sSAPT0                    -17.37754507 [mEh]     -10.90457416 [kcal/mol]     -45.62473830 [kJ/mol]
  --------------------------------------------------------------------------------------------------------

*** tstop() called on r282 at Sat Sep 11 01:14:09 2021
Module time:
	user time   =     209.41 seconds =       3.49 minutes
	system time =      33.37 seconds =       0.56 minutes
	total time  =        243 seconds =       4.05 minutes
Total time:
	user time   =     498.45 seconds =       8.31 minutes
	system time =      38.02 seconds =       0.63 minutes
	total time  =        537 seconds =       8.95 minutes

    Psi4 stopped on: Saturday, 11 September 2021 01:14AM
    Psi4 wall time for execution: 0:08:57.17

*** Psi4 exiting successfully. Buy a developer a beer!
