
    -----------------------------------------------------------------------
          Psi4: An Open-Source Ab Initio Electronic Structure Package
                               Psi4 1.3.2 release

                         Git: Rev {HEAD} ecbda83 


    R. M. Parrish, L. A. Burns, D. G. A. Smith, A. C. Simmonett,
    A. E. DePrince III, E. G. Hohenstein, U. Bozkaya, A. Yu. Sokolov,
    R. Di Remigio, R. M. Richard, J. F. Gonthier, A. M. James,
    H. R. McAlexander, A. Kumar, M. Saitow, X. Wang, B. P. Pritchard,
    P. Verma, H. F. Schaefer III, K. Patkowski, R. A. King, E. F. Valeev,
    F. A. Evangelista, J. M. Turney, T. D. Crawford, and C. D. Sherrill,
    J. Chem. Theory Comput. 13(7) pp 3185--3197 (2017).
    (doi: 10.1021/acs.jctc.7b00174)


                         Additional Contributions by
    P. Kraus, H. Kruse, M. H. Lechner, M. C. Schieber, R. A. Shaw,
    A. Alenaizan, R. Galvelis, Z. L. Glick, S. Lehtola, and J. P. Misiewicz

    -----------------------------------------------------------------------


    Psi4 started on: Saturday, 11 September 2021 01:00AM

    Process ID: 57403
    Host:       r282
    PSIDATADIR: /home/r08543048/miniconda3/share/psi4
    Memory:     500.0 MiB
    Threads:    1
    
  ==> Input File <==

--------------------------------------------------------------------------
# Any line starting with the # character is a comment line
#! Sample  computation

memory 22 gb

molecule Dimer {
0 1
 C 2.238494   -0.931880    0.262267
 O 1.388098   -0.825978    1.135882
 N 2.270832   -0.204873   -0.876073
 H 3.037054   -0.309606   -1.515456
 H 1.595943    0.537312   -1.014778
 H 3.060404   -1.659586    0.331295
 
 
 
 
 
 



    
    
    
 --
0 1
 H  -0.461886    2.439944    1.280452
 C  -1.413943    0.559912    0.624117
 C  -0.487795    1.718217    0.445155
 O   0.218794    1.907097   -0.531562
 H  -2.390258    0.966072    0.912453
 C  -1.525648   -0.362348   -0.575644
 H  -1.863694    0.208572   -1.442567
 H  -0.535051   -0.746856   -0.817346
 H  -1.041714    0.014799    1.498771
 C  -2.476553   -1.519860   -0.299107
 H  -2.123869   -2.112265    0.545664
 H  -3.477194   -1.157316   -0.059597
 H  -2.558025   -2.180154   -1.161670






units angstrom

no_reorient
symmetry c1
}

set globals{
  basis jun-cc-pvtz
}

energy('sapt0')


--------------------------------------------------------------------------

  Memory set to  20.489 GiB by Python driver.

  //>>>>>>>>>>>>>>>>>>>>>>>>>>>>>>>>>>>//
  //              Dimer HF             //
  //<<<<<<<<<<<<<<<<<<<<<<<<<<<<<<<<<<<//


*** tstart() called on r282
*** at Sat Sep 11 01:00:04 2021

   => Loading Basis Set <=

    Name: JUN-CC-PVTZ
    Role: ORBITAL
    Keyword: BASIS
    atoms 1, 8-9, 12, 16        entry C          line   217 file /home/r08543048/miniconda3/share/psi4/basis/jun-cc-pvtz.gbs 
    atoms 2, 10                 entry O          line   305 file /home/r08543048/miniconda3/share/psi4/basis/jun-cc-pvtz.gbs 
    atoms 3                     entry N          line   261 file /home/r08543048/miniconda3/share/psi4/basis/jun-cc-pvtz.gbs 
    atoms 4-7, 11, 13-15, 17-19 entry H          line    36 file /home/r08543048/miniconda3/share/psi4/basis/jun-cc-pvtz.gbs 


         ---------------------------------------------------------
                                   SCF
               by Justin Turney, Rob Parrish, Andy Simmonett
                          and Daniel G. A. Smith
                              RHF Reference
                        1 Threads,  20980 MiB Core
         ---------------------------------------------------------

  ==> Geometry <==

    Molecular point group: c1
    Full point group: C1

    Geometry (in Angstrom), charge = 0, multiplicity = 1:

       Center              X                  Y                   Z               Mass       
    ------------   -----------------  -----------------  -----------------  -----------------
         C            2.181231670471    -0.965717580446     0.250089588004    12.000000000000
         O            1.330835670471    -0.859815580446     1.123704588004    15.994914619570
         N            2.213569670471    -0.238710580446    -0.888250411996    14.003074004430
         H            2.979791670471    -0.343443580446    -1.527633411996     1.007825032230
         H            1.538680670471     0.503474419554    -1.026955411996     1.007825032230
         H            3.003141670471    -1.693423580446     0.319117588004     1.007825032230
         H           -0.519148329529     2.406106419554     1.268274588004     1.007825032230
         C           -1.471205329529     0.526074419554     0.611939588004    12.000000000000
         C           -0.545057329529     1.684379419554     0.432977588004    12.000000000000
         O            0.161531670471     1.873259419554    -0.543739411996    15.994914619570
         H           -2.447520329529     0.932234419554     0.900275588004     1.007825032230
         C           -1.582910329529    -0.396185580446    -0.587821411996    12.000000000000
         H           -1.920956329529     0.174734419554    -1.454744411996     1.007825032230
         H           -0.592313329529    -0.780693580446    -0.829523411996     1.007825032230
         H           -1.098976329529    -0.019038580446     1.486593588004     1.007825032230
         C           -2.533815329529    -1.553697580446    -0.311284411996    12.000000000000
         H           -2.181131329529    -2.146102580446     0.533486588004     1.007825032230
         H           -3.534456329529    -1.191153580446    -0.071774411996     1.007825032230
         H           -2.615287329529    -2.213991580446    -1.173847411996     1.007825032230

  Running in c1 symmetry.

  Rotational constants: A =      0.07297  B =      0.04124  C =      0.03258 [cm^-1]
  Rotational constants: A =   2187.69637  B =   1236.19768  C =    976.58756 [MHz]
  Nuclear repulsion =  377.924019700523957

  Charge       = 0
  Multiplicity = 1
  Electrons    = 64
  Nalpha       = 32
  Nbeta        = 32

  ==> Algorithm <==

  SCF Algorithm Type is DF.
  DIIS enabled.
  MOM disabled.
  Fractional occupation disabled.
  Guess Type is SAD.
  Energy threshold   = 1.00e-08
  Density threshold  = 1.00e-08
  Integral threshold = 0.00e+00

  ==> Primary Basis <==

  Basis Set: JUN-CC-PVTZ
    Blend: JUN-CC-PVTZ
    Number of shells: 170
    Number of basis function: 466
    Number of Cartesian functions: 525
    Spherical Harmonics?: true
    Max angular momentum: 3

   => Loading Basis Set <=

    Name: (JUN-CC-PVTZ AUX)
    Role: JKFIT
    Keyword: DF_BASIS_SCF
    atoms 1, 8-9, 12, 16        entry C          line   152 file /home/r08543048/miniconda3/share/psi4/basis/jun-cc-pvtz-jkfit.gbs 
    atoms 2, 10                 entry O          line   272 file /home/r08543048/miniconda3/share/psi4/basis/jun-cc-pvtz-jkfit.gbs 
    atoms 3                     entry N          line   212 file /home/r08543048/miniconda3/share/psi4/basis/jun-cc-pvtz-jkfit.gbs 
    atoms 4-7, 11, 13-15, 17-19 entry H          line    70 file /home/r08543048/miniconda3/share/psi4/basis/jun-cc-pvtz-jkfit.gbs 

  ==> Pre-Iterations <==

   -------------------------------------------------------
    Irrep   Nso     Nmo     Nalpha   Nbeta   Ndocc  Nsocc
   -------------------------------------------------------
     A        466     466       0       0       0       0
   -------------------------------------------------------
    Total     466     466      32      32      32       0
   -------------------------------------------------------

  ==> Integral Setup <==

  ==> DiskDFJK: Density-Fitted J/K Matrices <==

    J tasked:                  Yes
    K tasked:                  Yes
    wK tasked:                  No
    OpenMP threads:              1
    Integrals threads:           1
    Memory [MiB]:            15735
    Algorithm:                Core
    Integral Cache:           SAVE
    Schwarz Cutoff:          1E-12
    Fitting Condition:       1E-10

   => Auxiliary Basis Set <=

  Basis Set: (JUN-CC-PVTZ AUX)
    Blend: JUN-CC-PVTZ-JKFIT
    Number of shells: 342
    Number of basis function: 1090
    Number of Cartesian functions: 1313
    Spherical Harmonics?: true
    Max angular momentum: 4

  Minimum eigenvalue in the overlap matrix is 3.6799228895E-05.
  Using Symmetric Orthogonalization.

  SCF Guess: Superposition of Atomic Densities via on-the-fly atomic UHF.

  ==> Iterations <==

                           Total Energy        Delta E     RMS |[F,P]|

   @DF-RHF iter SAD:  -398.62810512993053   -3.98628e+02   0.00000e+00 
   @DF-RHF iter   1:  -399.76511582485841   -1.13701e+00   1.71065e-03 DIIS
   @DF-RHF iter   2:  -399.98997889020040   -2.24863e-01   1.05226e-03 DIIS
   @DF-RHF iter   3:  -400.07704515657019   -8.70663e-02   1.86204e-04 DIIS
   @DF-RHF iter   4:  -400.08158961190196   -4.54446e-03   7.81226e-05 DIIS
   @DF-RHF iter   5:  -400.08241318446358   -8.23573e-04   1.49681e-05 DIIS
   @DF-RHF iter   6:  -400.08247470960055   -6.15251e-05   6.47246e-06 DIIS
   @DF-RHF iter   7:  -400.08248501437953   -1.03048e-05   2.63465e-06 DIIS
   @DF-RHF iter   8:  -400.08248716796993   -2.15359e-06   1.09778e-06 DIIS
   @DF-RHF iter   9:  -400.08248752401039   -3.56040e-07   4.59768e-07 DIIS
   @DF-RHF iter  10:  -400.08248756910371   -4.50933e-08   1.37439e-07 DIIS
   @DF-RHF iter  11:  -400.08248757332586   -4.22216e-09   4.47867e-08 DIIS
   @DF-RHF iter  12:  -400.08248757380227   -4.76405e-10   1.60105e-08 DIIS
   @DF-RHF iter  13:  -400.08248757387292   -7.06564e-11   5.02268e-09 DIIS
  Energy and wave function converged.


  ==> Post-Iterations <==

    Orbital Energies [Eh]
    ---------------------

    Doubly Occupied:                                                      

       1A    -20.555615     2A    -20.524296     3A    -15.582210  
       4A    -11.352310     5A    -11.334279     6A    -11.229316  
       7A    -11.216337     8A    -11.209328     9A     -1.389256  
      10A     -1.376725    11A     -1.211364    12A     -1.075135  
      13A     -0.971010    14A     -0.847702    15A     -0.840021  
      16A     -0.766432    17A     -0.742901    18A     -0.674196  
      19A     -0.670074    20A     -0.643331    21A     -0.630577  
      22A     -0.600046    23A     -0.567749    24A     -0.560992  
      25A     -0.558295    26A     -0.505769    27A     -0.501331  
      28A     -0.482017    29A     -0.471886    30A     -0.433400  
      31A     -0.420861    32A     -0.413146  

    Virtual:                                                              

      33A      0.050620    34A      0.053096    35A      0.055791  
      36A      0.063106    37A      0.076398    38A      0.078983  
      39A      0.084587    40A      0.090264    41A      0.093934  
      42A      0.108964    43A      0.117190    44A      0.120359  
      45A      0.124388    46A      0.126993    47A      0.132566  
      48A      0.151877    49A      0.153943    50A      0.168297  
      51A      0.174087    52A      0.183425    53A      0.189905  
      54A      0.194170    55A      0.197935    56A      0.203191  
      57A      0.222835    58A      0.238023    59A      0.239577  
      60A      0.246048    61A      0.249831    62A      0.258516  
      63A      0.267320    64A      0.275559    65A      0.280124  
      66A      0.285728    67A      0.292308    68A      0.296518  
      69A      0.303456    70A      0.311854    71A      0.317727  
      72A      0.324607    73A      0.330714    74A      0.343862  
      75A      0.350128    76A      0.355452    77A      0.359291  
      78A      0.367002    79A      0.376213    80A      0.382830  
      81A      0.399965    82A      0.401008    83A      0.413197  
      84A      0.415936    85A      0.420694    86A      0.428020  
      87A      0.437538    88A      0.439520    89A      0.448623  
      90A      0.455234    91A      0.468191    92A      0.486301  
      93A      0.489330    94A      0.504767    95A      0.506312  
      96A      0.521526    97A      0.528962    98A      0.530589  
      99A      0.546448   100A      0.554969   101A      0.565929  
     102A      0.572624   103A      0.577031   104A      0.579935  
     105A      0.585506   106A      0.600456   107A      0.606734  
     108A      0.613504   109A      0.630679   110A      0.632769  
     111A      0.648839   112A      0.652174   113A      0.676405  
     114A      0.685722   115A      0.688646   116A      0.703924  
     117A      0.717081   118A      0.724066   119A      0.733171  
     120A      0.741312   121A      0.755980   122A      0.774843  
     123A      0.791591   124A      0.794353   125A      0.802969  
     126A      0.807052   127A      0.827960   128A      0.834286  
     129A      0.835159   130A      0.847045   131A      0.860140  
     132A      0.863107   133A      0.871917   134A      0.877613  
     135A      0.884087   136A      0.899417   137A      0.899779  
     138A      0.909279   139A      0.921068   140A      0.935369  
     141A      0.948589   142A      0.957327   143A      0.979806  
     144A      0.995590   145A      1.000847   146A      1.016770  
     147A      1.024266   148A      1.035733   149A      1.039673  
     150A      1.048016   151A      1.077170   152A      1.080220  
     153A      1.099786   154A      1.109495   155A      1.118627  
     156A      1.130348   157A      1.142948   158A      1.152437  
     159A      1.180298   160A      1.186051   161A      1.202788  
     162A      1.210661   163A      1.220378   164A      1.235845  
     165A      1.248619   166A      1.271159   167A      1.279665  
     168A      1.297136   169A      1.303769   170A      1.314989  
     171A      1.330366   172A      1.341611   173A      1.350424  
     174A      1.359474   175A      1.375188   176A      1.388908  
     177A      1.402045   178A      1.406627   179A      1.410467  
     180A      1.427057   181A      1.430532   182A      1.441438  
     183A      1.456043   184A      1.458175   185A      1.462526  
     186A      1.478767   187A      1.486152   188A      1.503076  
     189A      1.514209   190A      1.540404   191A      1.565847  
     192A      1.575116   193A      1.586701   194A      1.601574  
     195A      1.608485   196A      1.615628   197A      1.623795  
     198A      1.633872   199A      1.637047   200A      1.657149  
     201A      1.683901   202A      1.698075   203A      1.701486  
     204A      1.721672   205A      1.736562   206A      1.760124  
     207A      1.769055   208A      1.784789   209A      1.802704  
     210A      1.817308   211A      1.862408   212A      1.868125  
     213A      1.876145   214A      1.888478   215A      1.895745  
     216A      1.925995   217A      1.935357   218A      1.945229  
     219A      1.976242   220A      2.023474   221A      2.029912  
     222A      2.077218   223A      2.122402   224A      2.145610  
     225A      2.199794   226A      2.229143   227A      2.268254  
     228A      2.318513   229A      2.344010   230A      2.387776  
     231A      2.408527   232A      2.445550   233A      2.479412  
     234A      2.503854   235A      2.555682   236A      2.585880  
     237A      2.609921   238A      2.684931   239A      2.731001  
     240A      2.753568   241A      2.754224   242A      2.776714  
     243A      2.814288   244A      2.838332   245A      2.850866  
     246A      2.876572   247A      2.885530   248A      2.912804  
     249A      2.936153   250A      2.959911   251A      2.969466  
     252A      2.990201   253A      3.036456   254A      3.063683  
     255A      3.075127   256A      3.081302   257A      3.119125  
     258A      3.126946   259A      3.132868   260A      3.140030  
     261A      3.150835   262A      3.155291   263A      3.167289  
     264A      3.198414   265A      3.205265   266A      3.233350  
     267A      3.260691   268A      3.280268   269A      3.309115  
     270A      3.319499   271A      3.320198   272A      3.340695  
     273A      3.358171   274A      3.379282   275A      3.381794  
     276A      3.396438   277A      3.414513   278A      3.427794  
     279A      3.442066   280A      3.446578   281A      3.461832  
     282A      3.467875   283A      3.473039   284A      3.484916  
     285A      3.495980   286A      3.509303   287A      3.513169  
     288A      3.520990   289A      3.530448   290A      3.540038  
     291A      3.556860   292A      3.564603   293A      3.569619  
     294A      3.578192   295A      3.597475   296A      3.605429  
     297A      3.615375   298A      3.631248   299A      3.633437  
     300A      3.647375   301A      3.667078   302A      3.693632  
     303A      3.703472   304A      3.728281   305A      3.756836  
     306A      3.762753   307A      3.787516   308A      3.795583  
     309A      3.810928   310A      3.822427   311A      3.852160  
     312A      3.857941   313A      3.873759   314A      3.892810  
     315A      3.895180   316A      3.910323   317A      3.925187  
     318A      3.944488   319A      3.958651   320A      3.963153  
     321A      3.973349   322A      3.985585   323A      4.016416  
     324A      4.024337   325A      4.049487   326A      4.053730  
     327A      4.109160   328A      4.138292   329A      4.151299  
     330A      4.168404   331A      4.195758   332A      4.197940  
     333A      4.215732   334A      4.233779   335A      4.265595  
     336A      4.268778   337A      4.276605   338A      4.287941  
     339A      4.293878   340A      4.314601   341A      4.324660  
     342A      4.335912   343A      4.350311   344A      4.353015  
     345A      4.380149   346A      4.403491   347A      4.409543  
     348A      4.435482   349A      4.446588   350A      4.449374  
     351A      4.468486   352A      4.484708   353A      4.505428  
     354A      4.512405   355A      4.529592   356A      4.542919  
     357A      4.568458   358A      4.580633   359A      4.582824  
     360A      4.594894   361A      4.618275   362A      4.640593  
     363A      4.646702   364A      4.666193   365A      4.691897  
     366A      4.703213   367A      4.707002   368A      4.749079  
     369A      4.753134   370A      4.779993   371A      4.808146  
     372A      4.836507   373A      4.857829   374A      4.864410  
     375A      4.879366   376A      4.923244   377A      4.926264  
     378A      5.006986   379A      5.015479   380A      5.021756  
     381A      5.044414   382A      5.077290   383A      5.096447  
     384A      5.112342   385A      5.119614   386A      5.164045  
     387A      5.190050   388A      5.204889   389A      5.229292  
     390A      5.238892   391A      5.267671   392A      5.278620  
     393A      5.300078   394A      5.308572   395A      5.324705  
     396A      5.331465   397A      5.367494   398A      5.384327  
     399A      5.413022   400A      5.429263   401A      5.438924  
     402A      5.473677   403A      5.501666   404A      5.554055  
     405A      5.568269   406A      5.597862   407A      5.612808  
     408A      5.642775   409A      5.678001   410A      5.700707  
     411A      5.723368   412A      5.746345   413A      5.754154  
     414A      5.767150   415A      5.781159   416A      5.809601  
     417A      5.847170   418A      5.894850   419A      5.902673  
     420A      5.921178   421A      5.941324   422A      5.949233  
     423A      5.985226   424A      5.988276   425A      6.017173  
     426A      6.045139   427A      6.085286   428A      6.130513  
     429A      6.158136   430A      6.179747   431A      6.253530  
     432A      6.270145   433A      6.314181   434A      6.375496  
     435A      6.513590   436A      6.527243   437A      6.562772  
     438A      6.582655   439A      6.603695   440A      6.690417  
     441A      6.791867   442A      6.808619   443A      6.937190  
     444A      7.007175   445A      7.178372   446A      7.260919  
     447A      7.271272   448A      7.275953   449A      7.299296  
     450A      7.326221   451A      7.409927   452A      7.480854  
     453A      7.515043   454A      7.615133   455A      7.656024  
     456A      7.730401   457A      7.789500   458A      7.828165  
     459A     12.640246   460A     12.796694   461A     13.990389  
     462A     14.270887   463A     14.290450   464A     14.497171  
     465A     14.618537   466A     15.871203  

    Final Occupation by Irrep:
              A 
    DOCC [    32 ]

  @DF-RHF Final Energy:  -400.08248757387292

   => Energetics <=

    Nuclear Repulsion Energy =            377.9240197005239565
    One-Electron Energy =               -1295.2971978130726711
    Two-Electron Energy =                 517.2906905386757899
    Total Energy =                       -400.0824875738728679

Computation Completed


Properties will be evaluated at   0.000000,   0.000000,   0.000000 [a0]

Properties computed using the SCF density matrix

  Nuclear Dipole Moment: [e a0]
     X:    -6.9254      Y:    -4.0924      Z:    -1.4728

  Electronic Dipole Moment: [e a0]
     X:     7.1013      Y:     3.9482      Z:     1.0924

  Dipole Moment: [e a0]
     X:     0.1758      Y:    -0.1442      Z:    -0.3804     Total:     0.4432

  Dipole Moment: [D]
     X:     0.4469      Y:    -0.3666      Z:    -0.9669     Total:     1.1265


*** tstop() called on r282 at Sat Sep 11 01:01:03 2021
Module time:
	user time   =      56.91 seconds =       0.95 minutes
	system time =       1.33 seconds =       0.02 minutes
	total time  =         59 seconds =       0.98 minutes
Total time:
	user time   =      56.91 seconds =       0.95 minutes
	system time =       1.33 seconds =       0.02 minutes
	total time  =         59 seconds =       0.98 minutes

  //>>>>>>>>>>>>>>>>>>>>>>>>>>>>>>>>>>>//
  //            Monomer A HF           //
  //<<<<<<<<<<<<<<<<<<<<<<<<<<<<<<<<<<<//


*** tstart() called on r282
*** at Sat Sep 11 01:01:03 2021

   => Loading Basis Set <=

    Name: JUN-CC-PVTZ
    Role: ORBITAL
    Keyword: BASIS
    atoms 1, 8-9, 12, 16        entry C          line   217 file /home/r08543048/miniconda3/share/psi4/basis/jun-cc-pvtz.gbs 
    atoms 2, 10                 entry O          line   305 file /home/r08543048/miniconda3/share/psi4/basis/jun-cc-pvtz.gbs 
    atoms 3                     entry N          line   261 file /home/r08543048/miniconda3/share/psi4/basis/jun-cc-pvtz.gbs 
    atoms 4-7, 11, 13-15, 17-19 entry H          line    36 file /home/r08543048/miniconda3/share/psi4/basis/jun-cc-pvtz.gbs 


         ---------------------------------------------------------
                                   SCF
               by Justin Turney, Rob Parrish, Andy Simmonett
                          and Daniel G. A. Smith
                              RHF Reference
                        1 Threads,  20980 MiB Core
         ---------------------------------------------------------

  ==> Geometry <==

    Molecular point group: c1
    Full point group: C1

    Geometry (in Angstrom), charge = 0, multiplicity = 1:

       Center              X                  Y                   Z               Mass       
    ------------   -----------------  -----------------  -----------------  -----------------
         C            2.181231670471    -0.965717580446     0.250089588004    12.000000000000
         O            1.330835670471    -0.859815580446     1.123704588004    15.994914619570
         N            2.213569670471    -0.238710580446    -0.888250411996    14.003074004430
         H            2.979791670471    -0.343443580446    -1.527633411996     1.007825032230
         H            1.538680670471     0.503474419554    -1.026955411996     1.007825032230
         H            3.003141670471    -1.693423580446     0.319117588004     1.007825032230
      Gh(H)          -0.519148329529     2.406106419554     1.268274588004     1.007825032230
      Gh(C)          -1.471205329529     0.526074419554     0.611939588004    12.000000000000
      Gh(C)          -0.545057329529     1.684379419554     0.432977588004    12.000000000000
      Gh(O)           0.161531670471     1.873259419554    -0.543739411996    15.994914619570
      Gh(H)          -2.447520329529     0.932234419554     0.900275588004     1.007825032230
      Gh(C)          -1.582910329529    -0.396185580446    -0.587821411996    12.000000000000
      Gh(H)          -1.920956329529     0.174734419554    -1.454744411996     1.007825032230
      Gh(H)          -0.592313329529    -0.780693580446    -0.829523411996     1.007825032230
      Gh(H)          -1.098976329529    -0.019038580446     1.486593588004     1.007825032230
      Gh(C)          -2.533815329529    -1.553697580446    -0.311284411996    12.000000000000
      Gh(H)          -2.181131329529    -2.146102580446     0.533486588004     1.007825032230
      Gh(H)          -3.534456329529    -1.191153580446    -0.071774411996     1.007825032230
      Gh(H)          -2.615287329529    -2.213991580446    -1.173847411996     1.007825032230

  Running in c1 symmetry.

  Rotational constants: A =      0.07297  B =      0.04124  C =      0.03258 [cm^-1]
  Rotational constants: A =   2187.69637  B =   1236.19768  C =    976.58756 [MHz]
  Nuclear repulsion =   71.119124715954570

  Charge       = 0
  Multiplicity = 1
  Electrons    = 24
  Nalpha       = 12
  Nbeta        = 12

  ==> Algorithm <==

  SCF Algorithm Type is DF.
  DIIS enabled.
  MOM disabled.
  Fractional occupation disabled.
  Guess Type is SAD.
  Energy threshold   = 1.00e-08
  Density threshold  = 1.00e-08
  Integral threshold = 0.00e+00

  ==> Primary Basis <==

  Basis Set: JUN-CC-PVTZ
    Blend: JUN-CC-PVTZ
    Number of shells: 170
    Number of basis function: 466
    Number of Cartesian functions: 525
    Spherical Harmonics?: true
    Max angular momentum: 3

   => Loading Basis Set <=

    Name: (JUN-CC-PVTZ AUX)
    Role: JKFIT
    Keyword: DF_BASIS_SCF
    atoms 1, 8-9, 12, 16        entry C          line   152 file /home/r08543048/miniconda3/share/psi4/basis/jun-cc-pvtz-jkfit.gbs 
    atoms 2, 10                 entry O          line   272 file /home/r08543048/miniconda3/share/psi4/basis/jun-cc-pvtz-jkfit.gbs 
    atoms 3                     entry N          line   212 file /home/r08543048/miniconda3/share/psi4/basis/jun-cc-pvtz-jkfit.gbs 
    atoms 4-7, 11, 13-15, 17-19 entry H          line    70 file /home/r08543048/miniconda3/share/psi4/basis/jun-cc-pvtz-jkfit.gbs 

  ==> Pre-Iterations <==

   -------------------------------------------------------
    Irrep   Nso     Nmo     Nalpha   Nbeta   Ndocc  Nsocc
   -------------------------------------------------------
     A        466     466       0       0       0       0
   -------------------------------------------------------
    Total     466     466      12      12      12       0
   -------------------------------------------------------

  ==> Integral Setup <==

  ==> DiskDFJK: Density-Fitted J/K Matrices <==

    J tasked:                  Yes
    K tasked:                  Yes
    wK tasked:                  No
    OpenMP threads:              1
    Integrals threads:           1
    Memory [MiB]:            15735
    Algorithm:                Core
    Integral Cache:           LOAD
    Schwarz Cutoff:          1E-12
    Fitting Condition:       1E-10

   => Auxiliary Basis Set <=

  Basis Set: (JUN-CC-PVTZ AUX)
    Blend: JUN-CC-PVTZ-JKFIT
    Number of shells: 342
    Number of basis function: 1090
    Number of Cartesian functions: 1313
    Spherical Harmonics?: true
    Max angular momentum: 4

  Minimum eigenvalue in the overlap matrix is 3.6799228895E-05.
  Using Symmetric Orthogonalization.

  SCF Guess: Superposition of Atomic Densities via on-the-fly atomic UHF.

  ==> Iterations <==

                           Total Energy        Delta E     RMS |[F,P]|

   @DF-RHF iter SAD:  -168.21583349464382   -1.68216e+02   0.00000e+00 
   @DF-RHF iter   1:  -168.88036325183162   -6.64530e-01   1.14750e-03 DIIS
   @DF-RHF iter   2:  -168.95668884962080   -7.63256e-02   7.95196e-04 DIIS
   @DF-RHF iter   3:  -169.00159335285073   -4.49045e-02   1.11466e-04 DIIS
   @DF-RHF iter   4:  -169.00303152855116   -1.43818e-03   4.80512e-05 DIIS
   @DF-RHF iter   5:  -169.00333177106961   -3.00243e-04   9.91703e-06 DIIS
   @DF-RHF iter   6:  -169.00336347610471   -3.17050e-05   4.76979e-06 DIIS
   @DF-RHF iter   7:  -169.00337018724912   -6.71114e-06   1.92353e-06 DIIS
   @DF-RHF iter   8:  -169.00337134157084   -1.15432e-06   5.65449e-07 DIIS
   @DF-RHF iter   9:  -169.00337144420493   -1.02634e-07   1.53620e-07 DIIS
   @DF-RHF iter  10:  -169.00337145198503   -7.78010e-09   3.76794e-08 DIIS
   @DF-RHF iter  11:  -169.00337145237313   -3.88098e-10   6.76040e-09 DIIS
  Energy and wave function converged.


  ==> Post-Iterations <==

    Orbital Energies [Eh]
    ---------------------

    Doubly Occupied:                                                      

       1A    -20.529346     2A    -15.599937     3A    -11.357915  
       4A     -1.380141     5A     -1.224564     6A     -0.854433  
       7A     -0.754430     8A     -0.676672     9A     -0.606383  
      10A     -0.571557    11A     -0.437037    12A     -0.422668  

    Virtual:                                                              

      13A      0.032659    14A      0.045208    15A      0.049306  
      16A      0.058998    17A      0.073007    18A      0.074128  
      19A      0.082964    20A      0.087619    21A      0.089229  
      22A      0.110755    23A      0.112581    24A      0.117694  
      25A      0.121914    26A      0.124610    27A      0.128176  
      28A      0.134902    29A      0.147030    30A      0.156490  
      31A      0.164184    32A      0.171696    33A      0.176797  
      34A      0.182999    35A      0.187235    36A      0.197542  
      37A      0.209221    38A      0.211622    39A      0.231273  
      40A      0.238287    41A      0.245645    42A      0.253556  
      43A      0.256335    44A      0.263985    45A      0.270251  
      46A      0.287890    47A      0.295836    48A      0.301444  
      49A      0.304643    50A      0.308769    51A      0.318959  
      52A      0.322003    53A      0.329797    54A      0.341872  
      55A      0.350658    56A      0.363987    57A      0.365744  
      58A      0.380021    59A      0.383850    60A      0.387823  
      61A      0.389949    62A      0.400564    63A      0.422345  
      64A      0.423169    65A      0.430749    66A      0.437890  
      67A      0.442686    68A      0.459602    69A      0.463335  
      70A      0.470328    71A      0.476253    72A      0.485045  
      73A      0.501272    74A      0.513529    75A      0.519755  
      76A      0.522693    77A      0.544391    78A      0.552054  
      79A      0.558299    80A      0.566626    81A      0.569601  
      82A      0.574857    83A      0.581630    84A      0.592554  
      85A      0.598865    86A      0.601198    87A      0.609163  
      88A      0.624907    89A      0.628044    90A      0.637848  
      91A      0.642832    92A      0.657632    93A      0.663103  
      94A      0.671204    95A      0.673779    96A      0.683818  
      97A      0.699762    98A      0.723742    99A      0.729557  
     100A      0.740739   101A      0.749400   102A      0.757424  
     103A      0.777579   104A      0.786516   105A      0.800385  
     106A      0.809452   107A      0.841090   108A      0.846180  
     109A      0.861766   110A      0.874873   111A      0.883527  
     112A      0.894963   113A      0.914501   114A      0.931546  
     115A      0.948385   116A      0.972826   117A      0.979530  
     118A      1.014380   119A      1.020465   120A      1.039582  
     121A      1.044929   122A      1.059182   123A      1.071881  
     124A      1.079997   125A      1.091414   126A      1.100880  
     127A      1.106656   128A      1.117687   129A      1.133088  
     130A      1.149096   131A      1.160196   132A      1.176646  
     133A      1.179684   134A      1.185047   135A      1.201632  
     136A      1.208311   137A      1.233132   138A      1.236145  
     139A      1.254187   140A      1.259943   141A      1.267154  
     142A      1.273278   143A      1.287244   144A      1.290312  
     145A      1.300082   146A      1.309198   147A      1.324038  
     148A      1.333463   149A      1.346597   150A      1.369803  
     151A      1.371663   152A      1.382321   153A      1.384344  
     154A      1.399761   155A      1.409919   156A      1.413762  
     157A      1.427995   158A      1.433318   159A      1.442746  
     160A      1.452482   161A      1.456891   162A      1.481178  
     163A      1.493189   164A      1.505391   165A      1.512925  
     166A      1.528328   167A      1.532813   168A      1.551863  
     169A      1.568180   170A      1.580687   171A      1.588419  
     172A      1.601915   173A      1.613746   174A      1.624057  
     175A      1.630872   176A      1.638808   177A      1.647575  
     178A      1.664148   179A      1.687268   180A      1.695943  
     181A      1.709018   182A      1.729791   183A      1.763707  
     184A      1.779870   185A      1.796573   186A      1.807327  
     187A      1.815011   188A      1.881743   189A      1.889643  
     190A      1.902446   191A      1.937001   192A      1.945276  
     193A      1.959476   194A      1.976877   195A      1.981990  
     196A      1.998086   197A      2.031231   198A      2.078046  
     199A      2.098286   200A      2.129201   201A      2.146227  
     202A      2.172074   203A      2.181124   204A      2.202393  
     205A      2.224989   206A      2.237954   207A      2.268890  
     208A      2.299841   209A      2.329368   210A      2.338052  
     211A      2.353113   212A      2.402534   213A      2.414061  
     214A      2.423920   215A      2.458506   216A      2.466232  
     217A      2.482934   218A      2.519817   219A      2.568101  
     220A      2.596895   221A      2.622959   222A      2.661338  
     223A      2.670831   224A      2.701921   225A      2.723456  
     226A      2.747814   227A      2.778738   228A      2.821262  
     229A      2.859749   230A      2.889934   231A      2.918891  
     232A      2.932774   233A      3.037809   234A      3.065116  
     235A      3.145679   236A      3.176948   237A      3.180800  
     238A      3.216530   239A      3.242030   240A      3.308925  
     241A      3.377063   242A      3.407377   243A      3.444940  
     244A      3.475688   245A      3.482850   246A      3.492413  
     247A      3.522066   248A      3.524232   249A      3.549586  
     250A      3.556943   251A      3.567574   252A      3.589453  
     253A      3.596275   254A      3.606729   255A      3.621479  
     256A      3.630088   257A      3.639195   258A      3.654292  
     259A      3.670574   260A      3.680491   261A      3.689917  
     262A      3.785077   263A      3.789525   264A      3.801359  
     265A      3.808651   266A      3.818486   267A      3.839267  
     268A      3.853294   269A      3.856672   270A      3.873565  
     271A      3.878233   272A      3.892142   273A      3.913433  
     274A      3.925593   275A      3.929246   276A      3.943939  
     277A      3.951592   278A      3.958311   279A      3.972739  
     280A      4.000550   281A      4.007806   282A      4.034397  
     283A      4.061490   284A      4.073257   285A      4.094165  
     286A      4.137731   287A      4.141370   288A      4.158708  
     289A      4.183106   290A      4.200825   291A      4.226721  
     292A      4.232857   293A      4.246346   294A      4.264195  
     295A      4.284950   296A      4.309376   297A      4.328472  
     298A      4.359467   299A      4.390218   300A      4.394654  
     301A      4.413431   302A      4.420137   303A      4.453470  
     304A      4.466336   305A      4.497430   306A      4.498703  
     307A      4.505969   308A      4.530075   309A      4.532202  
     310A      4.552873   311A      4.561632   312A      4.574844  
     313A      4.581075   314A      4.594209   315A      4.596093  
     316A      4.613996   317A      4.629726   318A      4.639962  
     319A      4.646796   320A      4.663534   321A      4.677670  
     322A      4.703142   323A      4.713455   324A      4.720644  
     325A      4.727831   326A      4.741464   327A      4.760048  
     328A      4.771535   329A      4.780832   330A      4.793996  
     331A      4.810491   332A      4.819052   333A      4.844937  
     334A      4.858082   335A      4.863747   336A      4.873066  
     337A      4.887187   338A      4.897947   339A      4.901566  
     340A      4.918047   341A      4.932153   342A      4.942791  
     343A      4.950952   344A      4.970147   345A      4.989830  
     346A      5.000006   347A      5.006690   348A      5.022889  
     349A      5.040082   350A      5.046809   351A      5.064712  
     352A      5.072943   353A      5.101370   354A      5.122420  
     355A      5.138264   356A      5.156719   357A      5.177273  
     358A      5.194241   359A      5.221101   360A      5.227705  
     361A      5.242993   362A      5.260746   363A      5.265077  
     364A      5.314074   365A      5.349317   366A      5.359945  
     367A      5.419273   368A      5.438508   369A      5.445966  
     370A      5.487285   371A      5.494764   372A      5.551481  
     373A      5.563974   374A      5.583907   375A      5.649569  
     376A      5.659792   377A      5.672857   378A      5.720264  
     379A      5.743738   380A      5.749889   381A      5.827926  
     382A      5.829508   383A      5.877239   384A      5.905270  
     385A      5.918403   386A      5.932602   387A      6.002372  
     388A      6.015273   389A      6.024879   390A      6.040067  
     391A      6.067686   392A      6.071895   393A      6.156362  
     394A      6.170380   395A      6.175515   396A      6.246567  
     397A      6.249262   398A      6.256968   399A      6.298878  
     400A      6.362193   401A      6.367040   402A      6.398368  
     403A      6.452017   404A      6.475185   405A      6.489971  
     406A      6.513407   407A      6.531667   408A      6.599694  
     409A      6.654247   410A      6.670649   411A      6.676343  
     412A      6.690561   413A      6.789103   414A      6.810319  
     415A      6.937108   416A      6.943711   417A      6.998114  
     418A      7.044233   419A      7.065175   420A      7.171269  
     421A      7.271269   422A      7.287370   423A      7.324987  
     424A      7.355981   425A      7.407471   426A      7.477759  
     427A      7.555307   428A      7.578049   429A      7.606134  
     430A      7.667621   431A      7.683514   432A      7.694607  
     433A      7.713498   434A      7.785439   435A      7.805570  
     436A      7.823022   437A      7.848565   438A      7.892519  
     439A      7.930284   440A      8.120310   441A      8.227576  
     442A      8.273924   443A      8.404875   444A      8.518443  
     445A      8.680442   446A      9.447047   447A      9.529326  
     448A      9.687538   449A      9.787148   450A      9.838781  
     451A      9.858885   452A      9.938938   453A      9.980843  
     454A     10.087818   455A     11.001251   456A     11.694223  
     457A     11.985193   458A     12.802066   459A     13.760837  
     460A     14.279188   461A     15.854521   462A     44.096767  
     463A     44.572333   464A     45.538587   465A     45.894484  
     466A     60.719124  

    Final Occupation by Irrep:
              A 
    DOCC [    12 ]

  @DF-RHF Final Energy:  -169.00337145237313

   => Energetics <=

    Nuclear Repulsion Energy =             71.1191247159545696
    One-Electron Energy =                -371.4148228217399605
    Two-Electron Energy =                 131.2923266534122604
    Total Energy =                       -169.0033714523731305

Computation Completed


Properties will be evaluated at   0.000000,   0.000000,   0.000000 [a0]

Properties computed using the SCF density matrix

  Nuclear Dipole Moment: [e a0]
     X:    88.3460      Y:   -30.0036      Z:     3.8493

  Electronic Dipole Moment: [e a0]
     X:   -87.3458      Y:    30.2360      Z:    -5.2311

  Dipole Moment: [e a0]
     X:     1.0002      Y:     0.2325      Z:    -1.3818     Total:     1.7215

  Dipole Moment: [D]
     X:     2.5421      Y:     0.5908      Z:    -3.5122     Total:     4.3757


*** tstop() called on r282 at Sat Sep 11 01:01:29 2021
Module time:
	user time   =      25.69 seconds =       0.43 minutes
	system time =       0.53 seconds =       0.01 minutes
	total time  =         26 seconds =       0.43 minutes
Total time:
	user time   =      82.61 seconds =       1.38 minutes
	system time =       1.86 seconds =       0.03 minutes
	total time  =         85 seconds =       1.42 minutes

  //>>>>>>>>>>>>>>>>>>>>>>>>>>>>>>>>>>>//
  //            Monomer B HF           //
  //<<<<<<<<<<<<<<<<<<<<<<<<<<<<<<<<<<<//


*** tstart() called on r282
*** at Sat Sep 11 01:01:29 2021

   => Loading Basis Set <=

    Name: JUN-CC-PVTZ
    Role: ORBITAL
    Keyword: BASIS
    atoms 1, 8-9, 12, 16        entry C          line   217 file /home/r08543048/miniconda3/share/psi4/basis/jun-cc-pvtz.gbs 
    atoms 2, 10                 entry O          line   305 file /home/r08543048/miniconda3/share/psi4/basis/jun-cc-pvtz.gbs 
    atoms 3                     entry N          line   261 file /home/r08543048/miniconda3/share/psi4/basis/jun-cc-pvtz.gbs 
    atoms 4-7, 11, 13-15, 17-19 entry H          line    36 file /home/r08543048/miniconda3/share/psi4/basis/jun-cc-pvtz.gbs 


         ---------------------------------------------------------
                                   SCF
               by Justin Turney, Rob Parrish, Andy Simmonett
                          and Daniel G. A. Smith
                              RHF Reference
                        1 Threads,  20980 MiB Core
         ---------------------------------------------------------

  ==> Geometry <==

    Molecular point group: c1
    Full point group: C1

    Geometry (in Angstrom), charge = 0, multiplicity = 1:

       Center              X                  Y                   Z               Mass       
    ------------   -----------------  -----------------  -----------------  -----------------
      Gh(C)           2.181231670471    -0.965717580446     0.250089588004    12.000000000000
      Gh(O)           1.330835670471    -0.859815580446     1.123704588004    15.994914619570
      Gh(N)           2.213569670471    -0.238710580446    -0.888250411996    14.003074004430
      Gh(H)           2.979791670471    -0.343443580446    -1.527633411996     1.007825032230
      Gh(H)           1.538680670471     0.503474419554    -1.026955411996     1.007825032230
      Gh(H)           3.003141670471    -1.693423580446     0.319117588004     1.007825032230
         H           -0.519148329529     2.406106419554     1.268274588004     1.007825032230
         C           -1.471205329529     0.526074419554     0.611939588004    12.000000000000
         C           -0.545057329529     1.684379419554     0.432977588004    12.000000000000
         O            0.161531670471     1.873259419554    -0.543739411996    15.994914619570
         H           -2.447520329529     0.932234419554     0.900275588004     1.007825032230
         C           -1.582910329529    -0.396185580446    -0.587821411996    12.000000000000
         H           -1.920956329529     0.174734419554    -1.454744411996     1.007825032230
         H           -0.592313329529    -0.780693580446    -0.829523411996     1.007825032230
         H           -1.098976329529    -0.019038580446     1.486593588004     1.007825032230
         C           -2.533815329529    -1.553697580446    -0.311284411996    12.000000000000
         H           -2.181131329529    -2.146102580446     0.533486588004     1.007825032230
         H           -3.534456329529    -1.191153580446    -0.071774411996     1.007825032230
         H           -2.615287329529    -2.213991580446    -1.173847411996     1.007825032230

  Running in c1 symmetry.

  Rotational constants: A =      0.07297  B =      0.04124  C =      0.03258 [cm^-1]
  Rotational constants: A =   2187.69637  B =   1236.19768  C =    976.58756 [MHz]
  Nuclear repulsion =  172.360460201520880

  Charge       = 0
  Multiplicity = 1
  Electrons    = 40
  Nalpha       = 20
  Nbeta        = 20

  ==> Algorithm <==

  SCF Algorithm Type is DF.
  DIIS enabled.
  MOM disabled.
  Fractional occupation disabled.
  Guess Type is SAD.
  Energy threshold   = 1.00e-08
  Density threshold  = 1.00e-08
  Integral threshold = 0.00e+00

  ==> Primary Basis <==

  Basis Set: JUN-CC-PVTZ
    Blend: JUN-CC-PVTZ
    Number of shells: 170
    Number of basis function: 466
    Number of Cartesian functions: 525
    Spherical Harmonics?: true
    Max angular momentum: 3

   => Loading Basis Set <=

    Name: (JUN-CC-PVTZ AUX)
    Role: JKFIT
    Keyword: DF_BASIS_SCF
    atoms 1, 8-9, 12, 16        entry C          line   152 file /home/r08543048/miniconda3/share/psi4/basis/jun-cc-pvtz-jkfit.gbs 
    atoms 2, 10                 entry O          line   272 file /home/r08543048/miniconda3/share/psi4/basis/jun-cc-pvtz-jkfit.gbs 
    atoms 3                     entry N          line   212 file /home/r08543048/miniconda3/share/psi4/basis/jun-cc-pvtz-jkfit.gbs 
    atoms 4-7, 11, 13-15, 17-19 entry H          line    70 file /home/r08543048/miniconda3/share/psi4/basis/jun-cc-pvtz-jkfit.gbs 

  ==> Pre-Iterations <==

   -------------------------------------------------------
    Irrep   Nso     Nmo     Nalpha   Nbeta   Ndocc  Nsocc
   -------------------------------------------------------
     A        466     466       0       0       0       0
   -------------------------------------------------------
    Total     466     466      20      20      20       0
   -------------------------------------------------------

  ==> Integral Setup <==

  ==> DiskDFJK: Density-Fitted J/K Matrices <==

    J tasked:                  Yes
    K tasked:                  Yes
    wK tasked:                  No
    OpenMP threads:              1
    Integrals threads:           1
    Memory [MiB]:            15735
    Algorithm:                Core
    Integral Cache:           LOAD
    Schwarz Cutoff:          1E-12
    Fitting Condition:       1E-10

   => Auxiliary Basis Set <=

  Basis Set: (JUN-CC-PVTZ AUX)
    Blend: JUN-CC-PVTZ-JKFIT
    Number of shells: 342
    Number of basis function: 1090
    Number of Cartesian functions: 1313
    Spherical Harmonics?: true
    Max angular momentum: 4

  Minimum eigenvalue in the overlap matrix is 3.6799228895E-05.
  Using Symmetric Orthogonalization.

  SCF Guess: Superposition of Atomic Densities via on-the-fly atomic UHF.

  ==> Iterations <==

                           Total Energy        Delta E     RMS |[F,P]|

   @DF-RHF iter SAD:  -230.24937800924829   -2.30249e+02   0.00000e+00 
   @DF-RHF iter   1:  -230.86083112158167   -6.11453e-01   1.32345e-03 DIIS
   @DF-RHF iter   2:  -231.01289435650943   -1.52063e-01   8.12994e-04 DIIS
   @DF-RHF iter   3:  -231.06729960441388   -5.44052e-02   1.60730e-04 DIIS
   @DF-RHF iter   4:  -231.07075526456396   -3.45566e-03   6.86976e-05 DIIS
   @DF-RHF iter   5:  -231.07141631610267   -6.61052e-04   1.19924e-05 DIIS
   @DF-RHF iter   6:  -231.07145624520581   -3.99291e-05   4.96022e-06 DIIS
   @DF-RHF iter   7:  -231.07146256709811   -6.32189e-06   2.19000e-06 DIIS
   @DF-RHF iter   8:  -231.07146391159790   -1.34450e-06   7.21171e-07 DIIS
   @DF-RHF iter   9:  -231.07146409591445   -1.84317e-07   1.33451e-07 DIIS
   @DF-RHF iter  10:  -231.07146410190506   -5.99061e-09   3.47394e-08 DIIS
   @DF-RHF iter  11:  -231.07146410216396   -2.58893e-10   1.01821e-08 DIIS
   @DF-RHF iter  12:  -231.07146410219272   -2.87628e-11   3.03173e-09 DIIS
  Energy and wave function converged.


  ==> Post-Iterations <==

    Orbital Energies [Eh]
    ---------------------

    Doubly Occupied:                                                      

       1A    -20.556466     2A    -11.332132     3A    -11.242566  
       4A    -11.226504     5A    -11.218907     6A     -1.384698  
       7A     -1.085639     8A     -0.979961     9A     -0.849682  
      10A     -0.770479    11A     -0.673377    12A     -0.653311  
      13A     -0.632606    14A     -0.571215    15A     -0.568143  
      16A     -0.513366    17A     -0.501493    18A     -0.491825  
      19A     -0.481704    20A     -0.421094  

    Virtual:                                                              

      21A      0.039038    22A      0.048801    23A      0.050120  
      24A      0.059701    25A      0.073773    26A      0.075980  
      27A      0.079318    28A      0.083718    29A      0.090355  
      30A      0.106824    31A      0.109167    32A      0.114955  
      33A      0.122462    34A      0.124670    35A      0.128488  
      36A      0.143746    37A      0.153647    38A      0.167163  
      39A      0.172226    40A      0.175539    41A      0.180029  
      42A      0.186071    43A      0.199343    44A      0.200175  
      45A      0.204958    46A      0.215854    47A      0.220535  
      48A      0.233759    49A      0.237061    50A      0.254445  
      51A      0.265443    52A      0.269610    53A      0.278028  
      54A      0.279897    55A      0.287435    56A      0.297299  
      57A      0.302731    58A      0.307261    59A      0.320324  
      60A      0.328286    61A      0.339432    62A      0.341946  
      63A      0.349181    64A      0.352584    65A      0.367716  
      66A      0.373432    67A      0.386271    68A      0.387935  
      69A      0.394243    70A      0.400045    71A      0.404852  
      72A      0.409837    73A      0.413421    74A      0.423619  
      75A      0.432173    76A      0.435145    77A      0.437241  
      78A      0.449936    79A      0.463463    80A      0.480103  
      81A      0.487760    82A      0.494784    83A      0.500861  
      84A      0.508936    85A      0.517542    86A      0.524274  
      87A      0.535428    88A      0.541003    89A      0.548624  
      90A      0.558021    91A      0.568140    92A      0.572972  
      93A      0.587681    94A      0.603653    95A      0.611713  
      96A      0.624598    97A      0.636897    98A      0.651797  
      99A      0.664679   100A      0.674280   101A      0.686054  
     102A      0.698270   103A      0.715587   104A      0.718194  
     105A      0.729467   106A      0.733649   107A      0.745248  
     108A      0.770481   109A      0.772600   110A      0.784174  
     111A      0.794738   112A      0.803371   113A      0.814823  
     114A      0.822772   115A      0.828571   116A      0.834934  
     117A      0.839108   118A      0.844465   119A      0.854687  
     120A      0.864231   121A      0.867072   122A      0.879251  
     123A      0.885750   124A      0.895534   125A      0.906777  
     126A      0.912523   127A      0.924275   128A      0.928140  
     129A      0.949946   130A      0.954550   131A      0.977525  
     132A      0.989709   133A      1.001279   134A      1.014858  
     135A      1.024697   136A      1.031294   137A      1.047984  
     138A      1.066367   139A      1.074761   140A      1.092538  
     141A      1.098086   142A      1.116447   143A      1.134075  
     144A      1.145148   145A      1.170396   146A      1.180447  
     147A      1.190901   148A      1.202825   149A      1.213847  
     150A      1.238864   151A      1.243589   152A      1.250803  
     153A      1.279099   154A      1.289324   155A      1.297729  
     156A      1.311656   157A      1.333906   158A      1.334956  
     159A      1.343653   160A      1.360377   161A      1.364336  
     162A      1.389387   163A      1.395705   164A      1.399079  
     165A      1.417590   166A      1.435108   167A      1.437326  
     168A      1.453959   169A      1.468843   170A      1.475856  
     171A      1.487550   172A      1.512450   173A      1.524652  
     174A      1.539043   175A      1.553063   176A      1.563358  
     177A      1.568331   178A      1.574926   179A      1.590244  
     180A      1.594607   181A      1.600284   182A      1.619345  
     183A      1.625333   184A      1.631335   185A      1.645213  
     186A      1.668185   187A      1.684879   188A      1.699998  
     189A      1.720333   190A      1.723859   191A      1.729166  
     192A      1.740607   193A      1.754700   194A      1.782787  
     195A      1.789368   196A      1.823351   197A      1.838250  
     198A      1.862243   199A      1.878369   200A      1.891699  
     201A      1.899670   202A      1.916071   203A      1.921865  
     204A      1.939568   205A      1.954735   206A      1.960332  
     207A      2.014910   208A      2.025858   209A      2.058472  
     210A      2.103332   211A      2.144195   212A      2.194558  
     213A      2.252084   214A      2.263158   215A      2.308141  
     216A      2.339149   217A      2.407004   218A      2.429958  
     219A      2.486445   220A      2.500811   221A      2.554236  
     222A      2.585924   223A      2.608188   224A      2.652095  
     225A      2.682897   226A      2.709500   227A      2.731672  
     228A      2.754869   229A      2.761641   230A      2.800206  
     231A      2.805653   232A      2.831885   233A      2.843377  
     234A      2.860360   235A      2.885316   236A      2.889131  
     237A      2.916962   238A      2.929009   239A      2.952694  
     240A      2.961469   241A      2.971315   242A      2.984765  
     243A      3.015593   244A      3.041638   245A      3.068099  
     246A      3.085353   247A      3.108487   248A      3.119354  
     249A      3.128252   250A      3.136418   251A      3.148268  
     252A      3.164725   253A      3.185698   254A      3.220084  
     255A      3.266362   256A      3.275323   257A      3.298007  
     258A      3.312103   259A      3.335405   260A      3.343659  
     261A      3.350104   262A      3.376502   263A      3.393310  
     264A      3.419081   265A      3.432459   266A      3.440635  
     267A      3.460089   268A      3.464566   269A      3.471469  
     270A      3.483358   271A      3.502117   272A      3.524700  
     273A      3.531073   274A      3.547640   275A      3.564913  
     276A      3.577786   277A      3.586688   278A      3.602226  
     279A      3.618980   280A      3.629238   281A      3.648771  
     282A      3.650483   283A      3.680785   284A      3.708644  
     285A      3.723418   286A      3.745482   287A      3.753720  
     288A      3.774545   289A      3.787731   290A      3.797748  
     291A      3.813174   292A      3.847056   293A      3.865933  
     294A      3.882142   295A      3.910312   296A      3.920647  
     297A      3.938865   298A      3.941589   299A      3.951248  
     300A      3.956892   301A      3.981520   302A      4.010979  
     303A      4.028375   304A      4.032772   305A      4.045436  
     306A      4.046759   307A      4.107382   308A      4.140039  
     309A      4.184548   310A      4.192179   311A      4.195662  
     312A      4.214776   313A      4.246523   314A      4.263118  
     315A      4.270645   316A      4.291857   317A      4.303195  
     318A      4.318732   319A      4.334740   320A      4.341346  
     321A      4.348077   322A      4.364855   323A      4.378014  
     324A      4.391340   325A      4.403527   326A      4.421015  
     327A      4.439320   328A      4.452220   329A      4.467043  
     330A      4.494267   331A      4.502904   332A      4.516028  
     333A      4.523174   334A      4.531603   335A      4.554919  
     336A      4.557793   337A      4.577732   338A      4.593982  
     339A      4.615796   340A      4.628306   341A      4.653753  
     342A      4.657103   343A      4.691554   344A      4.701359  
     345A      4.738370   346A      4.745258   347A      4.754997  
     348A      4.768122   349A      4.806974   350A      4.815110  
     351A      4.831879   352A      4.848334   353A      4.853650  
     354A      4.865857   355A      4.881774   356A      4.895653  
     357A      4.903799   358A      4.917162   359A      4.935035  
     360A      4.981082   361A      5.001529   362A      5.013171  
     363A      5.033008   364A      5.066642   365A      5.090354  
     366A      5.095806   367A      5.108667   368A      5.109459  
     369A      5.127849   370A      5.148466   371A      5.154906  
     372A      5.165422   373A      5.202368   374A      5.269671  
     375A      5.293424   376A      5.300558   377A      5.316992  
     378A      5.354416   379A      5.373887   380A      5.401739  
     381A      5.419493   382A      5.428775   383A      5.472390  
     384A      5.520944   385A      5.571957   386A      5.590866  
     387A      5.611440   388A      5.643086   389A      5.671964  
     390A      5.692066   391A      5.704158   392A      5.754745  
     393A      5.757528   394A      5.769513   395A      5.800524  
     396A      5.820732   397A      5.847494   398A      5.890347  
     399A      5.906844   400A      5.909077   401A      5.938379  
     402A      5.968124   403A      5.981795   404A      6.078066  
     405A      6.120487   406A      6.131811   407A      6.143949  
     408A      6.182487   409A      6.255474   410A      6.299217  
     411A      6.317649   412A      6.345550   413A      6.439120  
     414A      6.505171   415A      6.515006   416A      6.518815  
     417A      6.542954   418A      6.566289   419A      6.572240  
     420A      6.612346   421A      6.624290   422A      6.805232  
     423A      6.821325   424A      6.869172   425A      6.959931  
     426A      6.984334   427A      7.119959   428A      7.261327  
     429A      7.291245   430A      7.306105   431A      7.342906  
     432A      7.346361   433A      7.472164   434A      7.479047  
     435A      7.573421   436A      7.654212   437A      7.741073  
     438A      7.810835   439A      7.848865   440A      8.085552  
     441A      8.337696   442A      8.444907   443A      8.844906  
     444A      9.087324   445A      9.106332   446A      9.350525  
     447A      9.472056   448A      9.819227   449A      9.872904  
     450A      9.923200   451A     10.136926   452A     10.489033  
     453A     10.902288   454A     11.321556   455A     11.578285  
     456A     11.714657   457A     11.940911   458A     12.648356  
     459A     13.747136   460A     14.006315   461A     14.269632  
     462A     14.486262   463A     14.596488   464A     44.861519  
     465A     55.432296   466A     60.457920  

    Final Occupation by Irrep:
              A 
    DOCC [    20 ]

  @DF-RHF Final Energy:  -231.07146410219272

   => Energetics <=

    Nuclear Repulsion Energy =            172.3604602015208798
    One-Electron Energy =                -654.5535142729484051
    Two-Electron Energy =                 251.1215899692348046
    Total Energy =                       -231.0714641021927207

Computation Completed


Properties will be evaluated at   0.000000,   0.000000,   0.000000 [a0]

Properties computed using the SCF density matrix

  Nuclear Dipole Moment: [e a0]
     X:   -95.2714      Y:    25.9112      Z:    -5.3220

  Electronic Dipole Moment: [e a0]
     X:    94.4787      Y:   -26.3251      Z:     6.1772

  Dipole Moment: [e a0]
     X:    -0.7927      Y:    -0.4139      Z:     0.8551     Total:     1.2373

  Dipole Moment: [D]
     X:    -2.0149      Y:    -1.0520      Z:     2.1735     Total:     3.1450


*** tstop() called on r282 at Sat Sep 11 01:02:03 2021
Module time:
	user time   =      33.60 seconds =       0.56 minutes
	system time =       0.61 seconds =       0.01 minutes
	total time  =         34 seconds =       0.57 minutes
Total time:
	user time   =     116.22 seconds =       1.94 minutes
	system time =       2.47 seconds =       0.04 minutes
	total time  =        119 seconds =       1.98 minutes
  Constructing Basis Sets for SAPT...

   => Loading Basis Set <=

    Name: (JUN-CC-PVTZ AUX)
    Role: RIFIT
    Keyword: DF_BASIS_SAPT
    atoms 1, 8-9, 12, 16        entry C          line   132 file /home/r08543048/miniconda3/share/psi4/basis/jun-cc-pvtz-ri.gbs 
    atoms 2, 10                 entry O          line   244 file /home/r08543048/miniconda3/share/psi4/basis/jun-cc-pvtz-ri.gbs 
    atoms 3                     entry N          line   188 file /home/r08543048/miniconda3/share/psi4/basis/jun-cc-pvtz-ri.gbs 
    atoms 4-7, 11, 13-15, 17-19 entry H          line    30 file /home/r08543048/miniconda3/share/psi4/basis/jun-cc-pvtz-ri.gbs 


  //>>>>>>>>>>>>>>>>>>>>>>>>>>>>>>>>>>>//
  //               SAPT0               //
  //<<<<<<<<<<<<<<<<<<<<<<<<<<<<<<<<<<<//


*** tstart() called on r282
*** at Sat Sep 11 01:02:03 2021

        SAPT0  
    Ed Hohenstein
     6 June 2009

      Orbital Information
  --------------------------
    NSO        =       466
    NMO        =       466
    NRI        =      1106
    NOCC A     =        12
    NOCC B     =        20
    FOCC A     =         0
    FOCC B     =         0
    NVIR A     =       454
    NVIR B     =       446

    Elst10,r            =    -0.018544037264 [Eh]
    Exch10              =     0.016624078717 [Eh]
    Exch10 (S^2)        =     0.016523526161 [Eh]

    Iter     Energy [mEh]          dE [mEh]         Residual      Time [s]
       1      -2.72422773       2.724227731       8.598180466             1
       2      -3.26615018       0.541922444       4.622939988             2
       3      -3.38021167       0.114061494       1.349898544             2
       4      -3.35804137      -0.022170294       0.596645137             3
       5      -3.35288065      -0.005160722       0.214058905             4
       6      -3.35533522       0.002454569       0.080879190             5
       7      -3.35623241       0.000897185       0.017040111             5
       8      -3.35593411      -0.000298297       0.003476041             6
       9      -3.35594483       0.000010716       0.001033041             7
      10      -3.35595365       0.000008824       0.000295102             8
      11      -3.35595040      -0.000003249       0.000129158             8
      12      -3.35595052       0.000000121       0.000050425             9
      13      -3.35595092       0.000000398       0.000012182            10
      14      -3.35595088      -0.000000044       0.000003015            11
      15      -3.35595086      -0.000000013       0.000000827            11

    CHF Iterations converged


    Iter     Energy [mEh]          dE [mEh]         Residual      Time [s]
       1      -4.08790754       4.087907543      18.151574311             1
       2      -4.33450570       0.246598158       7.326316628             2
       3      -4.86840689       0.533901186       2.416510049             3
       4      -4.89276273       0.024355842       1.013453932             4
       5      -4.85857696      -0.034185770       0.300206103             4
       6      -4.86173725       0.003160292       0.106832973             5
       7      -4.86378759       0.002050342       0.036380328             6
       8      -4.86338230      -0.000405292       0.023819815             7
       9      -4.86317933      -0.000202969       0.008207527             8
      10      -4.86329820       0.000118873       0.002540091             9
      11      -4.86330785       0.000009643       0.000629516             9
      12      -4.86330044      -0.000007412       0.000165178            10
      13      -4.86330039      -0.000000048       0.000040360            11
      14      -4.86330075       0.000000365       0.000012760            12
      15      -4.86330077       0.000000017       0.000003859            13
      16      -4.86330073      -0.000000038       0.000001060            13
      17      -4.86330074       0.000000004       0.000000354            14

    CHF Iterations converged

    Ind20,r (A<-B)      =    -0.003355950862 [Eh]
    Ind20,r (B<-A)      =    -0.004863300736 [Eh]
    Ind20,r             =    -0.008219251598 [Eh]
    Exch-Ind20,r (A<-B) =     0.002462323987 [Eh]
    Exch-Ind20,r (B<-A) =     0.002130128476 [Eh]
    Exch-Ind20,r        =     0.004592452463 [Eh]
    Disp20              =    -0.011278013646 [Eh]
    Disp20 (SS)         =    -0.005639006823 [Eh]
    Disp20 (OS)         =    -0.005639006823 [Eh]
    Exch-Disp20         =     0.001497454577 [Eh]
    Exch-Disp20 (SS)    =     0.000935805672 [Eh]
    Exch-Disp20 (OS)    =     0.000561648905 [Eh]

    SAPT Results 
  --------------------------------------------------------------------------------------------------------
    Electrostatics                -18.54403726 [mEh]     -11.63655907 [kcal/mol]     -48.68736313 [kJ/mol]
      Elst10,r                    -18.54403726 [mEh]     -11.63655907 [kcal/mol]     -48.68736313 [kJ/mol]

    Exchange                       16.62407872 [mEh]      10.43176689 [kcal/mol]      43.64651266 [kJ/mol]
      Exch10                       16.62407872 [mEh]      10.43176689 [kcal/mol]      43.64651266 [kJ/mol]
      Exch10(S^2)                  16.52352616 [mEh]      10.36866921 [kcal/mol]      43.38251196 [kJ/mol]

    Induction                      -5.73206076 [mEh]      -3.59692243 [kcal/mol]     -15.04952345 [kJ/mol]
      Ind20,r                      -8.21925160 [mEh]      -5.15765825 [kcal/mol]     -21.57964210 [kJ/mol]
      Exch-Ind20,r                  4.59245246 [mEh]       2.88180743 [kcal/mol]      12.05748228 [kJ/mol]
      delta HF,r (2)               -2.10526163 [mEh]      -1.32107161 [kcal/mol]      -5.52736364 [kJ/mol]

    Dispersion                     -9.78055907 [mEh]      -6.13739347 [kcal/mol]     -25.67885430 [kJ/mol]
      Disp20                      -11.27801365 [mEh]      -7.07706041 [kcal/mol]     -29.61042075 [kJ/mol]
      Exch-Disp20                   1.49745458 [mEh]       0.93966693 [kcal/mol]       3.93156645 [kJ/mol]
      Disp20 (SS)                  -5.63900682 [mEh]      -3.53853020 [kcal/mol]     -14.80521037 [kJ/mol]
      Disp20 (OS)                  -5.63900682 [mEh]      -3.53853020 [kcal/mol]     -14.80521037 [kJ/mol]
      Exch-Disp20 (SS)              0.93580567 [mEh]       0.58722692 [kcal/mol]       2.45695745 [kJ/mol]
      Exch-Disp20 (OS)              0.56164890 [mEh]       0.35244001 [kcal/mol]       1.47460900 [kJ/mol]

  Total HF                         -7.65201931 [mEh]      -4.80171461 [kcal/mol]     -20.09037392 [kJ/mol]
  Total SAPT0                     -17.43257838 [mEh]     -10.93910808 [kcal/mol]     -45.76922822 [kJ/mol]

  Special recipe for scaled SAPT0 (see Manual):
    Electrostatics sSAPT0         -18.54403726 [mEh]     -11.63655907 [kcal/mol]     -48.68736313 [kJ/mol]
    Exchange sSAPT0                16.62407872 [mEh]      10.43176689 [kcal/mol]      43.64651266 [kJ/mol]
    Induction sSAPT0               -5.64770854 [mEh]      -3.54399062 [kcal/mol]     -14.82805674 [kJ/mol]
    Dispersion sSAPT0              -9.75305446 [mEh]      -6.12013407 [kcal/mol]     -25.60664096 [kJ/mol]
  Total sSAPT0                    -17.32072155 [mEh]     -10.86891687 [kcal/mol]     -45.47554817 [kJ/mol]
  --------------------------------------------------------------------------------------------------------

*** tstop() called on r282 at Sat Sep 11 01:03:42 2021
Module time:
	user time   =      83.32 seconds =       1.39 minutes
	system time =      15.79 seconds =       0.26 minutes
	total time  =         99 seconds =       1.65 minutes
Total time:
	user time   =     199.66 seconds =       3.33 minutes
	system time =      18.26 seconds =       0.30 minutes
	total time  =        218 seconds =       3.63 minutes

    Psi4 stopped on: Saturday, 11 September 2021 01:03AM
    Psi4 wall time for execution: 0:03:38.27

*** Psi4 exiting successfully. Buy a developer a beer!
