
    -----------------------------------------------------------------------
          Psi4: An Open-Source Ab Initio Electronic Structure Package
                               Psi4 1.3.2 release

                         Git: Rev {HEAD} ecbda83 


    R. M. Parrish, L. A. Burns, D. G. A. Smith, A. C. Simmonett,
    A. E. DePrince III, E. G. Hohenstein, U. Bozkaya, A. Yu. Sokolov,
    R. Di Remigio, R. M. Richard, J. F. Gonthier, A. M. James,
    H. R. McAlexander, A. Kumar, M. Saitow, X. Wang, B. P. Pritchard,
    P. Verma, H. F. Schaefer III, K. Patkowski, R. A. King, E. F. Valeev,
    F. A. Evangelista, J. M. Turney, T. D. Crawford, and C. D. Sherrill,
    J. Chem. Theory Comput. 13(7) pp 3185--3197 (2017).
    (doi: 10.1021/acs.jctc.7b00174)


                         Additional Contributions by
    P. Kraus, H. Kruse, M. H. Lechner, M. C. Schieber, R. A. Shaw,
    A. Alenaizan, R. Galvelis, Z. L. Glick, S. Lehtola, and J. P. Misiewicz

    -----------------------------------------------------------------------


    Psi4 started on: Saturday, 11 September 2021 01:17AM

    Process ID: 57423
    Host:       r282
    PSIDATADIR: /home/r08543048/miniconda3/share/psi4
    Memory:     500.0 MiB
    Threads:    1
    
  ==> Input File <==

--------------------------------------------------------------------------
# Any line starting with the # character is a comment line
#! Sample  computation

memory 22 gb

molecule Dimer {
0 1
 C  2.127950    0.493686   -0.226316
 C  0.646859    0.191169   -0.108268
 O  0.206081   -0.953279   -0.197654
 N -0.157722    1.265842    0.077173
 H -1.163363    1.135259    0.104041
 H  0.227063    2.189710    0.140589
 C  2.983271   -0.655971    0.283997
 H  2.721891   -1.575125   -0.234257
 H  4.040170   -0.448264    0.125419
 H  2.820000   -0.815818    1.348782
 H  2.328601    0.669596   -1.286134
 H  2.361672    1.421683    0.298059



    
    
    
 --
0 1
 C  -3.017561   -0.786596    0.002537
 O  -3.037319    0.427964    0.116582
 H  -3.955567   -1.359084   -0.008946
 H  -2.069630   -1.330052   -0.090890
  
  
  
  
  
  
  
  







units angstrom

no_reorient
symmetry c1
}

set globals{
  basis jun-cc-pvtz
}

energy('sapt0')


--------------------------------------------------------------------------

  Memory set to  20.489 GiB by Python driver.

  //>>>>>>>>>>>>>>>>>>>>>>>>>>>>>>>>>>>//
  //              Dimer HF             //
  //<<<<<<<<<<<<<<<<<<<<<<<<<<<<<<<<<<<//


*** tstart() called on r282
*** at Sat Sep 11 01:17:44 2021

   => Loading Basis Set <=

    Name: JUN-CC-PVTZ
    Role: ORBITAL
    Keyword: BASIS
    atoms 1-2, 7, 13       entry C          line   217 file /home/r08543048/miniconda3/share/psi4/basis/jun-cc-pvtz.gbs 
    atoms 3, 14            entry O          line   305 file /home/r08543048/miniconda3/share/psi4/basis/jun-cc-pvtz.gbs 
    atoms 4                entry N          line   261 file /home/r08543048/miniconda3/share/psi4/basis/jun-cc-pvtz.gbs 
    atoms 5-6, 8-12, 15-16 entry H          line    36 file /home/r08543048/miniconda3/share/psi4/basis/jun-cc-pvtz.gbs 


         ---------------------------------------------------------
                                   SCF
               by Justin Turney, Rob Parrish, Andy Simmonett
                          and Daniel G. A. Smith
                              RHF Reference
                        1 Threads,  20980 MiB Core
         ---------------------------------------------------------

  ==> Geometry <==

    Molecular point group: c1
    Full point group: C1

    Geometry (in Angstrom), charge = 0, multiplicity = 1:

       Center              X                  Y                   Z               Mass       
    ------------   -----------------  -----------------  -----------------  -----------------
         C            2.198195454748     0.492543066958    -0.222503648966    12.000000000000
         C            0.717104454748     0.190026066958    -0.104455648966    12.000000000000
         O            0.276326454748    -0.954421933042    -0.193841648966    15.994914619570
         N           -0.087476545252     1.264699066958     0.080985351034    14.003074004430
         H           -1.093117545252     1.134116066958     0.107853351034     1.007825032230
         H            0.297308454748     2.188567066958     0.144401351034     1.007825032230
         C            3.053516454748    -0.657113933042     0.287809351034    12.000000000000
         H            2.792136454748    -1.576267933042    -0.230444648966     1.007825032230
         H            4.110415454748    -0.449406933042     0.129231351034     1.007825032230
         H            2.890245454748    -0.816960933042     1.352594351034     1.007825032230
         H            2.398846454748     0.668453066958    -1.282321648966     1.007825032230
         H            2.431917454748     1.420540066958     0.301871351034     1.007825032230
         C           -2.947315545252    -0.787738933042     0.006349351034    12.000000000000
         O           -2.967073545252     0.426821066958     0.120394351034    15.994914619570
         H           -3.885321545252    -1.360226933042    -0.005133648966     1.007825032230
         H           -1.999384545252    -1.331194933042    -0.087077648966     1.007825032230

  Running in c1 symmetry.

  Rotational constants: A =      0.21668  B =      0.03410  C =      0.03013 [cm^-1]
  Rotational constants: A =   6495.78053  B =   1022.20955  C =    903.22592 [MHz]
  Nuclear repulsion =  293.027764167831549

  Charge       = 0
  Multiplicity = 1
  Electrons    = 56
  Nalpha       = 28
  Nbeta        = 28

  ==> Algorithm <==

  SCF Algorithm Type is DF.
  DIIS enabled.
  MOM disabled.
  Fractional occupation disabled.
  Guess Type is SAD.
  Energy threshold   = 1.00e-08
  Density threshold  = 1.00e-08
  Integral threshold = 0.00e+00

  ==> Primary Basis <==

  Basis Set: JUN-CC-PVTZ
    Blend: JUN-CC-PVTZ
    Number of shells: 145
    Number of basis function: 399
    Number of Cartesian functions: 450
    Spherical Harmonics?: true
    Max angular momentum: 3

   => Loading Basis Set <=

    Name: (JUN-CC-PVTZ AUX)
    Role: JKFIT
    Keyword: DF_BASIS_SCF
    atoms 1-2, 7, 13       entry C          line   152 file /home/r08543048/miniconda3/share/psi4/basis/jun-cc-pvtz-jkfit.gbs 
    atoms 3, 14            entry O          line   272 file /home/r08543048/miniconda3/share/psi4/basis/jun-cc-pvtz-jkfit.gbs 
    atoms 4                entry N          line   212 file /home/r08543048/miniconda3/share/psi4/basis/jun-cc-pvtz-jkfit.gbs 
    atoms 5-6, 8-12, 15-16 entry H          line    70 file /home/r08543048/miniconda3/share/psi4/basis/jun-cc-pvtz-jkfit.gbs 

  ==> Pre-Iterations <==

   -------------------------------------------------------
    Irrep   Nso     Nmo     Nalpha   Nbeta   Ndocc  Nsocc
   -------------------------------------------------------
     A        399     399       0       0       0       0
   -------------------------------------------------------
    Total     399     399      28      28      28       0
   -------------------------------------------------------

  ==> Integral Setup <==

  ==> DiskDFJK: Density-Fitted J/K Matrices <==

    J tasked:                  Yes
    K tasked:                  Yes
    wK tasked:                  No
    OpenMP threads:              1
    Integrals threads:           1
    Memory [MiB]:            15735
    Algorithm:                Core
    Integral Cache:           SAVE
    Schwarz Cutoff:          1E-12
    Fitting Condition:       1E-10

   => Auxiliary Basis Set <=

  Basis Set: (JUN-CC-PVTZ AUX)
    Blend: JUN-CC-PVTZ-JKFIT
    Number of shells: 293
    Number of basis function: 935
    Number of Cartesian functions: 1127
    Spherical Harmonics?: true
    Max angular momentum: 4

  Minimum eigenvalue in the overlap matrix is 4.2328610448E-05.
  Using Symmetric Orthogonalization.

  SCF Guess: Superposition of Atomic Densities via on-the-fly atomic UHF.

  ==> Iterations <==

                           Total Energy        Delta E     RMS |[F,P]|

   @DF-RHF iter SAD:  -359.52457126199351   -3.59525e+02   0.00000e+00 
   @DF-RHF iter   1:  -360.76924785307693   -1.24468e+00   1.85360e-03 DIIS
   @DF-RHF iter   2:  -360.95516608617044   -1.85918e-01   1.14350e-03 DIIS
   @DF-RHF iter   3:  -361.02671837114201   -7.15523e-02   2.04781e-04 DIIS
   @DF-RHF iter   4:  -361.03040485144680   -3.68648e-03   8.24030e-05 DIIS
   @DF-RHF iter   5:  -361.03107181124540   -6.66960e-04   1.35974e-05 DIIS
   @DF-RHF iter   6:  -361.03111400109429   -4.21898e-05   5.78413e-06 DIIS
   @DF-RHF iter   7:  -361.03112014652817   -6.14543e-06   2.63096e-06 DIIS
   @DF-RHF iter   8:  -361.03112163579800   -1.48927e-06   1.02099e-06 DIIS
   @DF-RHF iter   9:  -361.03112188656195   -2.50764e-07   2.98527e-07 DIIS
   @DF-RHF iter  10:  -361.03112190164126   -1.50793e-08   1.35175e-07 DIIS
   @DF-RHF iter  11:  -361.03112190359155   -1.95030e-09   3.10871e-08 DIIS
   @DF-RHF iter  12:  -361.03112190374264   -1.51090e-10   9.16882e-09 DIIS
  Energy and wave function converged.


  ==> Post-Iterations <==

    Orbital Energies [Eh]
    ---------------------

    Doubly Occupied:                                                      

       1A    -20.576081     2A    -20.512758     3A    -15.571823  
       4A    -11.346682     5A    -11.336214     6A    -11.238300  
       7A    -11.214870     8A     -1.399241     9A     -1.371338  
      10A     -1.203037    11A     -1.049608    12A     -0.890114  
      13A     -0.866736    14A     -0.778110    15A     -0.720724  
      16A     -0.685112    17A     -0.671252    18A     -0.647544  
      19A     -0.629260    20A     -0.594847    21A     -0.555756  
      22A     -0.533684    23A     -0.522610    24A     -0.513128  
      25A     -0.492446    26A     -0.443753    27A     -0.419182  
      28A     -0.406679  

    Virtual:                                                              

      29A      0.047041    30A      0.057443    31A      0.059037  
      32A      0.066920    33A      0.075580    34A      0.081410  
      35A      0.083934    36A      0.100942    37A      0.109271  
      38A      0.111347    39A      0.117600    40A      0.123542  
      41A      0.139163    42A      0.145861    43A      0.159426  
      44A      0.165535    45A      0.169552    46A      0.188968  
      47A      0.192442    48A      0.201115    49A      0.210819  
      50A      0.227610    51A      0.232426    52A      0.238150  
      53A      0.246462    54A      0.253203    55A      0.258568  
      56A      0.265801    57A      0.273193    58A      0.289621  
      59A      0.296652    60A      0.301493    61A      0.304220  
      62A      0.312632    63A      0.318587    64A      0.328291  
      65A      0.335078    66A      0.339127    67A      0.345951  
      68A      0.362244    69A      0.372398    70A      0.378405  
      71A      0.391090    72A      0.393218    73A      0.411076  
      74A      0.421816    75A      0.423107    76A      0.433676  
      77A      0.442865    78A      0.449316    79A      0.458876  
      80A      0.465350    81A      0.481993    82A      0.503815  
      83A      0.506663    84A      0.520811    85A      0.533793  
      86A      0.539798    87A      0.554930    88A      0.565335  
      89A      0.577153    90A      0.582196    91A      0.590678  
      92A      0.606541    93A      0.621667    94A      0.624801  
      95A      0.631476    96A      0.638461    97A      0.654677  
      98A      0.675531    99A      0.692824   100A      0.701340  
     101A      0.716976   102A      0.731770   103A      0.735715  
     104A      0.751075   105A      0.752309   106A      0.775879  
     107A      0.786151   108A      0.790470   109A      0.803038  
     110A      0.806743   111A      0.812819   112A      0.833212  
     113A      0.848418   114A      0.857302   115A      0.866503  
     116A      0.871143   117A      0.879336   118A      0.886880  
     119A      0.897249   120A      0.901219   121A      0.921665  
     122A      0.924849   123A      0.949536   124A      0.968095  
     125A      0.981438   126A      0.998448   127A      1.000797  
     128A      1.021724   129A      1.035475   130A      1.059051  
     131A      1.065572   132A      1.077217   133A      1.096556  
     134A      1.100799   135A      1.120059   136A      1.131262  
     137A      1.138883   138A      1.162410   139A      1.167925  
     140A      1.196161   141A      1.220138   142A      1.242389  
     143A      1.253744   144A      1.276712   145A      1.287265  
     146A      1.288807   147A      1.311395   148A      1.324616  
     149A      1.333724   150A      1.341816   151A      1.351978  
     152A      1.362068   153A      1.377182   154A      1.379355  
     155A      1.390210   156A      1.403292   157A      1.406781  
     158A      1.437978   159A      1.443517   160A      1.456043  
     161A      1.457271   162A      1.479754   163A      1.484405  
     164A      1.498106   165A      1.510847   166A      1.538234  
     167A      1.540897   168A      1.567938   169A      1.592843  
     170A      1.609722   171A      1.616799   172A      1.645629  
     173A      1.670406   174A      1.684307   175A      1.714713  
     176A      1.717423   177A      1.735287   178A      1.743430  
     179A      1.767956   180A      1.776899   181A      1.808583  
     182A      1.844353   183A      1.883091   184A      1.903362  
     185A      1.912382   186A      1.940113   187A      1.954541  
     188A      1.983114   189A      2.031997   190A      2.061205  
     191A      2.115932   192A      2.165908   193A      2.198501  
     194A      2.252568   195A      2.262861   196A      2.297945  
     197A      2.311009   198A      2.384898   199A      2.428492  
     200A      2.471084   201A      2.482363   202A      2.509642  
     203A      2.515617   204A      2.617722   205A      2.681812  
     206A      2.704318   207A      2.735651   208A      2.765071  
     209A      2.806812   210A      2.816078   211A      2.834478  
     212A      2.848076   213A      2.878557   214A      2.902886  
     215A      2.920709   216A      2.969375   217A      2.970702  
     218A      3.003010   219A      3.034104   220A      3.048422  
     221A      3.070713   222A      3.098729   223A      3.122815  
     224A      3.128194   225A      3.140611   226A      3.167108  
     227A      3.179424   228A      3.209193   229A      3.231737  
     230A      3.250832   231A      3.276673   232A      3.336492  
     233A      3.345587   234A      3.361022   235A      3.372854  
     236A      3.380341   237A      3.390490   238A      3.395281  
     239A      3.424204   240A      3.441204   241A      3.451050  
     242A      3.457208   243A      3.475491   244A      3.490685  
     245A      3.494344   246A      3.508489   247A      3.517805  
     248A      3.529471   249A      3.550606   250A      3.550854  
     251A      3.557766   252A      3.569050   253A      3.576209  
     254A      3.601175   255A      3.620290   256A      3.630270  
     257A      3.658755   258A      3.675381   259A      3.685015  
     260A      3.689265   261A      3.718126   262A      3.733139  
     263A      3.741405   264A      3.782894   265A      3.794873  
     266A      3.820682   267A      3.841136   268A      3.849361  
     269A      3.857588   270A      3.887297   271A      3.905728  
     272A      3.928149   273A      3.933042   274A      3.981293  
     275A      3.997939   276A      4.011847   277A      4.014616  
     278A      4.037292   279A      4.064445   280A      4.102383  
     281A      4.118172   282A      4.182406   283A      4.194633  
     284A      4.200446   285A      4.239322   286A      4.251487  
     287A      4.267569   288A      4.275521   289A      4.288642  
     290A      4.299708   291A      4.313295   292A      4.327659  
     293A      4.332231   294A      4.355957   295A      4.370983  
     296A      4.391278   297A      4.416821   298A      4.430948  
     299A      4.434316   300A      4.452463   301A      4.468028  
     302A      4.480277   303A      4.487507   304A      4.499123  
     305A      4.521883   306A      4.548133   307A      4.564722  
     308A      4.603367   309A      4.622562   310A      4.666085  
     311A      4.668165   312A      4.691986   313A      4.707093  
     314A      4.728984   315A      4.748829   316A      4.802795  
     317A      4.810842   318A      4.865098   319A      4.901387  
     320A      4.922287   321A      4.943968   322A      4.966798  
     323A      4.983328   324A      5.006311   325A      5.035965  
     326A      5.121541   327A      5.141131   328A      5.152859  
     329A      5.172263   330A      5.180946   331A      5.219382  
     332A      5.230635   333A      5.267204   334A      5.279850  
     335A      5.299889   336A      5.300985   337A      5.338661  
     338A      5.354774   339A      5.389650   340A      5.457339  
     341A      5.477235   342A      5.529856   343A      5.546345  
     344A      5.554676   345A      5.571050   346A      5.641100  
     347A      5.677223   348A      5.680978   349A      5.723081  
     350A      5.736417   351A      5.745166   352A      5.773558  
     353A      5.779092   354A      5.801737   355A      5.844621  
     356A      5.862183   357A      5.878293   358A      5.916197  
     359A      5.984309   360A      6.002360   361A      6.031573  
     362A      6.070873   363A      6.098433   364A      6.105260  
     365A      6.200456   366A      6.220640   367A      6.232655  
     368A      6.322357   369A      6.401079   370A      6.489601  
     371A      6.503715   372A      6.526029   373A      6.610386  
     374A      6.694064   375A      6.723368   376A      6.793111  
     377A      6.817977   378A      6.946054   379A      7.155905  
     380A      7.210084   381A      7.267714   382A      7.280485  
     383A      7.365024   384A      7.399313   385A      7.443190  
     386A      7.482517   387A      7.487277   388A      7.506911  
     389A      7.636179   390A      7.687077   391A      7.765599  
     392A      7.823652   393A     12.163637   394A     12.460135  
     395A     13.935169   396A     14.021199   397A     14.554017  
     398A     14.593755   399A     15.849234  

    Final Occupation by Irrep:
              A 
    DOCC [    28 ]

  @DF-RHF Final Energy:  -361.03112190374264

   => Energetics <=

    Nuclear Repulsion Energy =            293.0277641678315490
    One-Electron Energy =               -1073.7359906917401986
    Two-Electron Energy =                 419.6771046201660624
    Total Energy =                       -361.0311219037426440

Computation Completed


Properties will be evaluated at   0.000000,   0.000000,   0.000000 [a0]

Properties computed using the SCF density matrix

  Nuclear Dipole Moment: [e a0]
     X:     7.4337      Y:    -0.1209      Z:     0.4034

  Electronic Dipole Moment: [e a0]
     X:    -7.1149      Y:     0.5047      Z:    -0.4105

  Dipole Moment: [e a0]
     X:     0.3188      Y:     0.3838      Z:    -0.0070     Total:     0.4990

  Dipole Moment: [D]
     X:     0.8103      Y:     0.9755      Z:    -0.0178     Total:     1.2683


*** tstop() called on r282 at Sat Sep 11 01:18:16 2021
Module time:
	user time   =      30.35 seconds =       0.51 minutes
	system time =       0.82 seconds =       0.01 minutes
	total time  =         32 seconds =       0.53 minutes
Total time:
	user time   =      30.35 seconds =       0.51 minutes
	system time =       0.82 seconds =       0.01 minutes
	total time  =         32 seconds =       0.53 minutes

  //>>>>>>>>>>>>>>>>>>>>>>>>>>>>>>>>>>>//
  //            Monomer A HF           //
  //<<<<<<<<<<<<<<<<<<<<<<<<<<<<<<<<<<<//


*** tstart() called on r282
*** at Sat Sep 11 01:18:16 2021

   => Loading Basis Set <=

    Name: JUN-CC-PVTZ
    Role: ORBITAL
    Keyword: BASIS
    atoms 1-2, 7, 13       entry C          line   217 file /home/r08543048/miniconda3/share/psi4/basis/jun-cc-pvtz.gbs 
    atoms 3, 14            entry O          line   305 file /home/r08543048/miniconda3/share/psi4/basis/jun-cc-pvtz.gbs 
    atoms 4                entry N          line   261 file /home/r08543048/miniconda3/share/psi4/basis/jun-cc-pvtz.gbs 
    atoms 5-6, 8-12, 15-16 entry H          line    36 file /home/r08543048/miniconda3/share/psi4/basis/jun-cc-pvtz.gbs 


         ---------------------------------------------------------
                                   SCF
               by Justin Turney, Rob Parrish, Andy Simmonett
                          and Daniel G. A. Smith
                              RHF Reference
                        1 Threads,  20980 MiB Core
         ---------------------------------------------------------

  ==> Geometry <==

    Molecular point group: c1
    Full point group: C1

    Geometry (in Angstrom), charge = 0, multiplicity = 1:

       Center              X                  Y                   Z               Mass       
    ------------   -----------------  -----------------  -----------------  -----------------
         C            2.198195454748     0.492543066958    -0.222503648966    12.000000000000
         C            0.717104454748     0.190026066958    -0.104455648966    12.000000000000
         O            0.276326454748    -0.954421933042    -0.193841648966    15.994914619570
         N           -0.087476545252     1.264699066958     0.080985351034    14.003074004430
         H           -1.093117545252     1.134116066958     0.107853351034     1.007825032230
         H            0.297308454748     2.188567066958     0.144401351034     1.007825032230
         C            3.053516454748    -0.657113933042     0.287809351034    12.000000000000
         H            2.792136454748    -1.576267933042    -0.230444648966     1.007825032230
         H            4.110415454748    -0.449406933042     0.129231351034     1.007825032230
         H            2.890245454748    -0.816960933042     1.352594351034     1.007825032230
         H            2.398846454748     0.668453066958    -1.282321648966     1.007825032230
         H            2.431917454748     1.420540066958     0.301871351034     1.007825032230
      Gh(C)          -2.947315545252    -0.787738933042     0.006349351034    12.000000000000
      Gh(O)          -2.967073545252     0.426821066958     0.120394351034    15.994914619570
      Gh(H)          -3.885321545252    -1.360226933042    -0.005133648966     1.007825032230
      Gh(H)          -1.999384545252    -1.331194933042    -0.087077648966     1.007825032230

  Running in c1 symmetry.

  Rotational constants: A =      0.21668  B =      0.03410  C =      0.03013 [cm^-1]
  Rotational constants: A =   6495.78053  B =   1022.20955  C =    903.22592 [MHz]
  Nuclear repulsion =  179.131523849122516

  Charge       = 0
  Multiplicity = 1
  Electrons    = 40
  Nalpha       = 20
  Nbeta        = 20

  ==> Algorithm <==

  SCF Algorithm Type is DF.
  DIIS enabled.
  MOM disabled.
  Fractional occupation disabled.
  Guess Type is SAD.
  Energy threshold   = 1.00e-08
  Density threshold  = 1.00e-08
  Integral threshold = 0.00e+00

  ==> Primary Basis <==

  Basis Set: JUN-CC-PVTZ
    Blend: JUN-CC-PVTZ
    Number of shells: 145
    Number of basis function: 399
    Number of Cartesian functions: 450
    Spherical Harmonics?: true
    Max angular momentum: 3

   => Loading Basis Set <=

    Name: (JUN-CC-PVTZ AUX)
    Role: JKFIT
    Keyword: DF_BASIS_SCF
    atoms 1-2, 7, 13       entry C          line   152 file /home/r08543048/miniconda3/share/psi4/basis/jun-cc-pvtz-jkfit.gbs 
    atoms 3, 14            entry O          line   272 file /home/r08543048/miniconda3/share/psi4/basis/jun-cc-pvtz-jkfit.gbs 
    atoms 4                entry N          line   212 file /home/r08543048/miniconda3/share/psi4/basis/jun-cc-pvtz-jkfit.gbs 
    atoms 5-6, 8-12, 15-16 entry H          line    70 file /home/r08543048/miniconda3/share/psi4/basis/jun-cc-pvtz-jkfit.gbs 

  ==> Pre-Iterations <==

   -------------------------------------------------------
    Irrep   Nso     Nmo     Nalpha   Nbeta   Ndocc  Nsocc
   -------------------------------------------------------
     A        399     399       0       0       0       0
   -------------------------------------------------------
    Total     399     399      20      20      20       0
   -------------------------------------------------------

  ==> Integral Setup <==

  ==> DiskDFJK: Density-Fitted J/K Matrices <==

    J tasked:                  Yes
    K tasked:                  Yes
    wK tasked:                  No
    OpenMP threads:              1
    Integrals threads:           1
    Memory [MiB]:            15735
    Algorithm:                Core
    Integral Cache:           LOAD
    Schwarz Cutoff:          1E-12
    Fitting Condition:       1E-10

   => Auxiliary Basis Set <=

  Basis Set: (JUN-CC-PVTZ AUX)
    Blend: JUN-CC-PVTZ-JKFIT
    Number of shells: 293
    Number of basis function: 935
    Number of Cartesian functions: 1127
    Spherical Harmonics?: true
    Max angular momentum: 4

  Minimum eigenvalue in the overlap matrix is 4.2328610448E-05.
  Using Symmetric Orthogonalization.

  SCF Guess: Superposition of Atomic Densities via on-the-fly atomic UHF.

  ==> Iterations <==

                           Total Energy        Delta E     RMS |[F,P]|

   @DF-RHF iter SAD:  -246.29995874666710   -2.46300e+02   0.00000e+00 
   @DF-RHF iter   1:  -246.89362009129812   -5.93661e-01   1.64059e-03 DIIS
   @DF-RHF iter   2:  -247.05494401789426   -1.61324e-01   9.47908e-04 DIIS
   @DF-RHF iter   3:  -247.10565502442529   -5.07110e-02   1.85135e-04 DIIS
   @DF-RHF iter   4:  -247.10866992975758   -3.01491e-03   8.06075e-05 DIIS
   @DF-RHF iter   5:  -247.10930856095746   -6.38631e-04   1.27753e-05 DIIS
   @DF-RHF iter   6:  -247.10934525252964   -3.66916e-05   5.12632e-06 DIIS
   @DF-RHF iter   7:  -247.10934997928911   -4.72676e-06   2.23182e-06 DIIS
   @DF-RHF iter   8:  -247.10935103510909   -1.05582e-06   8.78528e-07 DIIS
   @DF-RHF iter   9:  -247.10935122567679   -1.90568e-07   1.98890e-07 DIIS
   @DF-RHF iter  10:  -247.10935123604548   -1.03687e-08   4.80227e-08 DIIS
   @DF-RHF iter  11:  -247.10935123646846   -4.22972e-10   1.38045e-08 DIIS
   @DF-RHF iter  12:  -247.10935123650660   -3.81419e-11   3.83291e-09 DIIS
  Energy and wave function converged.


  ==> Post-Iterations <==

    Orbital Energies [Eh]
    ---------------------

    Doubly Occupied:                                                      

       1A    -20.513956     2A    -15.588305     3A    -11.349588  
       4A    -11.241556     5A    -11.215973     6A     -1.371584  
       7A     -1.213840     8A     -1.052199     9A     -0.893470  
      10A     -0.785713    11A     -0.723099    12A     -0.672436  
      13A     -0.632623    14A     -0.596829    15A     -0.558754  
      16A     -0.524352    17A     -0.514881    18A     -0.494455  
      19A     -0.420375    20A     -0.413678  

    Virtual:                                                              

      21A      0.039341    22A      0.047450    23A      0.057780  
      24A      0.068390    25A      0.075704    26A      0.083942  
      27A      0.088370    28A      0.099070    29A      0.107326  
      30A      0.112236    31A      0.118386    32A      0.124694  
      33A      0.136769    34A      0.149843    35A      0.151286  
      36A      0.159599    37A      0.171916    38A      0.185432  
      39A      0.190694    40A      0.195001    41A      0.204459  
      42A      0.212539    43A      0.224398    44A      0.231371  
      45A      0.241525    46A      0.257608    47A      0.265616  
      48A      0.274345    49A      0.280345    50A      0.287847  
      51A      0.296637    52A      0.305320    53A      0.312475  
      54A      0.313357    55A      0.322414    56A      0.334848  
      57A      0.339274    58A      0.346504    59A      0.356876  
      60A      0.362863    61A      0.366976    62A      0.377933  
      63A      0.385969    64A      0.404462    65A      0.410776  
      66A      0.420197    67A      0.427117    68A      0.430956  
      69A      0.437518    70A      0.450022    71A      0.469108  
      72A      0.479553    73A      0.487186    74A      0.501699  
      75A      0.505995    76A      0.516867    77A      0.521688  
      78A      0.533693    79A      0.541078    80A      0.550356  
      81A      0.558399    82A      0.572774    83A      0.593140  
      84A      0.600188    85A      0.614031    86A      0.626955  
      87A      0.634074    88A      0.650976    89A      0.657475  
      90A      0.686640    91A      0.701304    92A      0.705371  
      93A      0.717808    94A      0.729556    95A      0.739921  
      96A      0.749155    97A      0.758832    98A      0.769031  
      99A      0.790378   100A      0.791803   101A      0.804684  
     102A      0.809517   103A      0.815829   104A      0.849725  
     105A      0.856855   106A      0.862124   107A      0.879688  
     108A      0.892582   109A      0.902606   110A      0.909116  
     111A      0.924433   112A      0.925743   113A      0.954151  
     114A      0.963559   115A      0.983990   116A      0.995930  
     117A      0.999631   118A      1.003867   119A      1.023964  
     120A      1.028840   121A      1.053322   122A      1.066476  
     123A      1.079711   124A      1.099173   125A      1.109866  
     126A      1.115370   127A      1.130451   128A      1.146776  
     129A      1.159759   130A      1.182774   131A      1.205961  
     132A      1.208179   133A      1.221034   134A      1.229962  
     135A      1.249517   136A      1.269717   137A      1.279034  
     138A      1.309297   139A      1.313764   140A      1.333172  
     141A      1.347963   142A      1.351288   143A      1.363911  
     144A      1.383314   145A      1.386066   146A      1.404557  
     147A      1.417894   148A      1.423671   149A      1.433369  
     150A      1.450817   151A      1.459509   152A      1.488012  
     153A      1.490371   154A      1.504536   155A      1.513853  
     156A      1.539343   157A      1.543709   158A      1.564259  
     159A      1.586366   160A      1.591626   161A      1.611318  
     162A      1.624424   163A      1.635817   164A      1.646272  
     165A      1.650520   166A      1.673755   167A      1.685439  
     168A      1.712701   169A      1.731443   170A      1.756809  
     171A      1.764693   172A      1.801712   173A      1.836733  
     174A      1.863623   175A      1.874976   176A      1.900788  
     177A      1.914617   178A      1.944209   179A      1.975039  
     180A      2.006035   181A      2.043978   182A      2.059828  
     183A      2.099000   184A      2.100183   185A      2.190481  
     186A      2.237938   187A      2.293723   188A      2.307645  
     189A      2.352251   190A      2.393847   191A      2.434639  
     192A      2.477071   193A      2.492785   194A      2.613232  
     195A      2.651789   196A      2.694494   197A      2.733852  
     198A      2.749180   199A      2.760464   200A      2.815240  
     201A      2.828612   202A      2.835094   203A      2.857912  
     204A      2.885626   205A      2.903042   206A      2.922922  
     207A      2.929689   208A      2.968981   209A      2.977108  
     210A      3.000443   211A      3.039941   212A      3.109586  
     213A      3.117934   214A      3.128577   215A      3.133669  
     216A      3.138073   217A      3.166817   218A      3.200038  
     219A      3.223103   220A      3.258500   221A      3.276495  
     222A      3.338738   223A      3.347677   224A      3.359967  
     225A      3.387399   226A      3.397292   227A      3.438400  
     228A      3.440432   229A      3.454714   230A      3.465102  
     231A      3.477846   232A      3.486597   233A      3.492622  
     234A      3.498584   235A      3.516179   236A      3.530142  
     237A      3.551511   238A      3.558654   239A      3.565569  
     240A      3.590442   241A      3.602661   242A      3.622603  
     243A      3.632410   244A      3.647332   245A      3.659605  
     246A      3.680866   247A      3.700453   248A      3.729202  
     249A      3.730820   250A      3.779095   251A      3.794311  
     252A      3.821037   253A      3.843137   254A      3.854867  
     255A      3.880773   256A      3.917346   257A      3.924792  
     258A      3.974538   259A      3.992066   260A      4.003479  
     261A      4.007389   262A      4.026265   263A      4.036930  
     264A      4.049829   265A      4.062444   266A      4.108269  
     267A      4.134435   268A      4.171872   269A      4.186591  
     270A      4.193560   271A      4.238648   272A      4.243351  
     273A      4.266478   274A      4.271531   275A      4.305495  
     276A      4.325980   277A      4.335606   278A      4.354891  
     279A      4.362930   280A      4.372905   281A      4.399700  
     282A      4.403668   283A      4.421913   284A      4.435991  
     285A      4.440780   286A      4.454067   287A      4.468949  
     288A      4.477680   289A      4.494825   290A      4.498704  
     291A      4.522350   292A      4.547601   293A      4.566599  
     294A      4.575267   295A      4.602564   296A      4.622859  
     297A      4.656387   298A      4.672724   299A      4.697321  
     300A      4.705955   301A      4.732464   302A      4.738023  
     303A      4.745552   304A      4.794166   305A      4.801342  
     306A      4.814652   307A      4.817322   308A      4.823664  
     309A      4.862682   310A      4.902680   311A      4.928374  
     312A      4.940596   313A      4.986279   314A      4.991194  
     315A      5.004875   316A      5.140587   317A      5.153369  
     318A      5.170653   319A      5.198911   320A      5.217029  
     321A      5.236986   322A      5.267637   323A      5.280264  
     324A      5.297483   325A      5.323932   326A      5.341434  
     327A      5.351632   328A      5.391245   329A      5.452122  
     330A      5.474549   331A      5.520812   332A      5.539565  
     333A      5.586256   334A      5.599084   335A      5.645471  
     336A      5.677024   337A      5.723753   338A      5.736598  
     339A      5.750900   340A      5.771885   341A      5.795302  
     342A      5.849604   343A      5.866564   344A      5.900995  
     345A      5.912022   346A      5.946702   347A      5.985556  
     348A      6.019930   349A      6.058820   350A      6.075596  
     351A      6.087152   352A      6.179446   353A      6.211307  
     354A      6.227624   355A      6.285890   356A      6.329867  
     357A      6.344464   358A      6.483224   359A      6.502859  
     360A      6.511281   361A      6.518986   362A      6.547824  
     363A      6.661320   364A      6.720250   365A      6.792910  
     366A      6.831777   367A      6.898794   368A      6.994338  
     369A      7.218602   370A      7.261551   371A      7.282336  
     372A      7.392533   373A      7.417325   374A      7.485889  
     375A      7.495365   376A      7.501365   377A      7.716889  
     378A      7.780272   379A      7.781165   380A      7.829025  
     381A      8.373113   382A      8.497816   383A      9.238883  
     384A      9.694544   385A      9.747124   386A      9.842450  
     387A      9.848544   388A     10.095515   389A     10.904609  
     390A     11.516361   391A     11.840777   392A     12.171910  
     393A     13.582713   394A     13.939291   395A     14.046873  
     396A     14.561314   397A     15.829556   398A     45.094730  
     399A     59.565668  

    Final Occupation by Irrep:
              A 
    DOCC [    20 ]

  @DF-RHF Final Energy:  -247.10935123650660

   => Energetics <=

    Nuclear Repulsion Energy =            179.1315238491225159
    One-Electron Energy =                -690.9264202636816208
    Two-Electron Energy =                 264.6855451780525073
    Total Energy =                       -247.1093512365065976

Computation Completed


Properties will be evaluated at   0.000000,   0.000000,   0.000000 [a0]

Properties computed using the SCF density matrix

  Nuclear Dipole Moment: [e a0]
     X:    96.8275      Y:     7.4442      Z:    -1.3144

  Electronic Dipole Moment: [e a0]
     X:   -96.4600      Y:    -5.8588      Z:     1.4185

  Dipole Moment: [e a0]
     X:     0.3675      Y:     1.5853      Z:     0.1041     Total:     1.6307

  Dipole Moment: [D]
     X:     0.9342      Y:     4.0295      Z:     0.2646     Total:     4.1448


*** tstop() called on r282 at Sat Sep 11 01:18:32 2021
Module time:
	user time   =      15.45 seconds =       0.26 minutes
	system time =       0.42 seconds =       0.01 minutes
	total time  =         16 seconds =       0.27 minutes
Total time:
	user time   =      45.81 seconds =       0.76 minutes
	system time =       1.24 seconds =       0.02 minutes
	total time  =         48 seconds =       0.80 minutes

  //>>>>>>>>>>>>>>>>>>>>>>>>>>>>>>>>>>>//
  //            Monomer B HF           //
  //<<<<<<<<<<<<<<<<<<<<<<<<<<<<<<<<<<<//


*** tstart() called on r282
*** at Sat Sep 11 01:18:32 2021

   => Loading Basis Set <=

    Name: JUN-CC-PVTZ
    Role: ORBITAL
    Keyword: BASIS
    atoms 1-2, 7, 13       entry C          line   217 file /home/r08543048/miniconda3/share/psi4/basis/jun-cc-pvtz.gbs 
    atoms 3, 14            entry O          line   305 file /home/r08543048/miniconda3/share/psi4/basis/jun-cc-pvtz.gbs 
    atoms 4                entry N          line   261 file /home/r08543048/miniconda3/share/psi4/basis/jun-cc-pvtz.gbs 
    atoms 5-6, 8-12, 15-16 entry H          line    36 file /home/r08543048/miniconda3/share/psi4/basis/jun-cc-pvtz.gbs 


         ---------------------------------------------------------
                                   SCF
               by Justin Turney, Rob Parrish, Andy Simmonett
                          and Daniel G. A. Smith
                              RHF Reference
                        1 Threads,  20980 MiB Core
         ---------------------------------------------------------

  ==> Geometry <==

    Molecular point group: c1
    Full point group: C1

    Geometry (in Angstrom), charge = 0, multiplicity = 1:

       Center              X                  Y                   Z               Mass       
    ------------   -----------------  -----------------  -----------------  -----------------
      Gh(C)           2.198195454748     0.492543066958    -0.222503648966    12.000000000000
      Gh(C)           0.717104454748     0.190026066958    -0.104455648966    12.000000000000
      Gh(O)           0.276326454748    -0.954421933042    -0.193841648966    15.994914619570
      Gh(N)          -0.087476545252     1.264699066958     0.080985351034    14.003074004430
      Gh(H)          -1.093117545252     1.134116066958     0.107853351034     1.007825032230
      Gh(H)           0.297308454748     2.188567066958     0.144401351034     1.007825032230
      Gh(C)           3.053516454748    -0.657113933042     0.287809351034    12.000000000000
      Gh(H)           2.792136454748    -1.576267933042    -0.230444648966     1.007825032230
      Gh(H)           4.110415454748    -0.449406933042     0.129231351034     1.007825032230
      Gh(H)           2.890245454748    -0.816960933042     1.352594351034     1.007825032230
      Gh(H)           2.398846454748     0.668453066958    -1.282321648966     1.007825032230
      Gh(H)           2.431917454748     1.420540066958     0.301871351034     1.007825032230
         C           -2.947315545252    -0.787738933042     0.006349351034    12.000000000000
         O           -2.967073545252     0.426821066958     0.120394351034    15.994914619570
         H           -3.885321545252    -1.360226933042    -0.005133648966     1.007825032230
         H           -1.999384545252    -1.331194933042    -0.087077648966     1.007825032230

  Running in c1 symmetry.

  Rotational constants: A =      0.21668  B =      0.03410  C =      0.03013 [cm^-1]
  Rotational constants: A =   6495.78053  B =   1022.20955  C =    903.22592 [MHz]
  Nuclear repulsion =   31.085042359102005

  Charge       = 0
  Multiplicity = 1
  Electrons    = 16
  Nalpha       = 8
  Nbeta        = 8

  ==> Algorithm <==

  SCF Algorithm Type is DF.
  DIIS enabled.
  MOM disabled.
  Fractional occupation disabled.
  Guess Type is SAD.
  Energy threshold   = 1.00e-08
  Density threshold  = 1.00e-08
  Integral threshold = 0.00e+00

  ==> Primary Basis <==

  Basis Set: JUN-CC-PVTZ
    Blend: JUN-CC-PVTZ
    Number of shells: 145
    Number of basis function: 399
    Number of Cartesian functions: 450
    Spherical Harmonics?: true
    Max angular momentum: 3

   => Loading Basis Set <=

    Name: (JUN-CC-PVTZ AUX)
    Role: JKFIT
    Keyword: DF_BASIS_SCF
    atoms 1-2, 7, 13       entry C          line   152 file /home/r08543048/miniconda3/share/psi4/basis/jun-cc-pvtz-jkfit.gbs 
    atoms 3, 14            entry O          line   272 file /home/r08543048/miniconda3/share/psi4/basis/jun-cc-pvtz-jkfit.gbs 
    atoms 4                entry N          line   212 file /home/r08543048/miniconda3/share/psi4/basis/jun-cc-pvtz-jkfit.gbs 
    atoms 5-6, 8-12, 15-16 entry H          line    70 file /home/r08543048/miniconda3/share/psi4/basis/jun-cc-pvtz-jkfit.gbs 

  ==> Pre-Iterations <==

   -------------------------------------------------------
    Irrep   Nso     Nmo     Nalpha   Nbeta   Ndocc  Nsocc
   -------------------------------------------------------
     A        399     399       0       0       0       0
   -------------------------------------------------------
    Total     399     399       8       8       8       0
   -------------------------------------------------------

  ==> Integral Setup <==

  ==> DiskDFJK: Density-Fitted J/K Matrices <==

    J tasked:                  Yes
    K tasked:                  Yes
    wK tasked:                  No
    OpenMP threads:              1
    Integrals threads:           1
    Memory [MiB]:            15735
    Algorithm:                Core
    Integral Cache:           LOAD
    Schwarz Cutoff:          1E-12
    Fitting Condition:       1E-10

   => Auxiliary Basis Set <=

  Basis Set: (JUN-CC-PVTZ AUX)
    Blend: JUN-CC-PVTZ-JKFIT
    Number of shells: 293
    Number of basis function: 935
    Number of Cartesian functions: 1127
    Spherical Harmonics?: true
    Max angular momentum: 4

  Minimum eigenvalue in the overlap matrix is 4.2328610448E-05.
  Using Symmetric Orthogonalization.

  SCF Guess: Superposition of Atomic Densities via on-the-fly atomic UHF.

  ==> Iterations <==

                           Total Energy        Delta E     RMS |[F,P]|

   @DF-RHF iter SAD:  -113.09909315305667   -1.13099e+02   0.00000e+00 
   @DF-RHF iter   1:  -113.84584015841116   -7.46747e-01   9.93609e-04 DIIS
   @DF-RHF iter   2:  -113.87328649116262   -2.74463e-02   8.48604e-04 DIIS
   @DF-RHF iter   3:  -113.91138986811443   -3.81034e-02   6.10434e-05 DIIS
   @DF-RHF iter   4:  -113.91192047356903   -5.30605e-04   1.65056e-05 DIIS
   @DF-RHF iter   5:  -113.91196226528251   -4.17917e-05   6.55056e-06 DIIS
   @DF-RHF iter   6:  -113.91197340738341   -1.11421e-05   3.32831e-06 DIIS
   @DF-RHF iter   7:  -113.91197591974208   -2.51236e-06   7.89880e-07 DIIS
   @DF-RHF iter   8:  -113.91197603843322   -1.18691e-07   8.52440e-08 DIIS
   @DF-RHF iter   9:  -113.91197603982587   -1.39265e-09   1.70724e-08 DIIS
   @DF-RHF iter  10:  -113.91197603987176   -4.58868e-11   3.15388e-09 DIIS
  Energy and wave function converged.


  ==> Post-Iterations <==

    Orbital Energies [Eh]
    ---------------------

    Doubly Occupied:                                                      

       1A    -20.578754     2A    -11.343849     3A     -1.397502  
       4A     -0.873247     5A     -0.696054     6A     -0.647049  
       7A     -0.530776     8A     -0.445993  

    Virtual:                                                              

       9A      0.031205    10A      0.046663    11A      0.053196  
      12A      0.057924    13A      0.067008    14A      0.071130  
      15A      0.078492    16A      0.099073    17A      0.102322  
      18A      0.103614    19A      0.112606    20A      0.114171  
      21A      0.135872    22A      0.141549    23A      0.149055  
      24A      0.156960    25A      0.158110    26A      0.166356  
      27A      0.176966    28A      0.187022    29A      0.196599  
      30A      0.200137    31A      0.209692    32A      0.218997  
      33A      0.227079    34A      0.233898    35A      0.240555  
      36A      0.252576    37A      0.262979    38A      0.267053  
      39A      0.290539    40A      0.302154    41A      0.307792  
      42A      0.315695    43A      0.330077    44A      0.332945  
      45A      0.343515    46A      0.358633    47A      0.371746  
      48A      0.377962    49A      0.384949    50A      0.391944  
      51A      0.394980    52A      0.401616    53A      0.405812  
      54A      0.414416    55A      0.421350    56A      0.435733  
      57A      0.441651    58A      0.450350    59A      0.453961  
      60A      0.466754    61A      0.468336    62A      0.493388  
      63A      0.498523    64A      0.515317    65A      0.517026  
      66A      0.546479    67A      0.554199    68A      0.564267  
      69A      0.574104    70A      0.579120    71A      0.601521  
      72A      0.605039    73A      0.618065    74A      0.638261  
      75A      0.647693    76A      0.655525    77A      0.662148  
      78A      0.678538    79A      0.687509    80A      0.693630  
      81A      0.701942    82A      0.720264    83A      0.734547  
      84A      0.740817    85A      0.783695    86A      0.801296  
      87A      0.809423    88A      0.811480    89A      0.824037  
      90A      0.837422    91A      0.851905    92A      0.857551  
      93A      0.867145    94A      0.879941    95A      0.888905  
      96A      0.906038    97A      0.920561    98A      0.926842  
      99A      0.963587   100A      0.971782   101A      0.975905  
     102A      1.004101   103A      1.013481   104A      1.030699  
     105A      1.041346   106A      1.054340   107A      1.081631  
     108A      1.084642   109A      1.106782   110A      1.111927  
     111A      1.128605   112A      1.146208   113A      1.161593  
     114A      1.173472   115A      1.179989   116A      1.198522  
     117A      1.229094   118A      1.234619   119A      1.243039  
     120A      1.247095   121A      1.262107   122A      1.270851  
     123A      1.287879   124A      1.306644   125A      1.315113  
     126A      1.328171   127A      1.340438   128A      1.345617  
     129A      1.352297   130A      1.372901   131A      1.380707  
     132A      1.390652   133A      1.409288   134A      1.452957  
     135A      1.461297   136A      1.481858   137A      1.489696  
     138A      1.499281   139A      1.513434   140A      1.530634  
     141A      1.541773   142A      1.550244   143A      1.567884  
     144A      1.580721   145A      1.589021   146A      1.606736  
     147A      1.623789   148A      1.642321   149A      1.659347  
     150A      1.676535   151A      1.686228   152A      1.703933  
     153A      1.719047   154A      1.747384   155A      1.759656  
     156A      1.774539   157A      1.827189   158A      1.841155  
     159A      1.854838   160A      1.869496   161A      1.920575  
     162A      1.942530   163A      1.945909   164A      1.962311  
     165A      2.007797   166A      2.033990   167A      2.082715  
     168A      2.097654   169A      2.139143   170A      2.144870  
     171A      2.174425   172A      2.221825   173A      2.264399  
     174A      2.284193   175A      2.289730   176A      2.327713  
     177A      2.343983   178A      2.347984   179A      2.406348  
     180A      2.415628   181A      2.441969   182A      2.485549  
     183A      2.499524   184A      2.501771   185A      2.528247  
     186A      2.553909   187A      2.601798   188A      2.633058  
     189A      2.667090   190A      2.706295   191A      2.745074  
     192A      2.757423   193A      2.778774   194A      2.810704  
     195A      2.856372   196A      2.877845   197A      2.900499  
     198A      2.984101   199A      3.029296   200A      3.040698  
     201A      3.070056   202A      3.103256   203A      3.112489  
     204A      3.217270   205A      3.242422   206A      3.350590  
     207A      3.371981   208A      3.384167   209A      3.451967  
     210A      3.459124   211A      3.496566   212A      3.541745  
     213A      3.544798   214A      3.556259   215A      3.570222  
     216A      3.608954   217A      3.613396   218A      3.623209  
     219A      3.635452   220A      3.658308   221A      3.678004  
     222A      3.689025   223A      3.712936   224A      3.759727  
     225A      3.770777   226A      3.795373   227A      3.809604  
     228A      3.824004   229A      3.845369   230A      3.851059  
     231A      3.876332   232A      3.879065   233A      3.893403  
     234A      3.911370   235A      3.931164   236A      3.976949  
     237A      4.014760   238A      4.048388   239A      4.060993  
     240A      4.082334   241A      4.091824   242A      4.100574  
     243A      4.144440   244A      4.190312   245A      4.216519  
     246A      4.244855   247A      4.271995   248A      4.276343  
     249A      4.286007   250A      4.294379   251A      4.328018  
     252A      4.338046   253A      4.381786   254A      4.402657  
     255A      4.433776   256A      4.435770   257A      4.462173  
     258A      4.470840   259A      4.493605   260A      4.518708  
     261A      4.544051   262A      4.550918   263A      4.598317  
     264A      4.627146   265A      4.641819   266A      4.653780  
     267A      4.660634   268A      4.687690   269A      4.715034  
     270A      4.719281   271A      4.733265   272A      4.753863  
     273A      4.766545   274A      4.780919   275A      4.812572  
     276A      4.819017   277A      4.821129   278A      4.834381  
     279A      4.841260   280A      4.862059   281A      4.865546  
     282A      4.879193   283A      4.889404   284A      4.898463  
     285A      4.915834   286A      4.923410   287A      4.940113  
     288A      4.956217   289A      4.967449   290A      4.972029  
     291A      4.979449   292A      4.997740   293A      5.000201  
     294A      5.009436   295A      5.058241   296A      5.063876  
     297A      5.084845   298A      5.111671   299A      5.114131  
     300A      5.132356   301A      5.138928   302A      5.156028  
     303A      5.177255   304A      5.213117   305A      5.243228  
     306A      5.300400   307A      5.335791   308A      5.372743  
     309A      5.460642   310A      5.514897   311A      5.549768  
     312A      5.570155   313A      5.610099   314A      5.657634  
     315A      5.684505   316A      5.699288   317A      5.739054  
     318A      5.831937   319A      5.841763   320A      5.866145  
     321A      5.899615   322A      5.950410   323A      5.992729  
     324A      6.052618   325A      6.088364   326A      6.105062  
     327A      6.125196   328A      6.178183   329A      6.209375  
     330A      6.272553   331A      6.296912   332A      6.328096  
     333A      6.372451   334A      6.398299   335A      6.412024  
     336A      6.422806   337A      6.466864   338A      6.477116  
     339A      6.512658   340A      6.566013   341A      6.578676  
     342A      6.604401   343A      6.689823   344A      6.694088  
     345A      6.805674   346A      6.867309   347A      6.924983  
     348A      6.938582   349A      6.967261   350A      7.104909  
     351A      7.159745   352A      7.242417   353A      7.304818  
     354A      7.333635   355A      7.368416   356A      7.436066  
     357A      7.440306   358A      7.458861   359A      7.516680  
     360A      7.545735   361A      7.613562   362A      7.638857  
     363A      7.668257   364A      7.688412   365A      7.758428  
     366A      7.809297   367A      7.830478   368A      7.854784  
     369A      7.927299   370A      7.978263   371A      8.049776  
     372A      8.263954   373A      8.395732   374A      8.456335  
     375A      8.842469   376A      9.112248   377A      9.127428  
     378A      9.158109   379A      9.439090   380A      9.618708  
     381A      9.813678   382A      9.882242   383A      9.926314  
     384A      9.996644   385A     10.154538   386A     10.575131  
     387A     10.925680   388A     11.470842   389A     11.613588  
     390A     11.672208   391A     12.008036   392A     12.469454  
     393A     13.819526   394A     14.551378   395A     42.749481  
     396A     44.807653   397A     45.616684   398A     55.657120  
     399A     60.786300  

    Final Occupation by Irrep:
              A 
    DOCC [     8 ]

  @DF-RHF Final Energy:  -113.91197603987176

   => Energetics <=

    Nuclear Repulsion Energy =             31.0850423591020046
    One-Electron Energy =                -216.9675869518073910
    Two-Electron Energy =                  71.9705685528336261
    Total Energy =                       -113.9119760398717602

Computation Completed


Properties will be evaluated at   0.000000,   0.000000,   0.000000 [a0]

Properties computed using the SCF density matrix

  Nuclear Dipole Moment: [e a0]
     X:   -89.3938      Y:    -7.5651      Z:     1.7178

  Electronic Dipole Moment: [e a0]
     X:    89.4138      Y:     6.4190      Z:    -1.8256

  Dipole Moment: [e a0]
     X:     0.0200      Y:    -1.1461      Z:    -0.1078     Total:     1.1514

  Dipole Moment: [D]
     X:     0.0507      Y:    -2.9132      Z:    -0.2739     Total:     2.9265


*** tstop() called on r282 at Sat Sep 11 01:18:45 2021
Module time:
	user time   =      13.39 seconds =       0.22 minutes
	system time =       0.26 seconds =       0.00 minutes
	total time  =         13 seconds =       0.22 minutes
Total time:
	user time   =      59.20 seconds =       0.99 minutes
	system time =       1.50 seconds =       0.03 minutes
	total time  =         61 seconds =       1.02 minutes
  Constructing Basis Sets for SAPT...

   => Loading Basis Set <=

    Name: (JUN-CC-PVTZ AUX)
    Role: RIFIT
    Keyword: DF_BASIS_SAPT
    atoms 1-2, 7, 13       entry C          line   132 file /home/r08543048/miniconda3/share/psi4/basis/jun-cc-pvtz-ri.gbs 
    atoms 3, 14            entry O          line   244 file /home/r08543048/miniconda3/share/psi4/basis/jun-cc-pvtz-ri.gbs 
    atoms 4                entry N          line   188 file /home/r08543048/miniconda3/share/psi4/basis/jun-cc-pvtz-ri.gbs 
    atoms 5-6, 8-12, 15-16 entry H          line    30 file /home/r08543048/miniconda3/share/psi4/basis/jun-cc-pvtz-ri.gbs 


  //>>>>>>>>>>>>>>>>>>>>>>>>>>>>>>>>>>>//
  //               SAPT0               //
  //<<<<<<<<<<<<<<<<<<<<<<<<<<<<<<<<<<<//


*** tstart() called on r282
*** at Sat Sep 11 01:18:45 2021

        SAPT0  
    Ed Hohenstein
     6 June 2009

      Orbital Information
  --------------------------
    NSO        =       399
    NMO        =       399
    NRI        =       949
    NOCC A     =        20
    NOCC B     =         8
    FOCC A     =         0
    FOCC B     =         0
    NVIR A     =       379
    NVIR B     =       391

    Elst10,r            =    -0.019930762018 [Eh]
    Exch10              =     0.016277258540 [Eh]
    Exch10 (S^2)        =     0.016199722371 [Eh]

    Iter     Energy [mEh]          dE [mEh]         Residual      Time [s]
       1      -2.56231924       2.562319242       8.935346186             1
       2      -3.06741028       0.505091034       5.030320876             1
       3      -3.20446586       0.137055583       1.348074917             2
       4      -3.17701436      -0.027451494       0.524276013             2
       5      -3.17481572      -0.002198646       0.198229097             3
       6      -3.17713925       0.002323533       0.073869485             3
       7      -3.17760606       0.000466804       0.015898844             4
       8      -3.17740446      -0.000201599       0.004725546             4
       9      -3.17738168      -0.000022776       0.001189993             5
      10      -3.17739461       0.000012926       0.000273292             5
      11      -3.17739481       0.000000205       0.000058777             6
      12      -3.17739426      -0.000000554       0.000015088             6
      13      -3.17739427       0.000000015       0.000005158             7
      14      -3.17739431       0.000000041       0.000001430             7
      15      -3.17739431      -0.000000007       0.000000441             8

    CHF Iterations converged


    Iter     Energy [mEh]          dE [mEh]         Residual      Time [s]
       1      -3.57551886       3.575518861      15.421878328             0
       2      -4.11333279       0.537813924       8.429173432             1
       3      -4.63755061       0.524217826       1.854320958             1
       4      -4.58904249      -0.048508124       0.708922567             1
       5      -4.58910380       0.000061312       0.238291836             2
       6      -4.59326061       0.004156806       0.060687722             2
       7      -4.59285996      -0.000400647       0.014515105             3
       8      -4.59274845      -0.000111510       0.002735000             3
       9      -4.59278175       0.000033303       0.000573807             4
      10      -4.59277775      -0.000004000       0.000308538             4
      11      -4.59277809       0.000000336       0.000122402             4
      12      -4.59277853       0.000000444       0.000021937             5
      13      -4.59277842      -0.000000116       0.000003793             5
      14      -4.59277842       0.000000005       0.000000854             6

    CHF Iterations converged

    Ind20,r (A<-B)      =    -0.003177394307 [Eh]
    Ind20,r (B<-A)      =    -0.004592778423 [Eh]
    Ind20,r             =    -0.007770172730 [Eh]
    Exch-Ind20,r (A<-B) =     0.002144802407 [Eh]
    Exch-Ind20,r (B<-A) =     0.001872238766 [Eh]
    Exch-Ind20,r        =     0.004017041173 [Eh]
    Disp20              =    -0.007676275589 [Eh]
    Disp20 (SS)         =    -0.003838137795 [Eh]
    Disp20 (OS)         =    -0.003838137795 [Eh]
    Exch-Disp20         =     0.001218760394 [Eh]
    Exch-Disp20 (SS)    =     0.000766645013 [Eh]
    Exch-Disp20 (OS)    =     0.000452115381 [Eh]

    SAPT Results 
  --------------------------------------------------------------------------------------------------------
    Electrostatics                -19.93076202 [mEh]     -12.50674199 [kcal/mol]     -52.32820847 [kJ/mol]
      Elst10,r                    -19.93076202 [mEh]     -12.50674199 [kcal/mol]     -52.32820847 [kJ/mol]

    Exchange                       16.27725854 [mEh]      10.21413394 [kcal/mol]      42.73593641 [kJ/mol]
      Exch10                       16.27725854 [mEh]      10.21413394 [kcal/mol]      42.73593641 [kJ/mol]
      Exch10(S^2)                  16.19972237 [mEh]      10.16547926 [kcal/mol]      42.53236523 [kJ/mol]

    Induction                      -6.14112389 [mEh]      -3.85361342 [kcal/mol]     -16.12351854 [kJ/mol]
      Ind20,r                      -7.77017273 [mEh]      -4.87585700 [kcal/mol]     -20.40058569 [kJ/mol]
      Exch-Ind20,r                  4.01704117 [mEh]       2.52073139 [kcal/mol]      10.54674015 [kJ/mol]
      delta HF,r (2)               -2.38799233 [mEh]      -1.49848781 [kcal/mol]      -6.26967300 [kJ/mol]

    Dispersion                     -6.45751520 [mEh]      -4.05215196 [kcal/mol]     -16.95420381 [kJ/mol]
      Disp20                       -7.67627559 [mEh]      -4.81693566 [kcal/mol]     -20.15405878 [kJ/mol]
      Exch-Disp20                   1.21876039 [mEh]       0.76478369 [kcal/mol]       3.19985497 [kJ/mol]
      Disp20 (SS)                  -3.83813779 [mEh]      -2.40846783 [kcal/mol]     -10.07702939 [kJ/mol]
      Disp20 (OS)                  -3.83813779 [mEh]      -2.40846783 [kcal/mol]     -10.07702939 [kJ/mol]
      Exch-Disp20 (SS)              0.76664501 [mEh]       0.48107701 [kcal/mol]       2.01282620 [kJ/mol]
      Exch-Disp20 (OS)              0.45211538 [mEh]       0.28370668 [kcal/mol]       1.18702877 [kJ/mol]

  Total HF                         -9.79462736 [mEh]      -6.14622146 [kcal/mol]     -25.71579060 [kJ/mol]
  Total SAPT0                     -16.25214256 [mEh]     -10.19837343 [kcal/mol]     -42.66999441 [kJ/mol]

  Special recipe for scaled SAPT0 (see Manual):
    Electrostatics sSAPT0         -19.93076202 [mEh]     -12.50674199 [kcal/mol]     -52.32820847 [kJ/mol]
    Exchange sSAPT0                16.27725854 [mEh]      10.21413394 [kcal/mol]      42.73593641 [kJ/mol]
    Induction sSAPT0               -6.08316750 [mEh]      -3.81724524 [kcal/mol]     -15.97135407 [kJ/mol]
    Dispersion sSAPT0              -6.43993137 [mEh]      -4.04111795 [kcal/mol]     -16.90803748 [kJ/mol]
  Total sSAPT0                    -16.17660235 [mEh]     -10.15097123 [kcal/mol]     -42.47166362 [kJ/mol]
  --------------------------------------------------------------------------------------------------------

*** tstop() called on r282 at Sat Sep 11 01:19:42 2021
Module time:
	user time   =      45.22 seconds =       0.75 minutes
	system time =       9.01 seconds =       0.15 minutes
	total time  =         57 seconds =       0.95 minutes
Total time:
	user time   =     104.53 seconds =       1.74 minutes
	system time =      10.51 seconds =       0.18 minutes
	total time  =        118 seconds =       1.97 minutes

    Psi4 stopped on: Saturday, 11 September 2021 01:19AM
    Psi4 wall time for execution: 0:01:57.26

*** Psi4 exiting successfully. Buy a developer a beer!
