
    -----------------------------------------------------------------------
          Psi4: An Open-Source Ab Initio Electronic Structure Package
                               Psi4 1.3.2 release

                         Git: Rev {HEAD} ecbda83 


    R. M. Parrish, L. A. Burns, D. G. A. Smith, A. C. Simmonett,
    A. E. DePrince III, E. G. Hohenstein, U. Bozkaya, A. Yu. Sokolov,
    R. Di Remigio, R. M. Richard, J. F. Gonthier, A. M. James,
    H. R. McAlexander, A. Kumar, M. Saitow, X. Wang, B. P. Pritchard,
    P. Verma, H. F. Schaefer III, K. Patkowski, R. A. King, E. F. Valeev,
    F. A. Evangelista, J. M. Turney, T. D. Crawford, and C. D. Sherrill,
    J. Chem. Theory Comput. 13(7) pp 3185--3197 (2017).
    (doi: 10.1021/acs.jctc.7b00174)


                         Additional Contributions by
    P. Kraus, H. Kruse, M. H. Lechner, M. C. Schieber, R. A. Shaw,
    A. Alenaizan, R. Galvelis, Z. L. Glick, S. Lehtola, and J. P. Misiewicz

    -----------------------------------------------------------------------


    Psi4 started on: Saturday, 11 September 2021 01:19AM

    Process ID: 57425
    Host:       r282
    PSIDATADIR: /home/r08543048/miniconda3/share/psi4
    Memory:     500.0 MiB
    Threads:    1
    
  ==> Input File <==

--------------------------------------------------------------------------
# Any line starting with the # character is a comment line
#! Sample  computation

memory 22 gb

molecule Dimer {
0 1
 C -2.887823    0.189782   -0.000379
 O -2.262614    1.242603    0.000121
 N -2.332931   -1.040046    0.000071
 H -2.921987   -1.852286    0.000102
 H -1.320793   -1.143596    0.000444
 H -3.987391    0.166949   -0.000220









    
    
    
 --
0 1
 H  0.089264    1.013462    0.000226
 C  2.302742    0.775897    0.000027
 C  0.895614    0.263377    0.000128
 O  0.612746   -0.927236    0.000093
 H  2.396021    1.436148   -0.868102
 C  3.357973   -0.315014   -0.000156
 H  4.356557    0.117302   -0.000218
 H  3.255364   -0.950500    0.877242
 H  3.255198   -0.950363   -0.877635
 H  2.396188    1.436019    0.868236
  
  







units angstrom

no_reorient
symmetry c1
}

set globals{
  basis jun-cc-pvtz
}

energy('sapt0')


--------------------------------------------------------------------------

  Memory set to  20.489 GiB by Python driver.

  //>>>>>>>>>>>>>>>>>>>>>>>>>>>>>>>>>>>//
  //              Dimer HF             //
  //<<<<<<<<<<<<<<<<<<<<<<<<<<<<<<<<<<<//


*** tstart() called on r282
*** at Sat Sep 11 01:19:42 2021

   => Loading Basis Set <=

    Name: JUN-CC-PVTZ
    Role: ORBITAL
    Keyword: BASIS
    atoms 1, 8-9, 12     entry C          line   217 file /home/r08543048/miniconda3/share/psi4/basis/jun-cc-pvtz.gbs 
    atoms 2, 10          entry O          line   305 file /home/r08543048/miniconda3/share/psi4/basis/jun-cc-pvtz.gbs 
    atoms 3              entry N          line   261 file /home/r08543048/miniconda3/share/psi4/basis/jun-cc-pvtz.gbs 
    atoms 4-7, 11, 13-16 entry H          line    36 file /home/r08543048/miniconda3/share/psi4/basis/jun-cc-pvtz.gbs 


         ---------------------------------------------------------
                                   SCF
               by Justin Turney, Rob Parrish, Andy Simmonett
                          and Daniel G. A. Smith
                              RHF Reference
                        1 Threads,  20980 MiB Core
         ---------------------------------------------------------

  ==> Geometry <==

    Molecular point group: c1
    Full point group: C1

    Geometry (in Angstrom), charge = 0, multiplicity = 1:

       Center              X                  Y                   Z               Mass       
    ------------   -----------------  -----------------  -----------------  -----------------
         C           -2.815456053839     0.182831143658    -0.000378347167    12.000000000000
         O           -2.190247053839     1.235652143658     0.000121652833    15.994914619570
         N           -2.260564053839    -1.046996856342     0.000071652833    14.003074004430
         H           -2.849620053839    -1.859236856342     0.000102652833     1.007825032230
         H           -1.248426053839    -1.150546856342     0.000444652833     1.007825032230
         H           -3.915024053839     0.159998143658    -0.000219347167     1.007825032230
         H            0.161630946161     1.006511143658     0.000226652833     1.007825032230
         C            2.375108946161     0.768946143658     0.000027652833    12.000000000000
         C            0.967980946161     0.256426143658     0.000128652833    12.000000000000
         O            0.685112946161    -0.934186856342     0.000093652833    15.994914619570
         H            2.468387946161     1.429197143658    -0.868101347167     1.007825032230
         C            3.430339946161    -0.321964856342    -0.000155347167    12.000000000000
         H            4.428923946161     0.110351143658    -0.000217347167     1.007825032230
         H            3.327730946161    -0.957450856342     0.877242652833     1.007825032230
         H            3.327564946161    -0.957313856342    -0.877634347167     1.007825032230
         H            2.468554946161     1.429068143658     0.868236652833     1.007825032230

  Running in c1 symmetry.

  Rotational constants: A =      0.21597  B =      0.03044  C =      0.02694 [cm^-1]
  Rotational constants: A =   6474.49988  B =    912.48745  C =    807.62136 [MHz]
  Nuclear repulsion =  285.810933115666558

  Charge       = 0
  Multiplicity = 1
  Electrons    = 56
  Nalpha       = 28
  Nbeta        = 28

  ==> Algorithm <==

  SCF Algorithm Type is DF.
  DIIS enabled.
  MOM disabled.
  Fractional occupation disabled.
  Guess Type is SAD.
  Energy threshold   = 1.00e-08
  Density threshold  = 1.00e-08
  Integral threshold = 0.00e+00

  ==> Primary Basis <==

  Basis Set: JUN-CC-PVTZ
    Blend: JUN-CC-PVTZ
    Number of shells: 145
    Number of basis function: 399
    Number of Cartesian functions: 450
    Spherical Harmonics?: true
    Max angular momentum: 3

   => Loading Basis Set <=

    Name: (JUN-CC-PVTZ AUX)
    Role: JKFIT
    Keyword: DF_BASIS_SCF
    atoms 1, 8-9, 12     entry C          line   152 file /home/r08543048/miniconda3/share/psi4/basis/jun-cc-pvtz-jkfit.gbs 
    atoms 2, 10          entry O          line   272 file /home/r08543048/miniconda3/share/psi4/basis/jun-cc-pvtz-jkfit.gbs 
    atoms 3              entry N          line   212 file /home/r08543048/miniconda3/share/psi4/basis/jun-cc-pvtz-jkfit.gbs 
    atoms 4-7, 11, 13-16 entry H          line    70 file /home/r08543048/miniconda3/share/psi4/basis/jun-cc-pvtz-jkfit.gbs 

  ==> Pre-Iterations <==

   -------------------------------------------------------
    Irrep   Nso     Nmo     Nalpha   Nbeta   Ndocc  Nsocc
   -------------------------------------------------------
     A        399     399       0       0       0       0
   -------------------------------------------------------
    Total     399     399      28      28      28       0
   -------------------------------------------------------

  ==> Integral Setup <==

  ==> DiskDFJK: Density-Fitted J/K Matrices <==

    J tasked:                  Yes
    K tasked:                  Yes
    wK tasked:                  No
    OpenMP threads:              1
    Integrals threads:           1
    Memory [MiB]:            15735
    Algorithm:                Core
    Integral Cache:           SAVE
    Schwarz Cutoff:          1E-12
    Fitting Condition:       1E-10

   => Auxiliary Basis Set <=

  Basis Set: (JUN-CC-PVTZ AUX)
    Blend: JUN-CC-PVTZ-JKFIT
    Number of shells: 293
    Number of basis function: 935
    Number of Cartesian functions: 1127
    Spherical Harmonics?: true
    Max angular momentum: 4

  Minimum eigenvalue in the overlap matrix is 3.7039589369E-05.
  Using Symmetric Orthogonalization.

  SCF Guess: Superposition of Atomic Densities via on-the-fly atomic UHF.

  ==> Iterations <==

                           Total Energy        Delta E     RMS |[F,P]|

   @DF-RHF iter SAD:  -359.51874840898017   -3.59519e+02   0.00000e+00 
   @DF-RHF iter   1:  -360.76989211362798   -1.25114e+00   1.86968e-03 DIIS
   @DF-RHF iter   2:  -360.95715512538715   -1.87263e-01   1.16812e-03 DIIS
   @DF-RHF iter   3:  -361.03237788807502   -7.52228e-02   2.02350e-04 DIIS
   @DF-RHF iter   4:  -361.03628153809262   -3.90365e-03   8.53303e-05 DIIS
   @DF-RHF iter   5:  -361.03702860306453   -7.47065e-04   1.65296e-05 DIIS
   @DF-RHF iter   6:  -361.03708887351939   -6.02705e-05   7.46452e-06 DIIS
   @DF-RHF iter   7:  -361.03709867279326   -9.79927e-06   3.09419e-06 DIIS
   @DF-RHF iter   8:  -361.03710093498535   -2.26219e-06   1.13491e-06 DIIS
   @DF-RHF iter   9:  -361.03710126265946   -3.27674e-07   3.23384e-07 DIIS
   @DF-RHF iter  10:  -361.03710128116120   -1.85017e-08   1.43618e-07 DIIS
   @DF-RHF iter  11:  -361.03710128349354   -2.33234e-09   4.33222e-08 DIIS
   @DF-RHF iter  12:  -361.03710128375769   -2.64151e-10   1.46800e-08 DIIS
   @DF-RHF iter  13:  -361.03710128377827   -2.05773e-11   3.23783e-09 DIIS
  Energy and wave function converged.


  ==> Post-Iterations <==

    Orbital Energies [Eh]
    ---------------------

    Doubly Occupied:                                                      

       1A    -20.561934     2A    -20.520965     3A    -15.577345  
       4A    -11.348604     5A    -11.332341     6A    -11.243493  
       7A    -11.220935     8A     -1.392822     9A     -1.372930  
      10A     -1.206988    11A     -1.064137    12A     -0.913136  
      13A     -0.840697    14A     -0.776113    15A     -0.740498  
      16A     -0.688638    17A     -0.662088    18A     -0.635197  
      19A     -0.630723    20A     -0.595633    21A     -0.561444  
      22A     -0.542265    23A     -0.530211    24A     -0.520509  
      25A     -0.493949    26A     -0.435084    27A     -0.423710  
      28A     -0.408793  

    Virtual:                                                              

      29A      0.050126    30A      0.056088    31A      0.059826  
      32A      0.071886    33A      0.074312    34A      0.083771  
      35A      0.086804    36A      0.105069    37A      0.105538  
      38A      0.107974    39A      0.111504    40A      0.117010  
      41A      0.139490    42A      0.141401    43A      0.147685  
      44A      0.172189    45A      0.182781    46A      0.189008  
      47A      0.189159    48A      0.198293    49A      0.212779  
      50A      0.223625    51A      0.236210    52A      0.240004  
      53A      0.245613    54A      0.249805    55A      0.265393  
      56A      0.271586    57A      0.272387    58A      0.280028  
      59A      0.286071    60A      0.295217    61A      0.306982  
      62A      0.308761    63A      0.316201    64A      0.324544  
      65A      0.329963    66A      0.340316    67A      0.346611  
      68A      0.349478    69A      0.365574    70A      0.377058  
      71A      0.383633    72A      0.405373    73A      0.405419  
      74A      0.416713    75A      0.435204    76A      0.439867  
      77A      0.443408    78A      0.459988    79A      0.462015  
      80A      0.475473    81A      0.480928    82A      0.482741  
      83A      0.498997    84A      0.501924    85A      0.524883  
      86A      0.530840    87A      0.534276    88A      0.567343  
      89A      0.573048    90A      0.589493    91A      0.595432  
      92A      0.601305    93A      0.603335    94A      0.620783  
      95A      0.623141    96A      0.635346    97A      0.642053  
      98A      0.671868    99A      0.683980   100A      0.704763  
     101A      0.707272   102A      0.722842   103A      0.728602  
     104A      0.741770   105A      0.747749   106A      0.767846  
     107A      0.773948   108A      0.784792   109A      0.796403  
     110A      0.804430   111A      0.815083   112A      0.832058  
     113A      0.852854   114A      0.866124   115A      0.870154  
     116A      0.878263   117A      0.879498   118A      0.894074  
     119A      0.903815   120A      0.911784   121A      0.920239  
     122A      0.931974   123A      0.947515   124A      0.971425  
     125A      0.982228   126A      0.987732   127A      1.006862  
     128A      1.019905   129A      1.043946   130A      1.048642  
     131A      1.056241   132A      1.061876   133A      1.085152  
     134A      1.087241   135A      1.100631   136A      1.114065  
     137A      1.132249   138A      1.148484   139A      1.161537  
     140A      1.192855   141A      1.203386   142A      1.222651  
     143A      1.235488   144A      1.268686   145A      1.270191  
     146A      1.289087   147A      1.291830   148A      1.307169  
     149A      1.323966   150A      1.342025   151A      1.344524  
     152A      1.360894   153A      1.371745   154A      1.381000  
     155A      1.398500   156A      1.408992   157A      1.411438  
     158A      1.430615   159A      1.438226   160A      1.443037  
     161A      1.458117   162A      1.460558   163A      1.472769  
     164A      1.481856   165A      1.527771   166A      1.562579  
     167A      1.569914   168A      1.574461   169A      1.600682  
     170A      1.617586   171A      1.625358   172A      1.651128  
     173A      1.673641   174A      1.674348   175A      1.684324  
     176A      1.725502   177A      1.730126   178A      1.754044  
     179A      1.777131   180A      1.791207   181A      1.801239  
     182A      1.805225   183A      1.836978   184A      1.864155  
     185A      1.893468   186A      1.923167   187A      1.930007  
     188A      1.945803   189A      1.974135   190A      2.081715  
     191A      2.147385   192A      2.154769   193A      2.240374  
     194A      2.295966   195A      2.296386   196A      2.330512  
     197A      2.336817   198A      2.372922   199A      2.394902  
     200A      2.403640   201A      2.534058   202A      2.544287  
     203A      2.579356   204A      2.623344   205A      2.638281  
     206A      2.705921   207A      2.728162   208A      2.746400  
     209A      2.766551   210A      2.796859   211A      2.845408  
     212A      2.862877   213A      2.884874   214A      2.919087  
     215A      2.943149   216A      2.969311   217A      2.980158  
     218A      2.991035   219A      3.046402   220A      3.065907  
     221A      3.083551   222A      3.088901   223A      3.126995  
     224A      3.128051   225A      3.144061   226A      3.157416  
     227A      3.181691   228A      3.190655   229A      3.216588  
     230A      3.249621   231A      3.290302   232A      3.296983  
     233A      3.310950   234A      3.358157   235A      3.369366  
     236A      3.387322   237A      3.389526   238A      3.405158  
     239A      3.416953   240A      3.439786   241A      3.441432  
     242A      3.445993   243A      3.466475   244A      3.471380  
     245A      3.487789   246A      3.492681   247A      3.497703  
     248A      3.503861   249A      3.521323   250A      3.533801  
     251A      3.558303   252A      3.567096   253A      3.583238  
     254A      3.590862   255A      3.602284   256A      3.606694  
     257A      3.636528   258A      3.668225   259A      3.683595  
     260A      3.687195   261A      3.706180   262A      3.728849  
     263A      3.774315   264A      3.776022   265A      3.801870  
     266A      3.831050   267A      3.836680   268A      3.840100  
     269A      3.876128   270A      3.884976   271A      3.885921  
     272A      3.915589   273A      3.929791   274A      3.966232  
     275A      3.968149   276A      3.991863   277A      3.997452  
     278A      4.036875   279A      4.114063   280A      4.125660  
     281A      4.149968   282A      4.155180   283A      4.168675  
     284A      4.195056   285A      4.210495   286A      4.230189  
     287A      4.249367   288A      4.251872   289A      4.260601  
     290A      4.295177   291A      4.307379   292A      4.317371  
     293A      4.319679   294A      4.338592   295A      4.388798  
     296A      4.393834   297A      4.411482   298A      4.417449  
     299A      4.440328   300A      4.462811   301A      4.478838  
     302A      4.483017   303A      4.509746   304A      4.514961  
     305A      4.542615   306A      4.565024   307A      4.596267  
     308A      4.634873   309A      4.638674   310A      4.654023  
     311A      4.669495   312A      4.675614   313A      4.677203  
     314A      4.690130   315A      4.729864   316A      4.741769  
     317A      4.749449   318A      4.823104   319A      4.865718  
     320A      4.920752   321A      4.938902   322A      4.970231  
     323A      5.008467   324A      5.011812   325A      5.044281  
     326A      5.063111   327A      5.115633   328A      5.163692  
     329A      5.196349   330A      5.199550   331A      5.237530  
     332A      5.253530   333A      5.271075   334A      5.271247  
     335A      5.288978   336A      5.309066   337A      5.320078  
     338A      5.329324   339A      5.376153   340A      5.448464  
     341A      5.457534   342A      5.484871   343A      5.512204  
     344A      5.524861   345A      5.550766   346A      5.615701  
     347A      5.665868   348A      5.713230   349A      5.722090  
     350A      5.730455   351A      5.733942   352A      5.754829  
     353A      5.783203   354A      5.813372   355A      5.846429  
     356A      5.888090   357A      5.899597   358A      5.924133  
     359A      5.970448   360A      5.990913   361A      5.999563  
     362A      6.057973   363A      6.063886   364A      6.102892  
     365A      6.158978   366A      6.185142   367A      6.260347  
     368A      6.335136   369A      6.369288   370A      6.474251  
     371A      6.491118   372A      6.532157   373A      6.583744  
     374A      6.695310   375A      6.762433   376A      6.781418  
     377A      6.923005   378A      6.996367   379A      7.171398  
     380A      7.202603   381A      7.240214   382A      7.266263  
     383A      7.296800   384A      7.362869   385A      7.411937  
     386A      7.427084   387A      7.437290   388A      7.618893  
     389A      7.696604   390A      7.730575   391A      7.740138  
     392A      7.832140   393A     12.444966   394A     12.611891  
     395A     13.975051   396A     14.105137   397A     14.332483  
     398A     14.658648   399A     15.866511  

    Final Occupation by Irrep:
              A 
    DOCC [    28 ]

  @DF-RHF Final Energy:  -361.03710128377827

   => Energetics <=

    Nuclear Repulsion Energy =            285.8109331156665576
    One-Electron Energy =               -1059.2137025550341605
    Two-Electron Energy =                 412.3656681555893329
    Total Energy =                       -361.0371012837782700

Computation Completed


Properties will be evaluated at   0.000000,   0.000000,   0.000000 [a0]

Properties computed using the SCF density matrix

  Nuclear Dipole Moment: [e a0]
     X:     7.6582      Y:    -0.7356      Z:     0.0001

  Electronic Dipole Moment: [e a0]
     X:    -7.4654      Y:     0.3062      Z:    -0.0002

  Dipole Moment: [e a0]
     X:     0.1928      Y:    -0.4294      Z:    -0.0001     Total:     0.4707

  Dipole Moment: [D]
     X:     0.4902      Y:    -1.0914      Z:    -0.0003     Total:     1.1964


*** tstop() called on r282 at Sat Sep 11 01:20:13 2021
Module time:
	user time   =      29.28 seconds =       0.49 minutes
	system time =       0.84 seconds =       0.01 minutes
	total time  =         31 seconds =       0.52 minutes
Total time:
	user time   =      29.28 seconds =       0.49 minutes
	system time =       0.84 seconds =       0.01 minutes
	total time  =         31 seconds =       0.52 minutes

  //>>>>>>>>>>>>>>>>>>>>>>>>>>>>>>>>>>>//
  //            Monomer A HF           //
  //<<<<<<<<<<<<<<<<<<<<<<<<<<<<<<<<<<<//


*** tstart() called on r282
*** at Sat Sep 11 01:20:13 2021

   => Loading Basis Set <=

    Name: JUN-CC-PVTZ
    Role: ORBITAL
    Keyword: BASIS
    atoms 1, 8-9, 12     entry C          line   217 file /home/r08543048/miniconda3/share/psi4/basis/jun-cc-pvtz.gbs 
    atoms 2, 10          entry O          line   305 file /home/r08543048/miniconda3/share/psi4/basis/jun-cc-pvtz.gbs 
    atoms 3              entry N          line   261 file /home/r08543048/miniconda3/share/psi4/basis/jun-cc-pvtz.gbs 
    atoms 4-7, 11, 13-16 entry H          line    36 file /home/r08543048/miniconda3/share/psi4/basis/jun-cc-pvtz.gbs 


         ---------------------------------------------------------
                                   SCF
               by Justin Turney, Rob Parrish, Andy Simmonett
                          and Daniel G. A. Smith
                              RHF Reference
                        1 Threads,  20980 MiB Core
         ---------------------------------------------------------

  ==> Geometry <==

    Molecular point group: c1
    Full point group: C1

    Geometry (in Angstrom), charge = 0, multiplicity = 1:

       Center              X                  Y                   Z               Mass       
    ------------   -----------------  -----------------  -----------------  -----------------
         C           -2.815456053839     0.182831143658    -0.000378347167    12.000000000000
         O           -2.190247053839     1.235652143658     0.000121652833    15.994914619570
         N           -2.260564053839    -1.046996856342     0.000071652833    14.003074004430
         H           -2.849620053839    -1.859236856342     0.000102652833     1.007825032230
         H           -1.248426053839    -1.150546856342     0.000444652833     1.007825032230
         H           -3.915024053839     0.159998143658    -0.000219347167     1.007825032230
      Gh(H)           0.161630946161     1.006511143658     0.000226652833     1.007825032230
      Gh(C)           2.375108946161     0.768946143658     0.000027652833    12.000000000000
      Gh(C)           0.967980946161     0.256426143658     0.000128652833    12.000000000000
      Gh(O)           0.685112946161    -0.934186856342     0.000093652833    15.994914619570
      Gh(H)           2.468387946161     1.429197143658    -0.868101347167     1.007825032230
      Gh(C)           3.430339946161    -0.321964856342    -0.000155347167    12.000000000000
      Gh(H)           4.428923946161     0.110351143658    -0.000217347167     1.007825032230
      Gh(H)           3.327730946161    -0.957450856342     0.877242652833     1.007825032230
      Gh(H)           3.327564946161    -0.957313856342    -0.877634347167     1.007825032230
      Gh(H)           2.468554946161     1.429068143658     0.868236652833     1.007825032230

  Running in c1 symmetry.

  Rotational constants: A =      0.21597  B =      0.03044  C =      0.02694 [cm^-1]
  Rotational constants: A =   6474.49988  B =    912.48745  C =    807.62136 [MHz]
  Nuclear repulsion =   71.102035261655089

  Charge       = 0
  Multiplicity = 1
  Electrons    = 24
  Nalpha       = 12
  Nbeta        = 12

  ==> Algorithm <==

  SCF Algorithm Type is DF.
  DIIS enabled.
  MOM disabled.
  Fractional occupation disabled.
  Guess Type is SAD.
  Energy threshold   = 1.00e-08
  Density threshold  = 1.00e-08
  Integral threshold = 0.00e+00

  ==> Primary Basis <==

  Basis Set: JUN-CC-PVTZ
    Blend: JUN-CC-PVTZ
    Number of shells: 145
    Number of basis function: 399
    Number of Cartesian functions: 450
    Spherical Harmonics?: true
    Max angular momentum: 3

   => Loading Basis Set <=

    Name: (JUN-CC-PVTZ AUX)
    Role: JKFIT
    Keyword: DF_BASIS_SCF
    atoms 1, 8-9, 12     entry C          line   152 file /home/r08543048/miniconda3/share/psi4/basis/jun-cc-pvtz-jkfit.gbs 
    atoms 2, 10          entry O          line   272 file /home/r08543048/miniconda3/share/psi4/basis/jun-cc-pvtz-jkfit.gbs 
    atoms 3              entry N          line   212 file /home/r08543048/miniconda3/share/psi4/basis/jun-cc-pvtz-jkfit.gbs 
    atoms 4-7, 11, 13-16 entry H          line    70 file /home/r08543048/miniconda3/share/psi4/basis/jun-cc-pvtz-jkfit.gbs 

  ==> Pre-Iterations <==

   -------------------------------------------------------
    Irrep   Nso     Nmo     Nalpha   Nbeta   Ndocc  Nsocc
   -------------------------------------------------------
     A        399     399       0       0       0       0
   -------------------------------------------------------
    Total     399     399      12      12      12       0
   -------------------------------------------------------

  ==> Integral Setup <==

  ==> DiskDFJK: Density-Fitted J/K Matrices <==

    J tasked:                  Yes
    K tasked:                  Yes
    wK tasked:                  No
    OpenMP threads:              1
    Integrals threads:           1
    Memory [MiB]:            15735
    Algorithm:                Core
    Integral Cache:           LOAD
    Schwarz Cutoff:          1E-12
    Fitting Condition:       1E-10

   => Auxiliary Basis Set <=

  Basis Set: (JUN-CC-PVTZ AUX)
    Blend: JUN-CC-PVTZ-JKFIT
    Number of shells: 293
    Number of basis function: 935
    Number of Cartesian functions: 1127
    Spherical Harmonics?: true
    Max angular momentum: 4

  Minimum eigenvalue in the overlap matrix is 3.7039589369E-05.
  Using Symmetric Orthogonalization.

  SCF Guess: Superposition of Atomic Densities via on-the-fly atomic UHF.

  ==> Iterations <==

                           Total Energy        Delta E     RMS |[F,P]|

   @DF-RHF iter SAD:  -168.21440115064436   -1.68214e+02   0.00000e+00 
   @DF-RHF iter   1:  -168.87994456765051   -6.65543e-01   1.34007e-03 DIIS
   @DF-RHF iter   2:  -168.95624555700996   -7.63010e-02   9.30084e-04 DIIS
   @DF-RHF iter   3:  -169.00129600837457   -4.50505e-02   1.30310e-04 DIIS
   @DF-RHF iter   4:  -169.00273436610445   -1.43836e-03   5.60603e-05 DIIS
   @DF-RHF iter   5:  -169.00303367824165   -2.99312e-04   1.15485e-05 DIIS
   @DF-RHF iter   6:  -169.00306508175424   -3.14035e-05   5.55447e-06 DIIS
   @DF-RHF iter   7:  -169.00307174101113   -6.65926e-06   2.24287e-06 DIIS
   @DF-RHF iter   8:  -169.00307289303950   -1.15203e-06   6.61368e-07 DIIS
   @DF-RHF iter   9:  -169.00307299578844   -1.02749e-07   1.79681e-07 DIIS
   @DF-RHF iter  10:  -169.00307300359586   -7.80742e-09   4.40504e-08 DIIS
   @DF-RHF iter  11:  -169.00307300397941   -3.83551e-10   7.81879e-09 DIIS
  Energy and wave function converged.


  ==> Post-Iterations <==

    Orbital Energies [Eh]
    ---------------------

    Doubly Occupied:                                                      

       1A    -20.528672     2A    -15.600752     3A    -11.357632  
       4A     -1.379273     5A     -1.224606     6A     -0.854160  
       7A     -0.754484     8A     -0.676670     9A     -0.605540  
      10A     -0.571451    11A     -0.436396    12A     -0.422292  

    Virtual:                                                              

      13A      0.032581    14A      0.045075    15A      0.061042  
      16A      0.062326    17A      0.067004    18A      0.076104  
      19A      0.083870    20A      0.101025    21A      0.106524  
      22A      0.109223    23A      0.109568    24A      0.114479  
      25A      0.132309    26A      0.139920    27A      0.156680  
      28A      0.159439    29A      0.165475    30A      0.170437  
      31A      0.182897    32A      0.189103    33A      0.199845  
      34A      0.204734    35A      0.209774    36A      0.217734  
      37A      0.245420    38A      0.248644    39A      0.252276  
      40A      0.258708    41A      0.265197    42A      0.272895  
      43A      0.296119    44A      0.301594    45A      0.305006  
      46A      0.310320    47A      0.325099    48A      0.337946  
      49A      0.340144    50A      0.345071    51A      0.356450  
      52A      0.373069    53A      0.381823    54A      0.387728  
      55A      0.393598    56A      0.402660    57A      0.411516  
      58A      0.422587    59A      0.438123    60A      0.443025  
      61A      0.445990    62A      0.458107    63A      0.471417  
      64A      0.471506    65A      0.482964    66A      0.497081  
      67A      0.498723    68A      0.510190    69A      0.534072  
      70A      0.545108    71A      0.554280    72A      0.558511  
      73A      0.566839    74A      0.576140    75A      0.584073  
      76A      0.595245    77A      0.598245    78A      0.602900  
      79A      0.611050    80A      0.623244    81A      0.636718  
      82A      0.643294    83A      0.660854    84A      0.679823  
      85A      0.693724    86A      0.699649    87A      0.702845  
      88A      0.741147    89A      0.762649    90A      0.774718  
      91A      0.787045    92A      0.788779    93A      0.801820  
      94A      0.834661    95A      0.847767    96A      0.862873  
      97A      0.880700    98A      0.903688    99A      0.911723  
     100A      0.919201   101A      0.932775   102A      0.968234  
     103A      0.987771   104A      1.001971   105A      1.011043  
     106A      1.016698   107A      1.039736   108A      1.047048  
     109A      1.064489   110A      1.064736   111A      1.083722  
     112A      1.089225   113A      1.095857   114A      1.119865  
     115A      1.127020   116A      1.133857   117A      1.159326  
     118A      1.170810   119A      1.190715   120A      1.196701  
     121A      1.221475   122A      1.225440   123A      1.247092  
     124A      1.250852   125A      1.259346   126A      1.271039  
     127A      1.275517   128A      1.285674   129A      1.286604  
     130A      1.295302   131A      1.304857   132A      1.309861  
     133A      1.332030   134A      1.334329   135A      1.355300  
     136A      1.362684   137A      1.387089   138A      1.390199  
     139A      1.400200   140A      1.418242   141A      1.421060  
     142A      1.461121   143A      1.474525   144A      1.487834  
     145A      1.515450   146A      1.520176   147A      1.549518  
     148A      1.561524   149A      1.574711   150A      1.576298  
     151A      1.591060   152A      1.605706   153A      1.607884  
     154A      1.649416   155A      1.679460   156A      1.696753  
     157A      1.707859   158A      1.720992   159A      1.735830  
     160A      1.752925   161A      1.764201   162A      1.766777  
     163A      1.783335   164A      1.873634   165A      1.895121  
     166A      1.904711   167A      1.917647   168A      1.941602  
     169A      1.958253   170A      2.005906   171A      2.071957  
     172A      2.087264   173A      2.114229   174A      2.118637  
     175A      2.141879   176A      2.161464   177A      2.189896  
     178A      2.249831   179A      2.292730   180A      2.304070  
     181A      2.323456   182A      2.339009   183A      2.381797  
     184A      2.396980   185A      2.409857   186A      2.444046  
     187A      2.469559   188A      2.517032   189A      2.518472  
     190A      2.557979   191A      2.563803   192A      2.608180  
     193A      2.681008   194A      2.731146   195A      2.738418  
     196A      2.764701   197A      2.830228   198A      2.872170  
     199A      2.899039   200A      2.961024   201A      2.978010  
     202A      3.044952   203A      3.130990   204A      3.150232  
     205A      3.166260   206A      3.221220   207A      3.247561  
     208A      3.334961   209A      3.378026   210A      3.412426  
     211A      3.429068   212A      3.467183   213A      3.469876  
     214A      3.483465   215A      3.492379   216A      3.504459  
     217A      3.522230   218A      3.538067   219A      3.550806  
     220A      3.589375   221A      3.590790   222A      3.603695  
     223A      3.631250   224A      3.644788   225A      3.655439  
     226A      3.686382   227A      3.712478   228A      3.726567  
     229A      3.781893   230A      3.791843   231A      3.792803  
     232A      3.804013   233A      3.820954   234A      3.838963  
     235A      3.863221   236A      3.873771   237A      3.875928  
     238A      3.897396   239A      3.914975   240A      3.936706  
     241A      3.951534   242A      3.977049   243A      3.984545  
     244A      4.019620   245A      4.026726   246A      4.052811  
     247A      4.108192   248A      4.119622   249A      4.139266  
     250A      4.155203   251A      4.167983   252A      4.211808  
     253A      4.226513   254A      4.246486   255A      4.247015  
     256A      4.260324   257A      4.286839   258A      4.321242  
     259A      4.368737   260A      4.407276   261A      4.421988  
     262A      4.436630   263A      4.445684   264A      4.473020  
     265A      4.483729   266A      4.491085   267A      4.493552  
     268A      4.493838   269A      4.525861   270A      4.543567  
     271A      4.564710   272A      4.569469   273A      4.606577  
     274A      4.621148   275A      4.629220   276A      4.639302  
     277A      4.658937   278A      4.665643   279A      4.698307  
     280A      4.714320   281A      4.721197   282A      4.725094  
     283A      4.730573   284A      4.767074   285A      4.779225  
     286A      4.815180   287A      4.820536   288A      4.822092  
     289A      4.835984   290A      4.853076   291A      4.856924  
     292A      4.877097   293A      4.911344   294A      4.933348  
     295A      4.941610   296A      4.962521   297A      4.977726  
     298A      4.982303   299A      4.997649   300A      5.002892  
     301A      5.012342   302A      5.039020   303A      5.046083  
     304A      5.063225   305A      5.114468   306A      5.162145  
     307A      5.171140   308A      5.180826   309A      5.224331  
     310A      5.240343   311A      5.261481   312A      5.264865  
     313A      5.293581   314A      5.333670   315A      5.385632  
     316A      5.450078   317A      5.472265   318A      5.503315  
     319A      5.508807   320A      5.556688   321A      5.627143  
     322A      5.666877   323A      5.720789   324A      5.725456  
     325A      5.740306   326A      5.791882   327A      5.876888  
     328A      5.885247   329A      5.899283   330A      5.948409  
     331A      5.969890   332A      6.029049   333A      6.036827  
     334A      6.059472   335A      6.088678   336A      6.091817  
     337A      6.133031   338A      6.175003   339A      6.209508  
     340A      6.250377   341A      6.309841   342A      6.344955  
     343A      6.372490   344A      6.386799   345A      6.434929  
     346A      6.458437   347A      6.479223   348A      6.506471  
     349A      6.577028   350A      6.586712   351A      6.659287  
     352A      6.701424   353A      6.775363   354A      6.875458  
     355A      6.935358   356A      6.972780   357A      6.988250  
     358A      6.989237   359A      7.159794   360A      7.216754  
     361A      7.283826   362A      7.330055   363A      7.389518  
     364A      7.393431   365A      7.431716   366A      7.530805  
     367A      7.578550   368A      7.616098   369A      7.697792  
     370A      7.706818   371A      7.740699   372A      7.775825  
     373A      7.818485   374A      7.854736   375A      7.896446  
     376A      7.999739   377A      8.153907   378A      8.235659  
     379A      8.459416   380A      8.567055   381A      9.364968  
     382A      9.428291   383A      9.638808   384A      9.788674  
     385A      9.872381   386A      9.929058   387A      9.963026  
     388A     10.180189   389A     10.968125   390A     11.568283  
     391A     11.978742   392A     12.602021   393A     13.686015  
     394A     14.161844   395A     15.843982   396A     43.740727  
     397A     44.810879   398A     45.746777   399A     60.577390  

    Final Occupation by Irrep:
              A 
    DOCC [    12 ]

  @DF-RHF Final Energy:  -169.00307300397941

   => Energetics <=

    Nuclear Repulsion Energy =             71.1020352616550895
    One-Electron Energy =                -371.3863564505005570
    Two-Electron Energy =                 131.2812481848660582
    Total Energy =                       -169.0030730039794093

Computation Completed


Properties will be evaluated at   0.000000,   0.000000,   0.000000 [a0]

Properties computed using the SCF density matrix

  Nuclear Dipole Moment: [e a0]
     X:  -110.0798      Y:     1.5183      Z:    -0.0009

  Electronic Dipole Moment: [e a0]
     X:   109.6143      Y:    -3.1869      Z:     0.0008

  Dipole Moment: [e a0]
     X:    -0.4655      Y:    -1.6686      Z:    -0.0001     Total:     1.7323

  Dipole Moment: [D]
     X:    -1.1833      Y:    -4.2412      Z:    -0.0003     Total:     4.4032


*** tstop() called on r282 at Sat Sep 11 01:20:27 2021
Module time:
	user time   =      14.24 seconds =       0.24 minutes
	system time =       0.30 seconds =       0.00 minutes
	total time  =         14 seconds =       0.23 minutes
Total time:
	user time   =      43.52 seconds =       0.73 minutes
	system time =       1.14 seconds =       0.02 minutes
	total time  =         45 seconds =       0.75 minutes

  //>>>>>>>>>>>>>>>>>>>>>>>>>>>>>>>>>>>//
  //            Monomer B HF           //
  //<<<<<<<<<<<<<<<<<<<<<<<<<<<<<<<<<<<//


*** tstart() called on r282
*** at Sat Sep 11 01:20:27 2021

   => Loading Basis Set <=

    Name: JUN-CC-PVTZ
    Role: ORBITAL
    Keyword: BASIS
    atoms 1, 8-9, 12     entry C          line   217 file /home/r08543048/miniconda3/share/psi4/basis/jun-cc-pvtz.gbs 
    atoms 2, 10          entry O          line   305 file /home/r08543048/miniconda3/share/psi4/basis/jun-cc-pvtz.gbs 
    atoms 3              entry N          line   261 file /home/r08543048/miniconda3/share/psi4/basis/jun-cc-pvtz.gbs 
    atoms 4-7, 11, 13-16 entry H          line    36 file /home/r08543048/miniconda3/share/psi4/basis/jun-cc-pvtz.gbs 


         ---------------------------------------------------------
                                   SCF
               by Justin Turney, Rob Parrish, Andy Simmonett
                          and Daniel G. A. Smith
                              RHF Reference
                        1 Threads,  20980 MiB Core
         ---------------------------------------------------------

  ==> Geometry <==

    Molecular point group: c1
    Full point group: C1

    Geometry (in Angstrom), charge = 0, multiplicity = 1:

       Center              X                  Y                   Z               Mass       
    ------------   -----------------  -----------------  -----------------  -----------------
      Gh(C)          -2.815456053839     0.182831143658    -0.000378347167    12.000000000000
      Gh(O)          -2.190247053839     1.235652143658     0.000121652833    15.994914619570
      Gh(N)          -2.260564053839    -1.046996856342     0.000071652833    14.003074004430
      Gh(H)          -2.849620053839    -1.859236856342     0.000102652833     1.007825032230
      Gh(H)          -1.248426053839    -1.150546856342     0.000444652833     1.007825032230
      Gh(H)          -3.915024053839     0.159998143658    -0.000219347167     1.007825032230
         H            0.161630946161     1.006511143658     0.000226652833     1.007825032230
         C            2.375108946161     0.768946143658     0.000027652833    12.000000000000
         C            0.967980946161     0.256426143658     0.000128652833    12.000000000000
         O            0.685112946161    -0.934186856342     0.000093652833    15.994914619570
         H            2.468387946161     1.429197143658    -0.868101347167     1.007825032230
         C            3.430339946161    -0.321964856342    -0.000155347167    12.000000000000
         H            4.428923946161     0.110351143658    -0.000217347167     1.007825032230
         H            3.327730946161    -0.957450856342     0.877242652833     1.007825032230
         H            3.327564946161    -0.957313856342    -0.877634347167     1.007825032230
         H            2.468554946161     1.429068143658     0.868236652833     1.007825032230

  Running in c1 symmetry.

  Rotational constants: A =      0.21597  B =      0.03044  C =      0.02694 [cm^-1]
  Rotational constants: A =   6474.49988  B =    912.48745  C =    807.62136 [MHz]
  Nuclear repulsion =  118.681439565083465

  Charge       = 0
  Multiplicity = 1
  Electrons    = 32
  Nalpha       = 16
  Nbeta        = 16

  ==> Algorithm <==

  SCF Algorithm Type is DF.
  DIIS enabled.
  MOM disabled.
  Fractional occupation disabled.
  Guess Type is SAD.
  Energy threshold   = 1.00e-08
  Density threshold  = 1.00e-08
  Integral threshold = 0.00e+00

  ==> Primary Basis <==

  Basis Set: JUN-CC-PVTZ
    Blend: JUN-CC-PVTZ
    Number of shells: 145
    Number of basis function: 399
    Number of Cartesian functions: 450
    Spherical Harmonics?: true
    Max angular momentum: 3

   => Loading Basis Set <=

    Name: (JUN-CC-PVTZ AUX)
    Role: JKFIT
    Keyword: DF_BASIS_SCF
    atoms 1, 8-9, 12     entry C          line   152 file /home/r08543048/miniconda3/share/psi4/basis/jun-cc-pvtz-jkfit.gbs 
    atoms 2, 10          entry O          line   272 file /home/r08543048/miniconda3/share/psi4/basis/jun-cc-pvtz-jkfit.gbs 
    atoms 3              entry N          line   212 file /home/r08543048/miniconda3/share/psi4/basis/jun-cc-pvtz-jkfit.gbs 
    atoms 4-7, 11, 13-16 entry H          line    70 file /home/r08543048/miniconda3/share/psi4/basis/jun-cc-pvtz-jkfit.gbs 

  ==> Pre-Iterations <==

   -------------------------------------------------------
    Irrep   Nso     Nmo     Nalpha   Nbeta   Ndocc  Nsocc
   -------------------------------------------------------
     A        399     399       0       0       0       0
   -------------------------------------------------------
    Total     399     399      16      16      16       0
   -------------------------------------------------------

  ==> Integral Setup <==

  ==> DiskDFJK: Density-Fitted J/K Matrices <==

    J tasked:                  Yes
    K tasked:                  Yes
    wK tasked:                  No
    OpenMP threads:              1
    Integrals threads:           1
    Memory [MiB]:            15735
    Algorithm:                Core
    Integral Cache:           LOAD
    Schwarz Cutoff:          1E-12
    Fitting Condition:       1E-10

   => Auxiliary Basis Set <=

  Basis Set: (JUN-CC-PVTZ AUX)
    Blend: JUN-CC-PVTZ-JKFIT
    Number of shells: 293
    Number of basis function: 935
    Number of Cartesian functions: 1127
    Spherical Harmonics?: true
    Max angular momentum: 4

  Minimum eigenvalue in the overlap matrix is 3.7039589369E-05.
  Using Symmetric Orthogonalization.

  SCF Guess: Superposition of Atomic Densities via on-the-fly atomic UHF.

  ==> Iterations <==

                           Total Energy        Delta E     RMS |[F,P]|

   @DF-RHF iter SAD:  -191.16964229232801   -1.91170e+02   0.00000e+00 
   @DF-RHF iter   1:  -191.85748968257514   -6.87847e-01   1.39723e-03 DIIS
   @DF-RHF iter   2:  -191.97254081474364   -1.15051e-01   9.05555e-04 DIIS
   @DF-RHF iter   3:  -192.02002420637922   -4.74834e-02   1.67005e-04 DIIS
   @DF-RHF iter   4:  -192.02285895527342   -2.83475e-03   7.08665e-05 DIIS
   @DF-RHF iter   5:  -192.02341853998104   -5.59585e-04   1.28400e-05 DIIS
   @DF-RHF iter   6:  -192.02345748292072   -3.89429e-05   4.92890e-06 DIIS
   @DF-RHF iter   7:  -192.02346290332835   -5.42041e-06   2.14896e-06 DIIS
   @DF-RHF iter   8:  -192.02346383662316   -9.33295e-07   6.81287e-07 DIIS
   @DF-RHF iter   9:  -192.02346395158330   -1.14960e-07   1.36246e-07 DIIS
   @DF-RHF iter  10:  -192.02346395596669   -4.38339e-09   2.83157e-08 DIIS
   @DF-RHF iter  11:  -192.02346395611380   -1.47111e-10   5.79282e-09 DIIS
  Energy and wave function converged.


  ==> Post-Iterations <==

    Orbital Energies [Eh]
    ---------------------

    Doubly Occupied:                                                      

       1A    -20.556947     2A    -11.333234     3A    -11.245567  
       4A    -11.221194     5A     -1.383420     6A     -1.064548  
       7A     -0.913816     8A     -0.775752     9A     -0.681317  
      10A     -0.635774    11A     -0.624945    12A     -0.541928  
      13A     -0.525910    14A     -0.520873    15A     -0.488919  
      16A     -0.424766  

    Virtual:                                                              

      17A      0.040908    18A      0.048022    19A      0.056087  
      20A      0.066304    21A      0.070459    22A      0.077592  
      23A      0.081809    24A      0.100470    25A      0.102937  
      26A      0.106077    27A      0.112539    28A      0.116628  
      29A      0.137128    30A      0.142830    31A      0.145951  
      32A      0.167284    33A      0.167716    34A      0.173332  
      35A      0.188505    36A      0.197517    37A      0.200919  
      38A      0.205005    39A      0.214287    40A      0.225635  
      41A      0.230410    42A      0.248449    43A      0.255013  
      44A      0.267006    45A      0.273574    46A      0.285572  
      47A      0.287723    48A      0.298004    49A      0.303882  
      50A      0.313313    51A      0.324269    52A      0.327219  
      53A      0.347036    54A      0.351349    55A      0.357984  
      56A      0.370397    57A      0.375574    58A      0.378384  
      59A      0.382256    60A      0.392185    61A      0.409751  
      62A      0.420775    63A      0.424695    64A      0.431800  
      65A      0.433334    66A      0.450337    67A      0.458182  
      68A      0.470805    69A      0.478541    70A      0.486990  
      71A      0.497698    72A      0.501328    73A      0.503582  
      74A      0.517806    75A      0.534631    76A      0.539119  
      77A      0.557712    78A      0.586483    79A      0.602546  
      80A      0.615902    81A      0.616731    82A      0.624313  
      83A      0.643885    84A      0.671297    85A      0.687440  
      86A      0.706239    87A      0.708235    88A      0.726677  
      89A      0.733717    90A      0.740877    91A      0.755352  
      92A      0.756021    93A      0.764379    94A      0.767060  
      95A      0.786028    96A      0.801582    97A      0.811383  
      98A      0.817094    99A      0.826662   100A      0.830603  
     101A      0.840862   102A      0.849398   103A      0.871474  
     104A      0.872997   105A      0.883612   106A      0.895689  
     107A      0.907478   108A      0.909688   109A      0.933400  
     110A      0.939411   111A      0.964387   112A      0.965141  
     113A      0.993173   114A      0.999427   115A      1.008053  
     116A      1.009971   117A      1.030916   118A      1.039782  
     119A      1.045008   120A      1.072022   121A      1.075724  
     122A      1.101154   123A      1.108260   124A      1.148370  
     125A      1.155194   126A      1.160151   127A      1.187162  
     128A      1.214525   129A      1.223821   130A      1.243444  
     131A      1.268947   132A      1.290453   133A      1.312610  
     134A      1.335993   135A      1.337002   136A      1.341743  
     137A      1.351109   138A      1.369326   139A      1.398288  
     140A      1.402874   141A      1.423491   142A      1.427921  
     143A      1.434717   144A      1.443553   145A      1.465870  
     146A      1.474319   147A      1.511171   148A      1.521728  
     149A      1.532587   150A      1.547111   151A      1.558381  
     152A      1.572540   153A      1.579045   154A      1.598732  
     155A      1.603074   156A      1.614368   157A      1.636215  
     158A      1.653057   159A      1.675808   160A      1.686834  
     161A      1.710057   162A      1.712183   163A      1.734640  
     164A      1.745195   165A      1.761173   166A      1.769377  
     167A      1.803213   168A      1.805482   169A      1.837087  
     170A      1.854539   171A      1.889114   172A      1.901086  
     173A      1.925540   174A      1.938926   175A      1.991376  
     176A      2.000985   177A      2.046556   178A      2.049742  
     179A      2.179378   180A      2.219362   181A      2.263850  
     182A      2.301717   183A      2.318403   184A      2.341629  
     185A      2.405065   186A      2.496883   187A      2.511535  
     188A      2.530492   189A      2.579252   190A      2.615733  
     191A      2.622584   192A      2.646092   193A      2.684190  
     194A      2.717748   195A      2.739515   196A      2.765930  
     197A      2.788922   198A      2.795776   199A      2.807071  
     200A      2.835229   201A      2.847076   202A      2.891801  
     203A      2.911604   204A      2.937225   205A      2.956987  
     206A      2.975099   207A      2.991219   208A      2.997200  
     209A      3.014442   210A      3.077061   211A      3.083914  
     212A      3.114813   213A      3.128379   214A      3.129939  
     215A      3.141672   216A      3.204365   217A      3.214777  
     218A      3.249035   219A      3.279871   220A      3.289814  
     221A      3.336216   222A      3.359924   223A      3.383277  
     224A      3.390453   225A      3.404917   226A      3.420816  
     227A      3.444867   228A      3.457835   229A      3.471240  
     230A      3.495705   231A      3.504267   232A      3.515836  
     233A      3.531918   234A      3.554947   235A      3.590732  
     236A      3.595641   237A      3.615089   238A      3.632596  
     239A      3.665887   240A      3.682921   241A      3.699624  
     242A      3.717797   243A      3.725775   244A      3.765124  
     245A      3.775244   246A      3.789661   247A      3.830551  
     248A      3.838039   249A      3.875440   250A      3.877474  
     251A      3.884752   252A      3.914056   253A      3.952958  
     254A      3.982645   255A      3.988784   256A      4.010093  
     257A      4.026326   258A      4.043441   259A      4.122537  
     260A      4.135371   261A      4.140904   262A      4.190842  
     263A      4.198659   264A      4.210092   265A      4.225845  
     266A      4.265232   267A      4.295820   268A      4.309833  
     269A      4.319571   270A      4.324664   271A      4.341633  
     272A      4.375774   273A      4.385867   274A      4.392309  
     275A      4.410218   276A      4.436032   277A      4.440497  
     278A      4.461400   279A      4.481808   280A      4.501157  
     281A      4.510500   282A      4.519416   283A      4.539802  
     284A      4.584217   285A      4.604840   286A      4.637054  
     287A      4.637710   288A      4.658611   289A      4.674488  
     290A      4.685262   291A      4.704467   292A      4.712608  
     293A      4.737020   294A      4.743324   295A      4.744426  
     296A      4.792858   297A      4.816171   298A      4.844662  
     299A      4.876432   300A      4.880333   301A      4.894132  
     302A      4.910791   303A      4.920537   304A      4.963823  
     305A      4.982815   306A      5.004483   307A      5.036704  
     308A      5.066700   309A      5.072044   310A      5.075017  
     311A      5.103374   312A      5.138093   313A      5.162800  
     314A      5.163366   315A      5.254535   316A      5.268331  
     317A      5.287212   318A      5.309924   319A      5.328558  
     320A      5.377618   321A      5.442725   322A      5.447713  
     323A      5.462815   324A      5.508871   325A      5.597696  
     326A      5.619791   327A      5.679078   328A      5.692982  
     329A      5.723401   330A      5.733926   331A      5.739856  
     332A      5.802964   333A      5.829981   334A      5.843961  
     335A      5.849768   336A      5.898847   337A      5.903837  
     338A      5.954091   339A      5.966758   340A      6.078297  
     341A      6.091501   342A      6.111042   343A      6.172929  
     344A      6.182324   345A      6.292578   346A      6.320251  
     347A      6.336485   348A      6.433467   349A      6.474626  
     350A      6.491729   351A      6.516556   352A      6.528915  
     353A      6.540917   354A      6.574003   355A      6.580709  
     356A      6.769085   357A      6.802876   358A      6.858793  
     359A      6.949793   360A      6.962820   361A      7.104174  
     362A      7.232422   363A      7.273051   364A      7.334240  
     365A      7.335689   366A      7.382301   367A      7.422976  
     368A      7.459247   369A      7.547933   370A      7.706345  
     371A      7.720466   372A      7.812047   373A      7.825794  
     374A      8.101368   375A      8.342511   376A      8.435374  
     377A      8.849752   378A      9.036726   379A      9.098601  
     380A      9.269525   381A      9.403758   382A      9.770547  
     383A      9.860274   384A      9.866379   385A     10.121349  
     386A     10.499457   387A     10.892703   388A     11.337387  
     389A     11.539656   390A     11.694711   391A     11.900230  
     392A     12.463705   393A     13.731520   394A     13.976697  
     395A     14.277539   396A     14.658175   397A     44.630551  
     398A     55.443002   399A     60.041211  

    Final Occupation by Irrep:
              A 
    DOCC [    16 ]

  @DF-RHF Final Energy:  -192.02346395611380

   => Energetics <=

    Nuclear Repulsion Energy =            118.6814395650834655
    One-Electron Energy =                -495.5319864736511590
    Two-Electron Energy =                 184.8270829524539067
    Total Energy =                       -192.0234639561138010

Computation Completed


Properties will be evaluated at   0.000000,   0.000000,   0.000000 [a0]

Properties computed using the SCF density matrix

  Nuclear Dipole Moment: [e a0]
     X:   117.7380      Y:    -2.2539      Z:     0.0010

  Electronic Dipole Moment: [e a0]
     X:  -117.2272      Y:     3.4042      Z:    -0.0009

  Dipole Moment: [e a0]
     X:     0.5109      Y:     1.1504      Z:     0.0000     Total:     1.2587

  Dipole Moment: [D]
     X:     1.2985      Y:     2.9239      Z:     0.0000     Total:     3.1993


*** tstop() called on r282 at Sat Sep 11 01:20:41 2021
Module time:
	user time   =      13.39 seconds =       0.22 minutes
	system time =       0.36 seconds =       0.01 minutes
	total time  =         14 seconds =       0.23 minutes
Total time:
	user time   =      56.91 seconds =       0.95 minutes
	system time =       1.50 seconds =       0.03 minutes
	total time  =         59 seconds =       0.98 minutes
  Constructing Basis Sets for SAPT...

   => Loading Basis Set <=

    Name: (JUN-CC-PVTZ AUX)
    Role: RIFIT
    Keyword: DF_BASIS_SAPT
    atoms 1, 8-9, 12     entry C          line   132 file /home/r08543048/miniconda3/share/psi4/basis/jun-cc-pvtz-ri.gbs 
    atoms 2, 10          entry O          line   244 file /home/r08543048/miniconda3/share/psi4/basis/jun-cc-pvtz-ri.gbs 
    atoms 3              entry N          line   188 file /home/r08543048/miniconda3/share/psi4/basis/jun-cc-pvtz-ri.gbs 
    atoms 4-7, 11, 13-16 entry H          line    30 file /home/r08543048/miniconda3/share/psi4/basis/jun-cc-pvtz-ri.gbs 


  //>>>>>>>>>>>>>>>>>>>>>>>>>>>>>>>>>>>//
  //               SAPT0               //
  //<<<<<<<<<<<<<<<<<<<<<<<<<<<<<<<<<<<//


*** tstart() called on r282
*** at Sat Sep 11 01:20:41 2021

        SAPT0  
    Ed Hohenstein
     6 June 2009

      Orbital Information
  --------------------------
    NSO        =       399
    NMO        =       399
    NRI        =       949
    NOCC A     =        12
    NOCC B     =        16
    FOCC A     =         0
    FOCC B     =         0
    NVIR A     =       387
    NVIR B     =       383

    Elst10,r            =    -0.021434958871 [Eh]
    Exch10              =     0.017889356356 [Eh]
    Exch10 (S^2)        =     0.017783588654 [Eh]

    Iter     Energy [mEh]          dE [mEh]         Residual      Time [s]
       1      -2.68459150       2.684591502       8.988844718             1
       2      -3.16940763       0.484816132       4.872884128             1
       3      -3.30686119       0.137453555       1.405952495             2
       4      -3.28227719      -0.024584002       0.609755440             2
       5      -3.27698223      -0.005294961       0.227143568             3
       6      -3.27951508       0.002532858       0.081161291             3
       7      -3.28033554       0.000820454       0.016845267             4
       8      -3.28012653      -0.000209004       0.005119483             4
       9      -3.28008736      -0.000039170       0.001210717             5
      10      -3.28010342       0.000016053       0.000279567             5
      11      -3.28010282      -0.000000600       0.000060957             5
      12      -3.28010229      -0.000000526       0.000013110             6
      13      -3.28010240       0.000000115       0.000002872             6
      14      -3.28010239      -0.000000013       0.000000508             7

    CHF Iterations converged


    Iter     Energy [mEh]          dE [mEh]         Residual      Time [s]
       1      -4.22858534       4.228585342      16.404624881             0
       2      -4.89078627       0.662200924       9.243384424             1
       3      -5.49081628       0.600030009       2.037056639             1
       4      -5.44056927      -0.050247000       0.764168397             2
       5      -5.43793918      -0.002630091       0.257148591             2
       6      -5.44226318       0.004323996       0.087868239             3
       7      -5.44251894       0.000255758       0.017542615             3
       8      -5.44223363      -0.000285310       0.004034249             4
       9      -5.44224419       0.000010560       0.001186808             4
      10      -5.44226148       0.000017292       0.000247741             5
      11      -5.44225955      -0.000001927       0.000055922             5
      12      -5.44225931      -0.000000247       0.000017046             6
      13      -5.44225938       0.000000070       0.000003952             7
      14      -5.44225940       0.000000020       0.000001131             7
      15      -5.44225939      -0.000000009       0.000000622             8

    CHF Iterations converged

    Ind20,r (A<-B)      =    -0.003280102391 [Eh]
    Ind20,r (B<-A)      =    -0.005442259388 [Eh]
    Ind20,r             =    -0.008722361779 [Eh]
    Exch-Ind20,r (A<-B) =     0.002136258841 [Eh]
    Exch-Ind20,r (B<-A) =     0.002342287258 [Eh]
    Exch-Ind20,r        =     0.004478546099 [Eh]
    Disp20              =    -0.008210174135 [Eh]
    Disp20 (SS)         =    -0.004105087068 [Eh]
    Disp20 (OS)         =    -0.004105087068 [Eh]
    Exch-Disp20         =     0.001332343983 [Eh]
    Exch-Disp20 (SS)    =     0.000836529606 [Eh]
    Exch-Disp20 (OS)    =     0.000495814377 [Eh]

    SAPT Results 
  --------------------------------------------------------------------------------------------------------
    Electrostatics                -21.43495887 [mEh]     -13.45063976 [kcal/mol]     -56.27747676 [kJ/mol]
      Elst10,r                    -21.43495887 [mEh]     -13.45063976 [kcal/mol]     -56.27747676 [kJ/mol]

    Exchange                       17.88935636 [mEh]      11.22574059 [kcal/mol]      46.96849864 [kJ/mol]
      Exch10                       17.88935636 [mEh]      11.22574059 [kcal/mol]      46.96849864 [kJ/mol]
      Exch10(S^2)                  17.78358865 [mEh]      11.15937036 [kcal/mol]      46.69080558 [kJ/mol]

    Induction                      -7.01872117 [mEh]      -4.40431403 [kcal/mol]     -18.42764989 [kJ/mol]
      Ind20,r                      -8.72236178 [mEh]      -5.47336465 [kcal/mol]     -22.90055770 [kJ/mol]
      Exch-Ind20,r                  4.47854610 [mEh]       2.81033011 [kcal/mol]      11.75842116 [kJ/mol]
      delta HF,r (2)               -2.77490549 [mEh]      -1.74127948 [kcal/mol]      -7.28551336 [kJ/mol]

    Dispersion                     -6.87783015 [mEh]      -4.31590358 [kcal/mol]     -18.05774058 [kJ/mol]
      Disp20                       -8.21017414 [mEh]      -5.15196205 [kcal/mol]     -21.55580922 [kJ/mol]
      Exch-Disp20                   1.33234398 [mEh]       0.83605847 [kcal/mol]       3.49806865 [kJ/mol]
      Disp20 (SS)                  -4.10508707 [mEh]      -2.57598103 [kcal/mol]     -10.77790461 [kJ/mol]
      Disp20 (OS)                  -4.10508707 [mEh]      -2.57598103 [kcal/mol]     -10.77790461 [kJ/mol]
      Exch-Disp20 (SS)              0.83652961 [mEh]       0.52493025 [kcal/mol]       2.19630818 [kJ/mol]
      Exch-Disp20 (OS)              0.49581438 [mEh]       0.31112822 [kcal/mol]       1.30176047 [kJ/mol]

  Total HF                        -10.56432369 [mEh]      -6.62921320 [kcal/mol]     -27.73662801 [kJ/mol]
  Total SAPT0                     -17.44215384 [mEh]     -10.94511678 [kcal/mol]     -45.79436859 [kJ/mol]

  Special recipe for scaled SAPT0 (see Manual):
    Electrostatics sSAPT0         -21.43495887 [mEh]     -13.45063976 [kcal/mol]     -56.27747676 [kJ/mol]
    Exchange sSAPT0                17.88935636 [mEh]      11.22574059 [kcal/mol]      46.96849864 [kJ/mol]
    Induction sSAPT0               -6.93833666 [mEh]      -4.35387199 [kcal/mol]     -18.21660039 [kJ/mol]
    Dispersion sSAPT0              -6.85391618 [mEh]      -4.30089734 [kcal/mol]     -17.99495446 [kJ/mol]
  Total sSAPT0                    -17.33785536 [mEh]     -10.87966849 [kcal/mol]     -45.52053297 [kJ/mol]
  --------------------------------------------------------------------------------------------------------

*** tstop() called on r282 at Sat Sep 11 01:21:37 2021
Module time:
	user time   =      45.91 seconds =       0.77 minutes
	system time =       9.72 seconds =       0.16 minutes
	total time  =         56 seconds =       0.93 minutes
Total time:
	user time   =     102.92 seconds =       1.72 minutes
	system time =      11.22 seconds =       0.19 minutes
	total time  =        115 seconds =       1.92 minutes

    Psi4 stopped on: Saturday, 11 September 2021 01:21AM
    Psi4 wall time for execution: 0:01:54.32

*** Psi4 exiting successfully. Buy a developer a beer!
