
    -----------------------------------------------------------------------
          Psi4: An Open-Source Ab Initio Electronic Structure Package
                               Psi4 1.3.2 release

                         Git: Rev {HEAD} ecbda83 


    R. M. Parrish, L. A. Burns, D. G. A. Smith, A. C. Simmonett,
    A. E. DePrince III, E. G. Hohenstein, U. Bozkaya, A. Yu. Sokolov,
    R. Di Remigio, R. M. Richard, J. F. Gonthier, A. M. James,
    H. R. McAlexander, A. Kumar, M. Saitow, X. Wang, B. P. Pritchard,
    P. Verma, H. F. Schaefer III, K. Patkowski, R. A. King, E. F. Valeev,
    F. A. Evangelista, J. M. Turney, T. D. Crawford, and C. D. Sherrill,
    J. Chem. Theory Comput. 13(7) pp 3185--3197 (2017).
    (doi: 10.1021/acs.jctc.7b00174)


                         Additional Contributions by
    P. Kraus, H. Kruse, M. H. Lechner, M. C. Schieber, R. A. Shaw,
    A. Alenaizan, R. Galvelis, Z. L. Glick, S. Lehtola, and J. P. Misiewicz

    -----------------------------------------------------------------------


    Psi4 started on: Saturday, 11 September 2021 01:21AM

    Process ID: 57427
    Host:       r282
    PSIDATADIR: /home/r08543048/miniconda3/share/psi4
    Memory:     500.0 MiB
    Threads:    1
    
  ==> Input File <==

--------------------------------------------------------------------------
# Any line starting with the # character is a comment line
#! Sample  computation

memory 22 gb

molecule Dimer {
0 1
 C  2.801404    0.350511    0.041916
 C  1.286241    0.382096   -0.006910
 O  0.633764   -0.425946   -0.663529
 N  0.698849    1.365644    0.722782
 H -0.294143    1.524455    0.610766
 H  1.258760    2.067025    1.171485
 C  3.347176   -1.054325   -0.161503
 H  2.974213   -1.469913   -1.094246
 H  4.435491   -1.043201   -0.189265
 H  3.030071   -1.712217    0.646317
 H  3.155452    1.011114   -0.753790
 H  3.149276    0.776372    0.984575



    
    
    
 --
0 1
 H  -2.459087    0.384171   -1.979760
 C  -2.405876   -1.026091   -0.283216
 C  -2.316196    0.339128   -0.886088
 O  -2.114956    1.367539   -0.261985
 H  -3.385738   -1.427862   -0.563392
 C  -2.188215   -1.054749    1.217703
 H  -2.310872   -2.066028    1.601250
 H  -1.182164   -0.717170    1.459027
 H  -2.895936   -0.403188    1.727911
 H  -1.664931   -1.635223   -0.807649
  
  







units angstrom

no_reorient
symmetry c1
}

set globals{
  basis jun-cc-pvtz
}

energy('sapt0')


--------------------------------------------------------------------------

  Memory set to  20.489 GiB by Python driver.

  //>>>>>>>>>>>>>>>>>>>>>>>>>>>>>>>>>>>//
  //              Dimer HF             //
  //<<<<<<<<<<<<<<<<<<<<<<<<<<<<<<<<<<<//


*** tstart() called on r282
*** at Sat Sep 11 01:21:37 2021

   => Loading Basis Set <=

    Name: JUN-CC-PVTZ
    Role: ORBITAL
    Keyword: BASIS
    atoms 1-2, 7, 14-15, 18    entry C          line   217 file /home/r08543048/miniconda3/share/psi4/basis/jun-cc-pvtz.gbs 
    atoms 3, 16                entry O          line   305 file /home/r08543048/miniconda3/share/psi4/basis/jun-cc-pvtz.gbs 
    atoms 4                    entry N          line   261 file /home/r08543048/miniconda3/share/psi4/basis/jun-cc-pvtz.gbs 
    atoms 5-6, 8-13, 17, 19-22 entry H          line    36 file /home/r08543048/miniconda3/share/psi4/basis/jun-cc-pvtz.gbs 


         ---------------------------------------------------------
                                   SCF
               by Justin Turney, Rob Parrish, Andy Simmonett
                          and Daniel G. A. Smith
                              RHF Reference
                        1 Threads,  20980 MiB Core
         ---------------------------------------------------------

  ==> Geometry <==

    Molecular point group: c1
    Full point group: C1

    Geometry (in Angstrom), charge = 0, multiplicity = 1:

       Center              X                  Y                   Z               Mass       
    ------------   -----------------  -----------------  -----------------  -----------------
         C            2.830168632911     0.314855689372     0.063154711265    12.000000000000
         C            1.315005632911     0.346440689372     0.014328711265    12.000000000000
         O            0.662528632911    -0.461601310628    -0.642290288735    15.994914619570
         N            0.727613632911     1.329988689372     0.744020711265    14.003074004430
         H           -0.265378367089     1.488799689372     0.632004711265     1.007825032230
         H            1.287524632911     2.031369689372     1.192723711265     1.007825032230
         C            3.375940632911    -1.089980310628    -0.140264288735    12.000000000000
         H            3.002977632911    -1.505568310628    -1.073007288735     1.007825032230
         H            4.464255632911    -1.078856310628    -0.168026288735     1.007825032230
         H            3.058835632911    -1.747872310628     0.667555711265     1.007825032230
         H            3.184216632911     0.975458689372    -0.732551288735     1.007825032230
         H            3.178040632911     0.740716689372     1.005813711265     1.007825032230
         H           -2.430322367089     0.348515689372    -1.958521288735     1.007825032230
         C           -2.377111367089    -1.061746310628    -0.261977288735    12.000000000000
         C           -2.287431367089     0.303472689372    -0.864849288735    12.000000000000
         O           -2.086191367089     1.331883689372    -0.240746288735    15.994914619570
         H           -3.356973367089    -1.463517310628    -0.542153288735     1.007825032230
         C           -2.159450367089    -1.090404310628     1.238941711265    12.000000000000
         H           -2.282107367089    -2.101683310628     1.622488711265     1.007825032230
         H           -1.153399367089    -0.752825310628     1.480265711265     1.007825032230
         H           -2.867171367089    -0.438843310628     1.749149711265     1.007825032230
         H           -1.636166367089    -1.670878310628    -0.786410288735     1.007825032230

  Running in c1 symmetry.

  Rotational constants: A =      0.08941  B =      0.02474  C =      0.02257 [cm^-1]
  Rotational constants: A =   2680.55823  B =    741.56795  C =    676.57915 [MHz]
  Nuclear repulsion =  459.682878836336101

  Charge       = 0
  Multiplicity = 1
  Electrons    = 72
  Nalpha       = 36
  Nbeta        = 36

  ==> Algorithm <==

  SCF Algorithm Type is DF.
  DIIS enabled.
  MOM disabled.
  Fractional occupation disabled.
  Guess Type is SAD.
  Energy threshold   = 1.00e-08
  Density threshold  = 1.00e-08
  Integral threshold = 0.00e+00

  ==> Primary Basis <==

  Basis Set: JUN-CC-PVTZ
    Blend: JUN-CC-PVTZ
    Number of shells: 195
    Number of basis function: 533
    Number of Cartesian functions: 600
    Spherical Harmonics?: true
    Max angular momentum: 3

   => Loading Basis Set <=

    Name: (JUN-CC-PVTZ AUX)
    Role: JKFIT
    Keyword: DF_BASIS_SCF
    atoms 1-2, 7, 14-15, 18    entry C          line   152 file /home/r08543048/miniconda3/share/psi4/basis/jun-cc-pvtz-jkfit.gbs 
    atoms 3, 16                entry O          line   272 file /home/r08543048/miniconda3/share/psi4/basis/jun-cc-pvtz-jkfit.gbs 
    atoms 4                    entry N          line   212 file /home/r08543048/miniconda3/share/psi4/basis/jun-cc-pvtz-jkfit.gbs 
    atoms 5-6, 8-13, 17, 19-22 entry H          line    70 file /home/r08543048/miniconda3/share/psi4/basis/jun-cc-pvtz-jkfit.gbs 

  ==> Pre-Iterations <==

   -------------------------------------------------------
    Irrep   Nso     Nmo     Nalpha   Nbeta   Ndocc  Nsocc
   -------------------------------------------------------
     A        533     533       0       0       0       0
   -------------------------------------------------------
    Total     533     533      36      36      36       0
   -------------------------------------------------------

  ==> Integral Setup <==

  ==> DiskDFJK: Density-Fitted J/K Matrices <==

    J tasked:                  Yes
    K tasked:                  Yes
    wK tasked:                  No
    OpenMP threads:              1
    Integrals threads:           1
    Memory [MiB]:            15735
    Algorithm:                Core
    Integral Cache:           SAVE
    Schwarz Cutoff:          1E-12
    Fitting Condition:       1E-10

   => Auxiliary Basis Set <=

  Basis Set: (JUN-CC-PVTZ AUX)
    Blend: JUN-CC-PVTZ-JKFIT
    Number of shells: 391
    Number of basis function: 1245
    Number of Cartesian functions: 1499
    Spherical Harmonics?: true
    Max angular momentum: 4

  Minimum eigenvalue in the overlap matrix is 3.8738529089E-05.
  Using Symmetric Orthogonalization.

  SCF Guess: Superposition of Atomic Densities via on-the-fly atomic UHF.

  ==> Iterations <==

                           Total Energy        Delta E     RMS |[F,P]|

   @DF-RHF iter SAD:  -437.64388494047421   -4.37644e+02   0.00000e+00 
   @DF-RHF iter   1:  -438.77760615005832   -1.13372e+00   1.57397e-03 DIIS
   @DF-RHF iter   2:  -439.05105810669659   -2.73452e-01   8.93913e-04 DIIS
   @DF-RHF iter   3:  -439.13434553000843   -8.32874e-02   1.75082e-04 DIIS
   @DF-RHF iter   4:  -439.13963959769450   -5.29407e-03   7.61450e-05 DIIS
   @DF-RHF iter   5:  -439.14066397757955   -1.02438e-03   1.26888e-05 DIIS
   @DF-RHF iter   6:  -439.14072772906252   -6.37515e-05   4.89238e-06 DIIS
   @DF-RHF iter   7:  -439.14073557440315   -7.84534e-06   2.14295e-06 DIIS
   @DF-RHF iter   8:  -439.14073729755648   -1.72315e-06   9.02465e-07 DIIS
   @DF-RHF iter   9:  -439.14073764748201   -3.49926e-07   2.33142e-07 DIIS
   @DF-RHF iter  10:  -439.14073766944165   -2.19596e-08   9.13694e-08 DIIS
   @DF-RHF iter  11:  -439.14073767139070   -1.94905e-09   3.26979e-08 DIIS
   @DF-RHF iter  12:  -439.14073767162688   -2.36184e-10   1.13543e-08 DIIS
   @DF-RHF iter  13:  -439.14073767166997   -4.30873e-11   3.82581e-09 DIIS
  Energy and wave function converged.


  ==> Post-Iterations <==

    Orbital Energies [Eh]
    ---------------------

    Doubly Occupied:                                                      

       1A    -20.549520     2A    -20.513245     3A    -15.572008  
       4A    -11.346957     5A    -11.329169     6A    -11.238715  
       7A    -11.228442     8A    -11.215475     9A    -11.208487  
      10A     -1.383936    11A     -1.371839    12A     -1.203220  
      13A     -1.052210    14A     -1.049982    15A     -0.903095  
      16A     -0.890518    17A     -0.777958    18A     -0.765502  
      19A     -0.713211    20A     -0.673887    21A     -0.671533  
      22A     -0.632094    23A     -0.624344    24A     -0.619183  
      25A     -0.593428    26A     -0.557779    27A     -0.531028  
      28A     -0.522688    29A     -0.520558    30A     -0.513533  
      31A     -0.506859    32A     -0.492042    33A     -0.481688  
      34A     -0.420649    35A     -0.417346    36A     -0.407579  

    Virtual:                                                              

      37A      0.045316    38A      0.054397    39A      0.055700  
      40A      0.058289    41A      0.070350    42A      0.076929  
      43A      0.078774    44A      0.087389    45A      0.097053  
      46A      0.102961    47A      0.109844    48A      0.110893  
      49A      0.113994    50A      0.114765    51A      0.133534  
      52A      0.139402    53A      0.140969    54A      0.150569  
      55A      0.151452    56A      0.160631    57A      0.176201  
      58A      0.178035    59A      0.181960    60A      0.190888  
      61A      0.197475    62A      0.203292    63A      0.209558  
      64A      0.212744    65A      0.222518    66A      0.236408  
      67A      0.253413    68A      0.258116    69A      0.266854  
      70A      0.269401    71A      0.279348    72A      0.282395  
      73A      0.290786    74A      0.294637    75A      0.299810  
      76A      0.302224    77A      0.309717    78A      0.314391  
      79A      0.318301    80A      0.326727    81A      0.328523  
      82A      0.335426    83A      0.341060    84A      0.344969  
      85A      0.350197    86A      0.351109    87A      0.354702  
      88A      0.356822    89A      0.362666    90A      0.369301  
      91A      0.381424    92A      0.396251    93A      0.398314  
      94A      0.411727    95A      0.416752    96A      0.419461  
      97A      0.433437    98A      0.434561    99A      0.440797  
     100A      0.443501   101A      0.461520   102A      0.470717  
     103A      0.475484   104A      0.488608   105A      0.492538  
     106A      0.503808   107A      0.507334   108A      0.512636  
     109A      0.520940   110A      0.525750   111A      0.534167  
     112A      0.539674   113A      0.556471   114A      0.559020  
     115A      0.563292   116A      0.565490   117A      0.581166  
     118A      0.590886   119A      0.601492   120A      0.609066  
     121A      0.613049   122A      0.624999   123A      0.634125  
     124A      0.637224   125A      0.645837   126A      0.648281  
     127A      0.674328   128A      0.679559   129A      0.683437  
     130A      0.696419   131A      0.704711   132A      0.712512  
     133A      0.726212   134A      0.738302   135A      0.745917  
     136A      0.749943   137A      0.756553   138A      0.764212  
     139A      0.765380   140A      0.779296   141A      0.785865  
     142A      0.789293   143A      0.791912   144A      0.808874  
     145A      0.818229   146A      0.819165   147A      0.835680  
     148A      0.841274   149A      0.845317   150A      0.855184  
     151A      0.863252   152A      0.873848   153A      0.883601  
     154A      0.895729   155A      0.901448   156A      0.904521  
     157A      0.910307   158A      0.913800   159A      0.931068  
     160A      0.937884   161A      0.951615   162A      0.962204  
     163A      0.969013   164A      0.989848   165A      1.003819  
     166A      1.007630   167A      1.011674   168A      1.032013  
     169A      1.041838   170A      1.053762   171A      1.057530  
     172A      1.069591   173A      1.081848   174A      1.090006  
     175A      1.095443   176A      1.116814   177A      1.119417  
     178A      1.136769   179A      1.153194   180A      1.168159  
     181A      1.171319   182A      1.179885   183A      1.194781  
     184A      1.210203   185A      1.221554   186A      1.252860  
     187A      1.257273   188A      1.267064   189A      1.283425  
     190A      1.310069   191A      1.314462   192A      1.328664  
     193A      1.340824   194A      1.348301   195A      1.349608  
     196A      1.357121   197A      1.368357   198A      1.376865  
     199A      1.383698   200A      1.394790   201A      1.400874  
     202A      1.409443   203A      1.421146   204A      1.431865  
     205A      1.439575   206A      1.446697   207A      1.455399  
     208A      1.466003   209A      1.474721   210A      1.488514  
     211A      1.489906   212A      1.501220   213A      1.506930  
     214A      1.518067   215A      1.542875   216A      1.546203  
     217A      1.554266   218A      1.559613   219A      1.565999  
     220A      1.581095   221A      1.585234   222A      1.594933  
     223A      1.602840   224A      1.615340   225A      1.629947  
     226A      1.650210   227A      1.653268   228A      1.659460  
     229A      1.668200   230A      1.676594   231A      1.689356  
     232A      1.715868   233A      1.727149   234A      1.734898  
     235A      1.740989   236A      1.752023   237A      1.772426  
     238A      1.787219   239A      1.798274   240A      1.814676  
     241A      1.817960   242A      1.823467   243A      1.840924  
     244A      1.851869   245A      1.884174   246A      1.905385  
     247A      1.926772   248A      1.941874   249A      1.961883  
     250A      1.969521   251A      1.989657   252A      1.995008  
     253A      2.031333   254A      2.050609   255A      2.084909  
     256A      2.117934   257A      2.173460   258A      2.218088  
     259A      2.278934   260A      2.291009   261A      2.332856  
     262A      2.406175   263A      2.416739   264A      2.466810  
     265A      2.490378   266A      2.505316   267A      2.536772  
     268A      2.579907   269A      2.627462   270A      2.687718  
     271A      2.709653   272A      2.758573   273A      2.763541  
     274A      2.768479   275A      2.821231   276A      2.833792  
     277A      2.858400   278A      2.865609   279A      2.876448  
     280A      2.890509   281A      2.909284   282A      2.911350  
     283A      2.945480   284A      2.957024   285A      2.966031  
     286A      2.979178   287A      2.990159   288A      2.998464  
     289A      3.003953   290A      3.027415   291A      3.035933  
     292A      3.047899   293A      3.071815   294A      3.098776  
     295A      3.120111   296A      3.127916   297A      3.140319  
     298A      3.146969   299A      3.154533   300A      3.167978  
     301A      3.176139   302A      3.207083   303A      3.213205  
     304A      3.237797   305A      3.258819   306A      3.267629  
     307A      3.290077   308A      3.310903   309A      3.326193  
     310A      3.334644   311A      3.344049   312A      3.361605  
     313A      3.365644   314A      3.379986   315A      3.392881  
     316A      3.397882   317A      3.403026   318A      3.412016  
     319A      3.433141   320A      3.437624   321A      3.445084  
     322A      3.455895   323A      3.467505   324A      3.469738  
     325A      3.483227   326A      3.492604   327A      3.496548  
     328A      3.504702   329A      3.523372   330A      3.530019  
     331A      3.533307   332A      3.543182   333A      3.562897  
     334A      3.566918   335A      3.575037   336A      3.579761  
     337A      3.594740   338A      3.598836   339A      3.614609  
     340A      3.621592   341A      3.638103   342A      3.650230  
     343A      3.660706   344A      3.678361   345A      3.696407  
     346A      3.707755   347A      3.718420   348A      3.723993  
     349A      3.742287   350A      3.752215   351A      3.771805  
     352A      3.789549   353A      3.810468   354A      3.812112  
     355A      3.837236   356A      3.846220   357A      3.855852  
     358A      3.864425   359A      3.881260   360A      3.886775  
     361A      3.898384   362A      3.905189   363A      3.922790  
     364A      3.925516   365A      3.934450   366A      3.937767  
     367A      3.977332   368A      3.994468   369A      4.006835  
     370A      4.025310   371A      4.033776   372A      4.058715  
     373A      4.092002   374A      4.093877   375A      4.110324  
     376A      4.124709   377A      4.151222   378A      4.159202  
     379A      4.186729   380A      4.203175   381A      4.220683  
     382A      4.233225   383A      4.244594   384A      4.251284  
     385A      4.261867   386A      4.270442   387A      4.282157  
     388A      4.293243   389A      4.323061   390A      4.326971  
     391A      4.336070   392A      4.340421   393A      4.343738  
     394A      4.351464   395A      4.365622   396A      4.380412  
     397A      4.395465   398A      4.415905   399A      4.438107  
     400A      4.443364   401A      4.447559   402A      4.456142  
     403A      4.465034   404A      4.468536   405A      4.480400  
     406A      4.496441   407A      4.506458   408A      4.520482  
     409A      4.534790   410A      4.540593   411A      4.552739  
     412A      4.569654   413A      4.597354   414A      4.610218  
     415A      4.629356   416A      4.648568   417A      4.656608  
     418A      4.671432   419A      4.680066   420A      4.692063  
     421A      4.698095   422A      4.716650   423A      4.729797  
     424A      4.750687   425A      4.754486   426A      4.773479  
     427A      4.808204   428A      4.837641   429A      4.843377  
     430A      4.880020   431A      4.902653   432A      4.907127  
     433A      4.935182   434A      4.958027   435A      4.962930  
     436A      4.993680   437A      5.005439   438A      5.030294  
     439A      5.037043   440A      5.069633   441A      5.103130  
     442A      5.149962   443A      5.172157   444A      5.202621  
     445A      5.215453   446A      5.245892   447A      5.257758  
     448A      5.269412   449A      5.276392   450A      5.291652  
     451A      5.297281   452A      5.303088   453A      5.309822  
     454A      5.328592   455A      5.348912   456A      5.363402  
     457A      5.372093   458A      5.394317   459A      5.424891  
     460A      5.436382   461A      5.451191   462A      5.474325  
     463A      5.490005   464A      5.518809   465A      5.562218  
     466A      5.617948   467A      5.643354   468A      5.650762  
     469A      5.683075   470A      5.698821   471A      5.713600  
     472A      5.720842   473A      5.738658   474A      5.748650  
     475A      5.756273   476A      5.770555   477A      5.771990  
     478A      5.792425   479A      5.805794   480A      5.837818  
     481A      5.861049   482A      5.865613   483A      5.871505  
     484A      5.897778   485A      5.934764   486A      5.943349  
     487A      5.950954   488A      5.992235   489A      6.022414  
     490A      6.041836   491A      6.085005   492A      6.115050  
     493A      6.150010   494A      6.206383   495A      6.216867  
     496A      6.247184   497A      6.319067   498A      6.360356  
     499A      6.495680   500A      6.503119   501A      6.506295  
     502A      6.532873   503A      6.537214   504A      6.558090  
     505A      6.605681   506A      6.715110   507A      6.808376  
     508A      6.813993   509A      6.842826   510A      6.982859  
     511A      7.223438   512A      7.268067   513A      7.301125  
     514A      7.314606   515A      7.340197   516A      7.402707  
     517A      7.467225   518A      7.513753   519A      7.528815  
     520A      7.551273   521A      7.643572   522A      7.738450  
     523A      7.816616   524A      7.843936   525A     12.347255  
     526A     12.561416   527A     13.952993   528A     14.100356  
     529A     14.160588   530A     14.348506   531A     14.607581  
     532A     14.767083   533A     15.855422  

    Final Occupation by Irrep:
              A 
    DOCC [    36 ]

  @DF-RHF Final Energy:  -439.14073767166997

   => Energetics <=

    Nuclear Repulsion Energy =            459.6828788363361014
    One-Electron Energy =               -1510.6478189704653232
    Two-Electron Energy =                 611.8242024624591977
    Total Energy =                       -439.1407376716699673

Computation Completed


Properties will be evaluated at   0.000000,   0.000000,   0.000000 [a0]

Properties computed using the SCF density matrix

  Nuclear Dipole Moment: [e a0]
     X:     3.9137      Y:    -4.8513      Z:     2.8898

  Electronic Dipole Moment: [e a0]
     X:    -3.4167      Y:     4.8808      Z:    -2.6332

  Dipole Moment: [e a0]
     X:     0.4970      Y:     0.0295      Z:     0.2566     Total:     0.5601

  Dipole Moment: [D]
     X:     1.2633      Y:     0.0750      Z:     0.6521     Total:     1.4236


*** tstop() called on r282 at Sat Sep 11 01:23:13 2021
Module time:
	user time   =      93.72 seconds =       1.56 minutes
	system time =       1.76 seconds =       0.03 minutes
	total time  =         96 seconds =       1.60 minutes
Total time:
	user time   =      93.72 seconds =       1.56 minutes
	system time =       1.76 seconds =       0.03 minutes
	total time  =         96 seconds =       1.60 minutes

  //>>>>>>>>>>>>>>>>>>>>>>>>>>>>>>>>>>>//
  //            Monomer A HF           //
  //<<<<<<<<<<<<<<<<<<<<<<<<<<<<<<<<<<<//


*** tstart() called on r282
*** at Sat Sep 11 01:23:13 2021

   => Loading Basis Set <=

    Name: JUN-CC-PVTZ
    Role: ORBITAL
    Keyword: BASIS
    atoms 1-2, 7, 14-15, 18    entry C          line   217 file /home/r08543048/miniconda3/share/psi4/basis/jun-cc-pvtz.gbs 
    atoms 3, 16                entry O          line   305 file /home/r08543048/miniconda3/share/psi4/basis/jun-cc-pvtz.gbs 
    atoms 4                    entry N          line   261 file /home/r08543048/miniconda3/share/psi4/basis/jun-cc-pvtz.gbs 
    atoms 5-6, 8-13, 17, 19-22 entry H          line    36 file /home/r08543048/miniconda3/share/psi4/basis/jun-cc-pvtz.gbs 


         ---------------------------------------------------------
                                   SCF
               by Justin Turney, Rob Parrish, Andy Simmonett
                          and Daniel G. A. Smith
                              RHF Reference
                        1 Threads,  20980 MiB Core
         ---------------------------------------------------------

  ==> Geometry <==

    Molecular point group: c1
    Full point group: C1

    Geometry (in Angstrom), charge = 0, multiplicity = 1:

       Center              X                  Y                   Z               Mass       
    ------------   -----------------  -----------------  -----------------  -----------------
         C            2.830168632911     0.314855689372     0.063154711265    12.000000000000
         C            1.315005632911     0.346440689372     0.014328711265    12.000000000000
         O            0.662528632911    -0.461601310628    -0.642290288735    15.994914619570
         N            0.727613632911     1.329988689372     0.744020711265    14.003074004430
         H           -0.265378367089     1.488799689372     0.632004711265     1.007825032230
         H            1.287524632911     2.031369689372     1.192723711265     1.007825032230
         C            3.375940632911    -1.089980310628    -0.140264288735    12.000000000000
         H            3.002977632911    -1.505568310628    -1.073007288735     1.007825032230
         H            4.464255632911    -1.078856310628    -0.168026288735     1.007825032230
         H            3.058835632911    -1.747872310628     0.667555711265     1.007825032230
         H            3.184216632911     0.975458689372    -0.732551288735     1.007825032230
         H            3.178040632911     0.740716689372     1.005813711265     1.007825032230
      Gh(H)          -2.430322367089     0.348515689372    -1.958521288735     1.007825032230
      Gh(C)          -2.377111367089    -1.061746310628    -0.261977288735    12.000000000000
      Gh(C)          -2.287431367089     0.303472689372    -0.864849288735    12.000000000000
      Gh(O)          -2.086191367089     1.331883689372    -0.240746288735    15.994914619570
      Gh(H)          -3.356973367089    -1.463517310628    -0.542153288735     1.007825032230
      Gh(C)          -2.159450367089    -1.090404310628     1.238941711265    12.000000000000
      Gh(H)          -2.282107367089    -2.101683310628     1.622488711265     1.007825032230
      Gh(H)          -1.153399367089    -0.752825310628     1.480265711265     1.007825032230
      Gh(H)          -2.867171367089    -0.438843310628     1.749149711265     1.007825032230
      Gh(H)          -1.636166367089    -1.670878310628    -0.786410288735     1.007825032230

  Running in c1 symmetry.

  Rotational constants: A =      0.08941  B =      0.02474  C =      0.02257 [cm^-1]
  Rotational constants: A =   2680.55823  B =    741.56795  C =    676.57915 [MHz]
  Nuclear repulsion =  179.112932022197981

  Charge       = 0
  Multiplicity = 1
  Electrons    = 40
  Nalpha       = 20
  Nbeta        = 20

  ==> Algorithm <==

  SCF Algorithm Type is DF.
  DIIS enabled.
  MOM disabled.
  Fractional occupation disabled.
  Guess Type is SAD.
  Energy threshold   = 1.00e-08
  Density threshold  = 1.00e-08
  Integral threshold = 0.00e+00

  ==> Primary Basis <==

  Basis Set: JUN-CC-PVTZ
    Blend: JUN-CC-PVTZ
    Number of shells: 195
    Number of basis function: 533
    Number of Cartesian functions: 600
    Spherical Harmonics?: true
    Max angular momentum: 3

   => Loading Basis Set <=

    Name: (JUN-CC-PVTZ AUX)
    Role: JKFIT
    Keyword: DF_BASIS_SCF
    atoms 1-2, 7, 14-15, 18    entry C          line   152 file /home/r08543048/miniconda3/share/psi4/basis/jun-cc-pvtz-jkfit.gbs 
    atoms 3, 16                entry O          line   272 file /home/r08543048/miniconda3/share/psi4/basis/jun-cc-pvtz-jkfit.gbs 
    atoms 4                    entry N          line   212 file /home/r08543048/miniconda3/share/psi4/basis/jun-cc-pvtz-jkfit.gbs 
    atoms 5-6, 8-13, 17, 19-22 entry H          line    70 file /home/r08543048/miniconda3/share/psi4/basis/jun-cc-pvtz-jkfit.gbs 

  ==> Pre-Iterations <==

   -------------------------------------------------------
    Irrep   Nso     Nmo     Nalpha   Nbeta   Ndocc  Nsocc
   -------------------------------------------------------
     A        533     533       0       0       0       0
   -------------------------------------------------------
    Total     533     533      20      20      20       0
   -------------------------------------------------------

  ==> Integral Setup <==

  ==> DiskDFJK: Density-Fitted J/K Matrices <==

    J tasked:                  Yes
    K tasked:                  Yes
    wK tasked:                  No
    OpenMP threads:              1
    Integrals threads:           1
    Memory [MiB]:            15735
    Algorithm:                Core
    Integral Cache:           LOAD
    Schwarz Cutoff:          1E-12
    Fitting Condition:       1E-10

   => Auxiliary Basis Set <=

  Basis Set: (JUN-CC-PVTZ AUX)
    Blend: JUN-CC-PVTZ-JKFIT
    Number of shells: 391
    Number of basis function: 1245
    Number of Cartesian functions: 1499
    Spherical Harmonics?: true
    Max angular momentum: 4

  Minimum eigenvalue in the overlap matrix is 3.8738529089E-05.
  Using Symmetric Orthogonalization.

  SCF Guess: Superposition of Atomic Densities via on-the-fly atomic UHF.

  ==> Iterations <==

                           Total Energy        Delta E     RMS |[F,P]|

   @DF-RHF iter SAD:  -246.29970726362853   -2.46300e+02   0.00000e+00 
   @DF-RHF iter   1:  -246.89371803358924   -5.94011e-01   1.22842e-03 DIIS
   @DF-RHF iter   2:  -247.05516131919484   -1.61443e-01   7.09461e-04 DIIS
   @DF-RHF iter   3:  -247.10587348906557   -5.07122e-02   1.38312e-04 DIIS
   @DF-RHF iter   4:  -247.10889628431283   -3.02280e-03   6.05782e-05 DIIS
   @DF-RHF iter   5:  -247.10954044819604   -6.44164e-04   9.67588e-06 DIIS
   @DF-RHF iter   6:  -247.10957831682367   -3.78686e-05   3.92391e-06 DIIS
   @DF-RHF iter   7:  -247.10958324728901   -4.93047e-06   1.70977e-06 DIIS
   @DF-RHF iter   8:  -247.10958435615612   -1.10887e-06   6.64452e-07 DIIS
   @DF-RHF iter   9:  -247.10958455182393   -1.95668e-07   1.49876e-07 DIIS
   @DF-RHF iter  10:  -247.10958456232265   -1.04987e-08   3.65528e-08 DIIS
   @DF-RHF iter  11:  -247.10958456276481   -4.42157e-10   1.06052e-08 DIIS
   @DF-RHF iter  12:  -247.10958456280605   -4.12399e-11   3.13878e-09 DIIS
  Energy and wave function converged.


  ==> Post-Iterations <==

    Orbital Energies [Eh]
    ---------------------

    Doubly Occupied:                                                      

       1A    -20.515332     2A    -15.587485     3A    -11.349950  
       4A    -11.241857     5A    -11.215906     6A     -1.372782  
       7A     -1.213719     8A     -1.052476     9A     -0.893613  
      10A     -0.784538    11A     -0.722028    12A     -0.672616  
      13A     -0.632957    14A     -0.597633    15A     -0.558800  
      16A     -0.524477    17A     -0.515071    18A     -0.494675  
      19A     -0.421628    20A     -0.414477  

    Virtual:                                                              

      21A      0.035257    22A      0.044796    23A      0.051225  
      24A      0.056531    25A      0.065873    26A      0.075539  
      27A      0.077453    28A      0.082621    29A      0.095020  
      30A      0.102173    31A      0.105356    32A      0.109884  
      33A      0.113111    34A      0.117083    35A      0.124840  
      36A      0.137803    37A      0.141618    38A      0.144765  
      39A      0.153213    40A      0.156321    41A      0.163796  
      42A      0.168414    43A      0.172334    44A      0.181322  
      45A      0.192013    46A      0.196226    47A      0.202821  
      48A      0.208608    49A      0.211075    50A      0.228302  
      51A      0.238884    52A      0.242637    53A      0.256105  
      54A      0.267296    55A      0.272474    56A      0.278480  
      57A      0.282274    58A      0.291237    59A      0.294046  
      60A      0.306699    61A      0.313146    62A      0.317329  
      63A      0.320816    64A      0.325413    65A      0.329474  
      66A      0.329668    67A      0.337677    68A      0.344084  
      69A      0.353257    70A      0.358756    71A      0.361585  
      72A      0.370445    73A      0.380636    74A      0.381172  
      75A      0.388829    76A      0.399323    77A      0.406039  
      78A      0.412417    79A      0.415051    80A      0.423314  
      81A      0.435694    82A      0.440661    83A      0.449881  
      84A      0.461331    85A      0.472715    86A      0.477283  
      87A      0.484074    88A      0.491021    89A      0.500831  
      90A      0.506298    91A      0.506753    92A      0.518551  
      93A      0.526647    94A      0.531810    95A      0.538557  
      96A      0.542646    97A      0.556853    98A      0.558687  
      99A      0.574355   100A      0.582298   101A      0.583736  
     102A      0.591596   103A      0.597936   104A      0.613984  
     105A      0.617335   106A      0.626376   107A      0.633096  
     108A      0.638691   109A      0.643485   110A      0.657212  
     111A      0.661614   112A      0.672153   113A      0.677053  
     114A      0.693000   115A      0.695736   116A      0.706855  
     117A      0.713223   118A      0.715909   119A      0.727205  
     120A      0.733428   121A      0.746704   122A      0.747536  
     123A      0.771704   124A      0.780327   125A      0.791520  
     126A      0.795199   127A      0.804107   128A      0.815085  
     129A      0.820240   130A      0.835514   131A      0.851298  
     132A      0.862665   133A      0.869657   134A      0.884241  
     135A      0.901161   136A      0.908581   137A      0.920081  
     138A      0.927016   139A      0.937115   140A      0.942395  
     141A      0.958733   142A      0.968056   143A      0.986205  
     144A      0.996091   145A      1.005438   146A      1.026642  
     147A      1.032103   148A      1.037250   149A      1.048027  
     150A      1.070568   151A      1.073343   152A      1.093819  
     153A      1.098293   154A      1.112741   155A      1.118252  
     156A      1.140570   157A      1.146491   158A      1.158682  
     159A      1.162713   160A      1.177145   161A      1.184485  
     162A      1.207664   163A      1.211668   164A      1.215207  
     165A      1.231538   166A      1.243519   167A      1.255487  
     168A      1.264636   169A      1.273546   170A      1.292632  
     171A      1.303630   172A      1.312642   173A      1.316646  
     174A      1.325968   175A      1.336477   176A      1.343570  
     177A      1.355041   178A      1.363065   179A      1.368523  
     180A      1.373692   181A      1.384985   182A      1.392936  
     183A      1.402637   184A      1.413999   185A      1.420197  
     186A      1.426869   187A      1.431106   188A      1.448644  
     189A      1.459143   190A      1.466898   191A      1.473897  
     192A      1.491017   193A      1.496768   194A      1.507844  
     195A      1.509720   196A      1.522209   197A      1.536431  
     198A      1.539255   199A      1.551888   200A      1.566534  
     201A      1.577941   202A      1.591886   203A      1.602090  
     204A      1.603473   205A      1.609207   206A      1.617764  
     207A      1.627344   208A      1.644237   209A      1.656759  
     210A      1.664576   211A      1.670348   212A      1.677483  
     213A      1.687556   214A      1.719027   215A      1.719365  
     216A      1.739905   217A      1.747950   218A      1.775156  
     219A      1.792741   220A      1.801432   221A      1.816332  
     222A      1.834049   223A      1.841838   224A      1.856853  
     225A      1.874813   226A      1.900471   227A      1.918744  
     228A      1.935560   229A      1.943827   230A      1.962581  
     231A      1.973705   232A      1.995836   233A      2.006264  
     234A      2.015655   235A      2.038851   236A      2.076122  
     237A      2.111074   238A      2.119166   239A      2.148134  
     240A      2.158091   241A      2.200834   242A      2.223795  
     243A      2.238914   244A      2.297979   245A      2.312806  
     246A      2.325628   247A      2.388888   248A      2.400620  
     249A      2.431904   250A      2.441506   251A      2.472163  
     252A      2.498194   253A      2.554991   254A      2.570455  
     255A      2.617170   256A      2.644498   257A      2.667948  
     258A      2.700838   259A      2.719210   260A      2.762737  
     261A      2.807620   262A      2.823551   263A      2.849186  
     264A      2.863939   265A      2.871970   266A      2.899803  
     267A      2.903126   268A      2.925056   269A      2.932466  
     270A      2.953895   271A      2.989864   272A      2.995863  
     273A      3.012195   274A      3.062904   275A      3.071746  
     276A      3.120324   277A      3.133475   278A      3.148000  
     279A      3.165784   280A      3.199293   281A      3.211213  
     282A      3.241593   283A      3.256171   284A      3.264694  
     285A      3.288336   286A      3.344700   287A      3.346503  
     288A      3.374495   289A      3.389742   290A      3.401244  
     291A      3.431082   292A      3.448877   293A      3.466800  
     294A      3.467842   295A      3.484845   296A      3.503220  
     297A      3.519419   298A      3.520618   299A      3.527820  
     300A      3.540751   301A      3.552279   302A      3.562128  
     303A      3.578293   304A      3.594137   305A      3.601519  
     306A      3.609946   307A      3.617446   308A      3.649798  
     309A      3.652434   310A      3.656467   311A      3.659351  
     312A      3.667239   313A      3.683864   314A      3.706925  
     315A      3.726709   316A      3.742142   317A      3.767779  
     318A      3.783829   319A      3.804187   320A      3.823502  
     321A      3.826072   322A      3.836146   323A      3.838813  
     324A      3.856048   325A      3.859201   326A      3.876655  
     327A      3.885833   328A      3.910136   329A      3.916344  
     330A      3.920590   331A      3.931662   332A      3.946656  
     333A      3.955467   334A      3.974181   335A      3.994605  
     336A      4.012200   337A      4.017550   338A      4.032695  
     339A      4.057706   340A      4.067165   341A      4.085903  
     342A      4.110540   343A      4.114936   344A      4.159591  
     345A      4.163096   346A      4.188388   347A      4.203831  
     348A      4.209362   349A      4.241916   350A      4.243951  
     351A      4.255738   352A      4.267268   353A      4.279153  
     354A      4.293765   355A      4.305082   356A      4.312705  
     357A      4.328649   358A      4.331712   359A      4.351555  
     360A      4.378103   361A      4.406151   362A      4.422014  
     363A      4.433239   364A      4.435836   365A      4.447759  
     366A      4.455379   367A      4.462234   368A      4.479747  
     369A      4.483452   370A      4.484848   371A      4.501807  
     372A      4.514409   373A      4.539697   374A      4.543553  
     375A      4.564928   376A      4.574482   377A      4.593858  
     378A      4.599279   379A      4.607114   380A      4.616400  
     381A      4.622982   382A      4.643576   383A      4.650522  
     384A      4.665622   385A      4.682237   386A      4.704303  
     387A      4.706737   388A      4.711597   389A      4.729403  
     390A      4.735994   391A      4.744188   392A      4.759381  
     393A      4.777383   394A      4.802129   395A      4.809820  
     396A      4.811121   397A      4.846673   398A      4.851925  
     399A      4.857745   400A      4.877491   401A      4.884226  
     402A      4.892192   403A      4.901290   404A      4.913602  
     405A      4.921422   406A      4.930757   407A      4.950165  
     408A      4.957004   409A      4.985387   410A      4.996000  
     411A      4.996527   412A      5.008972   413A      5.014768  
     414A      5.030212   415A      5.040191   416A      5.062061  
     417A      5.093285   418A      5.130851   419A      5.145063  
     420A      5.164769   421A      5.169983   422A      5.171396  
     423A      5.211390   424A      5.224922   425A      5.247842  
     426A      5.266079   427A      5.277017   428A      5.293271  
     429A      5.301095   430A      5.305799   431A      5.338555  
     432A      5.347876   433A      5.366285   434A      5.385324  
     435A      5.432367   436A      5.435897   437A      5.466812  
     438A      5.473679   439A      5.515791   440A      5.602744  
     441A      5.616391   442A      5.631464   443A      5.650157  
     444A      5.681192   445A      5.693623   446A      5.717726  
     447A      5.739405   448A      5.753538   449A      5.758286  
     450A      5.787190   451A      5.801588   452A      5.829937  
     453A      5.849847   454A      5.867822   455A      5.878819  
     456A      5.895540   457A      5.910336   458A      5.940021  
     459A      6.007551   460A      6.033552   461A      6.046283  
     462A      6.074005   463A      6.088909   464A      6.107594  
     465A      6.140185   466A      6.182663   467A      6.201277  
     468A      6.233988   469A      6.263517   470A      6.344027  
     471A      6.370843   472A      6.385592   473A      6.402394  
     474A      6.454831   475A      6.470930   476A      6.493661  
     477A      6.502161   478A      6.506339   479A      6.526127  
     480A      6.538768   481A      6.632529   482A      6.651364  
     483A      6.671458   484A      6.704984   485A      6.808788  
     486A      6.842833   487A      6.896490   488A      6.948116  
     489A      6.996457   490A      7.043529   491A      7.225808  
     492A      7.325016   493A      7.348239   494A      7.380712  
     495A      7.408553   496A      7.475927   497A      7.507717  
     498A      7.530951   499A      7.561185   500A      7.589962  
     501A      7.718287   502A      7.737760   503A      7.800930  
     504A      7.827108   505A      7.839236   506A      7.905426  
     507A      7.915740   508A      8.059127   509A      8.155039  
     510A      8.260702   511A      8.477815   512A      8.586576  
     513A      9.447879   514A      9.513189   515A      9.708125  
     516A      9.843224   517A      9.884138   518A      9.954829  
     519A      9.992010   520A     10.101211   521A     11.005674  
     522A     11.724579   523A     11.976702   524A     12.368283  
     525A     13.759215   526A     13.960917   527A     14.163563  
     528A     14.608518   529A     15.839383   530A     43.797096  
     531A     45.132571   532A     45.963712   533A     60.730742  

    Final Occupation by Irrep:
              A 
    DOCC [    20 ]

  @DF-RHF Final Energy:  -247.10958456280605

   => Energetics <=

    Nuclear Repulsion Energy =            179.1129320221979810
    One-Electron Energy =                -690.8809909714204878
    Two-Electron Energy =                 264.6584743864164579
    Total Energy =                       -247.1095845628060488

Computation Completed


Properties will be evaluated at   0.000000,   0.000000,   0.000000 [a0]

Properties computed using the SCF density matrix

  Nuclear Dipole Moment: [e a0]
     X:   138.7639      Y:     7.4626      Z:     2.3010

  Electronic Dipole Moment: [e a0]
     X:  -138.0789      Y:    -6.2282      Z:    -1.5041

  Dipole Moment: [e a0]
     X:     0.6849      Y:     1.2344      Z:     0.7969     Total:     1.6211

  Dipole Moment: [D]
     X:     1.7409      Y:     3.1376      Z:     2.0256     Total:     4.1205


*** tstop() called on r282 at Sat Sep 11 01:24:08 2021
Module time:
	user time   =      53.93 seconds =       0.90 minutes
	system time =       0.85 seconds =       0.01 minutes
	total time  =         55 seconds =       0.92 minutes
Total time:
	user time   =     147.65 seconds =       2.46 minutes
	system time =       2.61 seconds =       0.04 minutes
	total time  =        151 seconds =       2.52 minutes

  //>>>>>>>>>>>>>>>>>>>>>>>>>>>>>>>>>>>//
  //            Monomer B HF           //
  //<<<<<<<<<<<<<<<<<<<<<<<<<<<<<<<<<<<//


*** tstart() called on r282
*** at Sat Sep 11 01:24:08 2021

   => Loading Basis Set <=

    Name: JUN-CC-PVTZ
    Role: ORBITAL
    Keyword: BASIS
    atoms 1-2, 7, 14-15, 18    entry C          line   217 file /home/r08543048/miniconda3/share/psi4/basis/jun-cc-pvtz.gbs 
    atoms 3, 16                entry O          line   305 file /home/r08543048/miniconda3/share/psi4/basis/jun-cc-pvtz.gbs 
    atoms 4                    entry N          line   261 file /home/r08543048/miniconda3/share/psi4/basis/jun-cc-pvtz.gbs 
    atoms 5-6, 8-13, 17, 19-22 entry H          line    36 file /home/r08543048/miniconda3/share/psi4/basis/jun-cc-pvtz.gbs 


         ---------------------------------------------------------
                                   SCF
               by Justin Turney, Rob Parrish, Andy Simmonett
                          and Daniel G. A. Smith
                              RHF Reference
                        1 Threads,  20980 MiB Core
         ---------------------------------------------------------

  ==> Geometry <==

    Molecular point group: c1
    Full point group: C1

    Geometry (in Angstrom), charge = 0, multiplicity = 1:

       Center              X                  Y                   Z               Mass       
    ------------   -----------------  -----------------  -----------------  -----------------
      Gh(C)           2.830168632911     0.314855689372     0.063154711265    12.000000000000
      Gh(C)           1.315005632911     0.346440689372     0.014328711265    12.000000000000
      Gh(O)           0.662528632911    -0.461601310628    -0.642290288735    15.994914619570
      Gh(N)           0.727613632911     1.329988689372     0.744020711265    14.003074004430
      Gh(H)          -0.265378367089     1.488799689372     0.632004711265     1.007825032230
      Gh(H)           1.287524632911     2.031369689372     1.192723711265     1.007825032230
      Gh(C)           3.375940632911    -1.089980310628    -0.140264288735    12.000000000000
      Gh(H)           3.002977632911    -1.505568310628    -1.073007288735     1.007825032230
      Gh(H)           4.464255632911    -1.078856310628    -0.168026288735     1.007825032230
      Gh(H)           3.058835632911    -1.747872310628     0.667555711265     1.007825032230
      Gh(H)           3.184216632911     0.975458689372    -0.732551288735     1.007825032230
      Gh(H)           3.178040632911     0.740716689372     1.005813711265     1.007825032230
         H           -2.430322367089     0.348515689372    -1.958521288735     1.007825032230
         C           -2.377111367089    -1.061746310628    -0.261977288735    12.000000000000
         C           -2.287431367089     0.303472689372    -0.864849288735    12.000000000000
         O           -2.086191367089     1.331883689372    -0.240746288735    15.994914619570
         H           -3.356973367089    -1.463517310628    -0.542153288735     1.007825032230
         C           -2.159450367089    -1.090404310628     1.238941711265    12.000000000000
         H           -2.282107367089    -2.101683310628     1.622488711265     1.007825032230
         H           -1.153399367089    -0.752825310628     1.480265711265     1.007825032230
         H           -2.867171367089    -0.438843310628     1.749149711265     1.007825032230
         H           -1.636166367089    -1.670878310628    -0.786410288735     1.007825032230

  Running in c1 symmetry.

  Rotational constants: A =      0.08941  B =      0.02474  C =      0.02257 [cm^-1]
  Rotational constants: A =   2680.55823  B =    741.56795  C =    676.57915 [MHz]
  Nuclear repulsion =  118.640832554887851

  Charge       = 0
  Multiplicity = 1
  Electrons    = 32
  Nalpha       = 16
  Nbeta        = 16

  ==> Algorithm <==

  SCF Algorithm Type is DF.
  DIIS enabled.
  MOM disabled.
  Fractional occupation disabled.
  Guess Type is SAD.
  Energy threshold   = 1.00e-08
  Density threshold  = 1.00e-08
  Integral threshold = 0.00e+00

  ==> Primary Basis <==

  Basis Set: JUN-CC-PVTZ
    Blend: JUN-CC-PVTZ
    Number of shells: 195
    Number of basis function: 533
    Number of Cartesian functions: 600
    Spherical Harmonics?: true
    Max angular momentum: 3

   => Loading Basis Set <=

    Name: (JUN-CC-PVTZ AUX)
    Role: JKFIT
    Keyword: DF_BASIS_SCF
    atoms 1-2, 7, 14-15, 18    entry C          line   152 file /home/r08543048/miniconda3/share/psi4/basis/jun-cc-pvtz-jkfit.gbs 
    atoms 3, 16                entry O          line   272 file /home/r08543048/miniconda3/share/psi4/basis/jun-cc-pvtz-jkfit.gbs 
    atoms 4                    entry N          line   212 file /home/r08543048/miniconda3/share/psi4/basis/jun-cc-pvtz-jkfit.gbs 
    atoms 5-6, 8-13, 17, 19-22 entry H          line    70 file /home/r08543048/miniconda3/share/psi4/basis/jun-cc-pvtz-jkfit.gbs 

  ==> Pre-Iterations <==

   -------------------------------------------------------
    Irrep   Nso     Nmo     Nalpha   Nbeta   Ndocc  Nsocc
   -------------------------------------------------------
     A        533     533       0       0       0       0
   -------------------------------------------------------
    Total     533     533      16      16      16       0
   -------------------------------------------------------

  ==> Integral Setup <==

  ==> DiskDFJK: Density-Fitted J/K Matrices <==

    J tasked:                  Yes
    K tasked:                  Yes
    wK tasked:                  No
    OpenMP threads:              1
    Integrals threads:           1
    Memory [MiB]:            15735
    Algorithm:                Core
    Integral Cache:           LOAD
    Schwarz Cutoff:          1E-12
    Fitting Condition:       1E-10

   => Auxiliary Basis Set <=

  Basis Set: (JUN-CC-PVTZ AUX)
    Blend: JUN-CC-PVTZ-JKFIT
    Number of shells: 391
    Number of basis function: 1245
    Number of Cartesian functions: 1499
    Spherical Harmonics?: true
    Max angular momentum: 4

  Minimum eigenvalue in the overlap matrix is 3.8738529089E-05.
  Using Symmetric Orthogonalization.

  SCF Guess: Superposition of Atomic Densities via on-the-fly atomic UHF.

  ==> Iterations <==

                           Total Energy        Delta E     RMS |[F,P]|

   @DF-RHF iter SAD:  -191.18148473403753   -1.91181e+02   0.00000e+00 
   @DF-RHF iter   1:  -191.85885828202800   -6.77374e-01   1.04322e-03 DIIS
   @DF-RHF iter   2:  -191.97426572459057   -1.15407e-01   6.69636e-04 DIIS
   @DF-RHF iter   3:  -192.02057068704676   -4.63050e-02   1.24347e-04 DIIS
   @DF-RHF iter   4:  -192.02337330720636   -2.80262e-03   5.27925e-05 DIIS
   @DF-RHF iter   5:  -192.02392499031365   -5.51683e-04   9.52596e-06 DIIS
   @DF-RHF iter   6:  -192.02396306430745   -3.80740e-05   3.63275e-06 DIIS
   @DF-RHF iter   7:  -192.02396831012101   -5.24581e-06   1.57545e-06 DIIS
   @DF-RHF iter   8:  -192.02396920340777   -8.93287e-07   4.95689e-07 DIIS
   @DF-RHF iter   9:  -192.02396931174275   -1.08335e-07   1.00057e-07 DIIS
   @DF-RHF iter  10:  -192.02396931592392   -4.18117e-09   2.06526e-08 DIIS
   @DF-RHF iter  11:  -192.02396931605981   -1.35884e-10   4.17624e-09 DIIS
  Energy and wave function converged.


  ==> Post-Iterations <==

    Orbital Energies [Eh]
    ---------------------

    Doubly Occupied:                                                      

       1A    -20.557423     2A    -11.332642     3A    -11.245606  
       4A    -11.221719     5A     -1.385893     6A     -1.066443  
       7A     -0.914621     8A     -0.773827     9A     -0.680698  
      10A     -0.638659    11A     -0.626395    12A     -0.542478  
      13A     -0.528322    14A     -0.520146    15A     -0.491027  
      16A     -0.423538  

    Virtual:                                                              

      17A      0.030683    18A      0.045644    19A      0.051194  
      20A      0.052918    21A      0.065693    22A      0.067019  
      23A      0.071490    24A      0.086119    25A      0.091659  
      26A      0.094810    27A      0.096885    28A      0.105624  
      29A      0.110305    30A      0.112781    31A      0.124454  
      32A      0.132842    33A      0.134841    34A      0.136858  
      35A      0.148244    36A      0.154935    37A      0.158910  
      38A      0.162110    39A      0.175568    40A      0.177807  
      41A      0.186310    42A      0.192111    43A      0.195539  
      44A      0.205802    45A      0.215284    46A      0.220968  
      47A      0.223285    48A      0.234176    49A      0.245663  
      50A      0.259464    51A      0.261391    52A      0.268302  
      53A      0.281586    54A      0.288540    55A      0.291209  
      56A      0.297789    57A      0.304900    58A      0.310191  
      59A      0.321261    60A      0.327566    61A      0.329959  
      62A      0.335831    63A      0.337165    64A      0.347181  
      65A      0.347456    66A      0.360548    67A      0.364791  
      68A      0.367240    69A      0.377237    70A      0.389484  
      71A      0.390812    72A      0.396523    73A      0.400744  
      74A      0.411179    75A      0.417691    76A      0.423783  
      77A      0.430449    78A      0.437510    79A      0.444585  
      80A      0.450305    81A      0.453025    82A      0.455266  
      83A      0.466473    84A      0.472629    85A      0.479863  
      86A      0.494377    87A      0.497110    88A      0.509778  
      89A      0.516637    90A      0.523054    91A      0.525526  
      92A      0.536849    93A      0.543451    94A      0.550077  
      95A      0.551190    96A      0.569010    97A      0.580026  
      98A      0.591112    99A      0.598904   100A      0.605864  
     101A      0.610922   102A      0.614018   103A      0.634183  
     104A      0.643493   105A      0.655422   106A      0.660563  
     107A      0.664948   108A      0.679623   109A      0.681280  
     110A      0.695304   111A      0.705898   112A      0.712801  
     113A      0.723503   114A      0.734237   115A      0.746224  
     116A      0.748921   117A      0.755509   118A      0.769374  
     119A      0.778861   120A      0.791635   121A      0.801227  
     122A      0.804545   123A      0.811105   124A      0.822262  
     125A      0.833756   126A      0.837724   127A      0.853837  
     128A      0.856258   129A      0.861970   130A      0.871045  
     131A      0.874429   132A      0.899342   133A      0.911158  
     134A      0.923097   135A      0.938737   136A      0.939006  
     137A      0.946791   138A      0.963496   139A      0.987432  
     140A      0.995278   141A      1.013369   142A      1.020704  
     143A      1.025697   144A      1.031526   145A      1.047947  
     146A      1.052615   147A      1.065311   148A      1.068923  
     149A      1.082173   150A      1.095821   151A      1.106699  
     152A      1.126593   153A      1.140347   154A      1.147988  
     155A      1.150356   156A      1.168375   157A      1.175918  
     158A      1.187643   159A      1.197342   160A      1.210987  
     161A      1.230800   162A      1.234784   163A      1.250862  
     164A      1.262709   165A      1.269103   166A      1.286531  
     167A      1.289463   168A      1.296168   169A      1.308677  
     170A      1.315037   171A      1.325236   172A      1.348635  
     173A      1.354856   174A      1.360988   175A      1.371501  
     176A      1.377024   177A      1.383381   178A      1.397246  
     179A      1.408844   180A      1.413087   181A      1.433148  
     182A      1.447420   183A      1.456043   184A      1.477008  
     185A      1.483440   186A      1.486207   187A      1.493905  
     188A      1.508433   189A      1.518874   190A      1.528161  
     191A      1.541926   192A      1.547078   193A      1.555487  
     194A      1.561387   195A      1.573290   196A      1.587583  
     197A      1.600311   198A      1.602710   199A      1.612541  
     200A      1.621976   201A      1.630446   202A      1.640369  
     203A      1.644016   204A      1.657350   205A      1.669639  
     206A      1.674984   207A      1.683510   208A      1.694889  
     209A      1.702767   210A      1.718048   211A      1.747267  
     212A      1.758780   213A      1.772658   214A      1.782954  
     215A      1.789883   216A      1.802379   217A      1.814971  
     218A      1.835296   219A      1.841460   220A      1.858083  
     221A      1.867458   222A      1.887430   223A      1.922956  
     224A      1.931641   225A      1.943899   226A      1.948808  
     227A      1.968126   228A      1.997656   229A      2.023961  
     230A      2.042616   231A      2.045295   232A      2.094544  
     233A      2.106875   234A      2.140345   235A      2.172998  
     236A      2.191605   237A      2.233001   238A      2.292885  
     239A      2.304996   240A      2.327043   241A      2.364551  
     242A      2.388504   243A      2.403861   244A      2.417620  
     245A      2.438045   246A      2.461272   247A      2.495392  
     248A      2.524336   249A      2.532617   250A      2.549911  
     251A      2.579478   252A      2.628858   253A      2.656047  
     254A      2.669995   255A      2.711553   256A      2.754842  
     257A      2.763700   258A      2.766261   259A      2.801163  
     260A      2.819952   261A      2.850523   262A      2.873272  
     263A      2.891904   264A      2.910347   265A      2.923517  
     266A      2.941726   267A      2.968832   268A      2.975370  
     269A      2.990474   270A      3.012025   271A      3.026470  
     272A      3.052819   273A      3.073384   274A      3.099705  
     275A      3.115884   276A      3.139291   277A      3.160004  
     278A      3.177259   279A      3.193815   280A      3.219430  
     281A      3.264603   282A      3.305744   283A      3.332141  
     284A      3.332724   285A      3.356196   286A      3.367638  
     287A      3.391332   288A      3.406979   289A      3.425492  
     290A      3.440052   291A      3.472182   292A      3.492056  
     293A      3.503064   294A      3.516269   295A      3.526343  
     296A      3.538850   297A      3.556544   298A      3.567821  
     299A      3.578428   300A      3.604295   301A      3.612418  
     302A      3.620221   303A      3.626974   304A      3.631923  
     305A      3.643407   306A      3.656498   307A      3.685800  
     308A      3.698486   309A      3.708433   310A      3.715242  
     311A      3.726689   312A      3.759535   313A      3.765924  
     314A      3.795885   315A      3.807159   316A      3.809621  
     317A      3.818025   318A      3.838887   319A      3.867356  
     320A      3.873732   321A      3.878519   322A      3.885916  
     323A      3.894954   324A      3.909047   325A      3.920283  
     326A      3.930380   327A      3.936953   328A      3.940687  
     329A      3.956667   330A      4.003709   331A      4.023805  
     332A      4.038544   333A      4.068190   334A      4.091847  
     335A      4.092737   336A      4.104073   337A      4.108694  
     338A      4.139837   339A      4.149725   340A      4.154847  
     341A      4.198602   342A      4.214070   343A      4.223469  
     344A      4.226672   345A      4.237293   346A      4.274327  
     347A      4.304716   348A      4.310299   349A      4.314301  
     350A      4.322978   351A      4.330020   352A      4.340444  
     353A      4.355744   354A      4.381538   355A      4.410425  
     356A      4.426531   357A      4.446940   358A      4.451479  
     359A      4.460697   360A      4.472910   361A      4.483495  
     362A      4.487797   363A      4.489604   364A      4.508731  
     365A      4.519096   366A      4.530555   367A      4.560593  
     368A      4.566119   369A      4.588231   370A      4.605681  
     371A      4.625704   372A      4.640397   373A      4.649692  
     374A      4.661204   375A      4.671537   376A      4.681072  
     377A      4.690287   378A      4.706336   379A      4.711988  
     380A      4.732544   381A      4.738794   382A      4.746655  
     383A      4.762449   384A      4.774206   385A      4.794273  
     386A      4.815126   387A      4.819610   388A      4.829403  
     389A      4.835472   390A      4.841254   391A      4.862306  
     392A      4.868821   393A      4.875916   394A      4.883991  
     395A      4.906192   396A      4.913976   397A      4.918699  
     398A      4.931663   399A      4.945934   400A      4.958753  
     401A      4.961838   402A      4.971976   403A      4.981742  
     404A      4.998663   405A      5.008881   406A      5.018042  
     407A      5.021067   408A      5.031849   409A      5.054239  
     410A      5.063960   411A      5.077246   412A      5.093037  
     413A      5.110357   414A      5.150359   415A      5.164791  
     416A      5.190287   417A      5.203003   418A      5.232485  
     419A      5.249036   420A      5.268387   421A      5.283897  
     422A      5.292518   423A      5.309375   424A      5.319032  
     425A      5.347889   426A      5.351717   427A      5.384505  
     428A      5.427904   429A      5.441117   430A      5.472088  
     431A      5.478647   432A      5.508071   433A      5.572919  
     434A      5.604999   435A      5.635029   436A      5.663593  
     437A      5.688228   438A      5.699755   439A      5.716344  
     440A      5.742599   441A      5.753181   442A      5.762097  
     443A      5.803962   444A      5.823460   445A      5.836754  
     446A      5.854355   447A      5.859727   448A      5.913427  
     449A      5.923820   450A      5.935048   451A      5.971352  
     452A      5.992102   453A      6.035933   454A      6.103717  
     455A      6.113335   456A      6.141989   457A      6.199203  
     458A      6.221279   459A      6.286885   460A      6.293642  
     461A      6.317116   462A      6.321287   463A      6.364576  
     464A      6.415502   465A      6.435498   466A      6.472995  
     467A      6.488611   468A      6.498742   469A      6.518574  
     470A      6.536604   471A      6.557279   472A      6.574723  
     473A      6.602055   474A      6.628130   475A      6.720752  
     476A      6.801232   477A      6.809570   478A      6.876065  
     479A      6.966236   480A      6.972744   481A      6.983186  
     482A      7.103657   483A      7.254984   484A      7.294645  
     485A      7.308735   486A      7.340873   487A      7.346595  
     488A      7.429168   489A      7.463611   490A      7.506644  
     491A      7.542078   492A      7.578456   493A      7.634228  
     494A      7.645919   495A      7.668394   496A      7.740210  
     497A      7.749714   498A      7.815163   499A      7.835328  
     500A      7.872650   501A      7.945324   502A      7.987310  
     503A      8.056619   504A      8.292219   505A      8.412004  
     506A      8.466262   507A      8.837884   508A      9.122264  
     509A      9.159189   510A      9.198389   511A      9.502904  
     512A      9.622292   513A      9.847177   514A      9.934346  
     515A      9.970879   516A     10.025070   517A     10.188361  
     518A     10.562803   519A     10.946524   520A     11.441830  
     521A     11.643532   522A     11.702856   523A     12.037478  
     524A     12.548384   525A     13.854905   526A     14.087212  
     527A     14.337251   528A     14.751176   529A     43.128053  
     530A     44.845227   531A     45.704800   532A     55.699935  
     533A     61.036206  

    Final Occupation by Irrep:
              A 
    DOCC [    16 ]

  @DF-RHF Final Energy:  -192.02396931605981

   => Energetics <=

    Nuclear Repulsion Energy =            118.6408325548878508
    One-Electron Energy =                -495.4307330108407541
    Two-Electron Energy =                 184.7659311398930697
    Total Energy =                       -192.0239693160598051

Computation Completed


Properties will be evaluated at   0.000000,   0.000000,   0.000000 [a0]

Properties computed using the SCF density matrix

  Nuclear Dipole Moment: [e a0]
     X:  -134.8502      Y:   -12.3139      Z:     0.5887

  Electronic Dipole Moment: [e a0]
     X:   134.6548      Y:    11.1455      Z:    -1.0218

  Dipole Moment: [e a0]
     X:    -0.1954      Y:    -1.1684      Z:    -0.4331     Total:     1.2613

  Dipole Moment: [D]
     X:    -0.4966      Y:    -2.9697      Z:    -1.1007     Total:     3.2059


*** tstop() called on r282 at Sat Sep 11 01:24:57 2021
Module time:
	user time   =      48.28 seconds =       0.80 minutes
	system time =       0.74 seconds =       0.01 minutes
	total time  =         49 seconds =       0.82 minutes
Total time:
	user time   =     195.93 seconds =       3.27 minutes
	system time =       3.35 seconds =       0.06 minutes
	total time  =        200 seconds =       3.33 minutes
  Constructing Basis Sets for SAPT...

   => Loading Basis Set <=

    Name: (JUN-CC-PVTZ AUX)
    Role: RIFIT
    Keyword: DF_BASIS_SAPT
    atoms 1-2, 7, 14-15, 18    entry C          line   132 file /home/r08543048/miniconda3/share/psi4/basis/jun-cc-pvtz-ri.gbs 
    atoms 3, 16                entry O          line   244 file /home/r08543048/miniconda3/share/psi4/basis/jun-cc-pvtz-ri.gbs 
    atoms 4                    entry N          line   188 file /home/r08543048/miniconda3/share/psi4/basis/jun-cc-pvtz-ri.gbs 
    atoms 5-6, 8-13, 17, 19-22 entry H          line    30 file /home/r08543048/miniconda3/share/psi4/basis/jun-cc-pvtz-ri.gbs 


  //>>>>>>>>>>>>>>>>>>>>>>>>>>>>>>>>>>>//
  //               SAPT0               //
  //<<<<<<<<<<<<<<<<<<<<<<<<<<<<<<<<<<<//


*** tstart() called on r282
*** at Sat Sep 11 01:24:57 2021

        SAPT0  
    Ed Hohenstein
     6 June 2009

      Orbital Information
  --------------------------
    NSO        =       533
    NMO        =       533
    NRI        =      1263
    NOCC A     =        20
    NOCC B     =        16
    FOCC A     =         0
    FOCC B     =         0
    NVIR A     =       513
    NVIR B     =       517

    Elst10,r            =    -0.018567331570 [Eh]
    Exch10              =     0.016990826742 [Eh]
    Exch10 (S^2)        =     0.016885537944 [Eh]

    Iter     Energy [mEh]          dE [mEh]         Residual      Time [s]
       1      -3.10851349       3.108513485       9.100710828             2
       2      -3.78917336       0.680659873       4.752853738             3
       3      -3.89971169       0.110538336       1.422112426             5
       4      -3.87406080      -0.025650896       0.593512464             6
       5      -3.86881888      -0.005241915       0.204106458             7
       6      -3.87162561       0.002806723       0.080985653             9
       7      -3.87236490       0.000739293       0.020961348            10
       8      -3.87208156      -0.000283337       0.005174158            11
       9      -3.87205188      -0.000029678       0.001340074            13
      10      -3.87206449       0.000012610       0.000499092            14
      11      -3.87206729       0.000002793       0.000175718            16
      12      -3.87206503      -0.000002253       0.000071263            17
      13      -3.87206540       0.000000362       0.000019864            18
      14      -3.87206552       0.000000120       0.000005388            20
      15      -3.87206549      -0.000000022       0.000001639            21
      16      -3.87206549      -0.000000010       0.000000454            22

    CHF Iterations converged


    Iter     Energy [mEh]          dE [mEh]         Residual      Time [s]
       1      -3.97860081       3.978600811      18.259587405             2
       2      -4.17562529       0.197024477       7.023362748             3
       3      -4.68859672       0.512971430       2.402839723             4
       4      -4.71248299       0.023886276       1.015961578             5
       5      -4.67968235      -0.032800644       0.297526293             6
       6      -4.68207171       0.002389365       0.099788234             7
       7      -4.68421343       0.002141714       0.031599904             8
       8      -4.68375011      -0.000463320       0.020302473            10
       9      -4.68365282      -0.000097294       0.006842749            11
      10      -4.68374837       0.000095553       0.002245268            12
      11      -4.68375670       0.000008330       0.000563754            13
      12      -4.68374959      -0.000007106       0.000139024            14
      13      -4.68374982       0.000000226       0.000035260            15
      14      -4.68375011       0.000000290       0.000010898            16
      15      -4.68375010      -0.000000007       0.000003241            18
      16      -4.68375007      -0.000000027       0.000000874            19

    CHF Iterations converged

    Ind20,r (A<-B)      =    -0.003872065485 [Eh]
    Ind20,r (B<-A)      =    -0.004683750074 [Eh]
    Ind20,r             =    -0.008555815559 [Eh]
    Exch-Ind20,r (A<-B) =     0.002945395539 [Eh]
    Exch-Ind20,r (B<-A) =     0.002031378678 [Eh]
    Exch-Ind20,r        =     0.004976774218 [Eh]
    Disp20              =    -0.011672695019 [Eh]
    Disp20 (SS)         =    -0.005836347509 [Eh]
    Disp20 (OS)         =    -0.005836347509 [Eh]
    Exch-Disp20         =     0.001586500691 [Eh]
    Exch-Disp20 (SS)    =     0.000990528799 [Eh]
    Exch-Disp20 (OS)    =     0.000595971891 [Eh]

    SAPT Results 
  --------------------------------------------------------------------------------------------------------
    Electrostatics                -18.56733157 [mEh]     -11.65117646 [kcal/mol]     -48.74852232 [kJ/mol]
      Elst10,r                    -18.56733157 [mEh]     -11.65117646 [kcal/mol]     -48.74852232 [kJ/mol]

    Exchange                       16.99082674 [mEh]      10.66190475 [kcal/mol]      44.60940947 [kJ/mol]
      Exch10                       16.99082674 [mEh]      10.66190475 [kcal/mol]      44.60940947 [kJ/mol]
      Exch10(S^2)                  16.88553794 [mEh]      10.59583503 [kcal/mol]      44.33297376 [kJ/mol]

    Induction                      -5.60728798 [mEh]      -3.51862633 [kcal/mol]     -14.72193255 [kJ/mol]
      Ind20,r                      -8.55581556 [mEh]      -5.36885532 [kcal/mol]     -22.46329066 [kJ/mol]
      Exch-Ind20,r                  4.97677422 [mEh]       3.12297297 [kcal/mol]      13.06651891 [kJ/mol]
      delta HF,r (2)               -2.02824663 [mEh]      -1.27274398 [kcal/mol]      -5.32516081 [kJ/mol]

    Dispersion                    -10.08619433 [mEh]      -6.32918250 [kcal/mol]     -26.48129956 [kJ/mol]
      Disp20                      -11.67269502 [mEh]      -7.32472671 [kcal/mol]     -30.64665655 [kJ/mol]
      Exch-Disp20                   1.58650069 [mEh]       0.99554421 [kcal/mol]       4.16535699 [kJ/mol]
      Disp20 (SS)                  -5.83634751 [mEh]      -3.66236335 [kcal/mol]     -15.32332827 [kJ/mol]
      Disp20 (OS)                  -5.83634751 [mEh]      -3.66236335 [kcal/mol]     -15.32332827 [kJ/mol]
      Exch-Disp20 (SS)              0.99052880 [mEh]       0.62156621 [kcal/mol]       2.60063300 [kJ/mol]
      Exch-Disp20 (OS)              0.59597189 [mEh]       0.37397801 [kcal/mol]       1.56472399 [kJ/mol]

  Total HF                         -7.18379280 [mEh]      -4.50789804 [kcal/mol]     -18.86104541 [kJ/mol]
  Total SAPT0                     -17.26998713 [mEh]     -10.83708054 [kcal/mol]     -45.34234497 [kJ/mol]

  Special recipe for scaled SAPT0 (see Manual):
    Electrostatics sSAPT0         -18.56733157 [mEh]     -11.65117646 [kcal/mol]     -48.74852232 [kJ/mol]
    Exchange sSAPT0                16.99082674 [mEh]      10.66190475 [kcal/mol]      44.60940947 [kJ/mol]
    Induction sSAPT0               -5.51360910 [mEh]      -3.45984195 [kcal/mol]     -14.47597870 [kJ/mol]
    Dispersion sSAPT0             -10.05633129 [mEh]      -6.31044316 [kcal/mol]     -26.40289416 [kJ/mol]
  Total sSAPT0                    -17.14644522 [mEh]     -10.75955682 [kcal/mol]     -45.01798572 [kJ/mol]
  --------------------------------------------------------------------------------------------------------

*** tstop() called on r282 at Sat Sep 11 01:27:39 2021
Module time:
	user time   =     139.18 seconds =       2.32 minutes
	system time =      22.32 seconds =       0.37 minutes
	total time  =        162 seconds =       2.70 minutes
Total time:
	user time   =     335.26 seconds =       5.59 minutes
	system time =      25.67 seconds =       0.43 minutes
	total time  =        362 seconds =       6.03 minutes

    Psi4 stopped on: Saturday, 11 September 2021 01:27AM
    Psi4 wall time for execution: 0:06:01.37

*** Psi4 exiting successfully. Buy a developer a beer!
