
    -----------------------------------------------------------------------
          Psi4: An Open-Source Ab Initio Electronic Structure Package
                               Psi4 1.3.2 release

                         Git: Rev {HEAD} ecbda83 


    R. M. Parrish, L. A. Burns, D. G. A. Smith, A. C. Simmonett,
    A. E. DePrince III, E. G. Hohenstein, U. Bozkaya, A. Yu. Sokolov,
    R. Di Remigio, R. M. Richard, J. F. Gonthier, A. M. James,
    H. R. McAlexander, A. Kumar, M. Saitow, X. Wang, B. P. Pritchard,
    P. Verma, H. F. Schaefer III, K. Patkowski, R. A. King, E. F. Valeev,
    F. A. Evangelista, J. M. Turney, T. D. Crawford, and C. D. Sherrill,
    J. Chem. Theory Comput. 13(7) pp 3185--3197 (2017).
    (doi: 10.1021/acs.jctc.7b00174)


                         Additional Contributions by
    P. Kraus, H. Kruse, M. H. Lechner, M. C. Schieber, R. A. Shaw,
    A. Alenaizan, R. Galvelis, Z. L. Glick, S. Lehtola, and J. P. Misiewicz

    -----------------------------------------------------------------------


    Psi4 started on: Saturday, 11 September 2021 01:14AM

    Process ID: 57417
    Host:       r282
    PSIDATADIR: /home/r08543048/miniconda3/share/psi4
    Memory:     500.0 MiB
    Threads:    1
    
  ==> Input File <==

--------------------------------------------------------------------------
# Any line starting with the # character is a comment line
#! Sample  computation

memory 22 gb

molecule Dimer {
0 1
 C -3.189708   -0.717907    0.135526
 C -1.816684   -0.121549   -0.060841
 O -0.917517   -0.748696   -0.616815
 N -1.642569    1.138162    0.410005
 H -3.910371   -0.012926    0.543800
 H -3.545506   -1.087835   -0.823024
 H -3.100788   -1.569386    0.807783
 H -0.722233    1.554714    0.366227
 H -2.375927    1.609640    0.904448






    
    
    
 --
0 1
 H  1.230740    0.813540   -1.783218
 C  2.259614   -0.640736   -0.479882
 C  1.545377    0.647377   -0.739773
 O  1.313693    1.490957    0.111269
 H  1.629603   -1.424424   -0.907394
 C  2.550186   -0.887243    0.988882
 H  3.074833   -1.831365    1.123121
 H  3.159876   -0.088046    1.406109
 H  1.620501   -0.924878    1.554109
 H  3.175127   -0.623908   -1.081106
  
  







units angstrom

no_reorient
symmetry c1
}

set globals{
  basis jun-cc-pvtz
}

energy('sapt0')


--------------------------------------------------------------------------

  Memory set to  20.489 GiB by Python driver.

  //>>>>>>>>>>>>>>>>>>>>>>>>>>>>>>>>>>>//
  //              Dimer HF             //
  //<<<<<<<<<<<<<<<<<<<<<<<<<<<<<<<<<<<//


*** tstart() called on r282
*** at Sat Sep 11 01:14:10 2021

   => Loading Basis Set <=

    Name: JUN-CC-PVTZ
    Role: ORBITAL
    Keyword: BASIS
    atoms 1-2, 11-12, 15  entry C          line   217 file /home/r08543048/miniconda3/share/psi4/basis/jun-cc-pvtz.gbs 
    atoms 3, 13           entry O          line   305 file /home/r08543048/miniconda3/share/psi4/basis/jun-cc-pvtz.gbs 
    atoms 4               entry N          line   261 file /home/r08543048/miniconda3/share/psi4/basis/jun-cc-pvtz.gbs 
    atoms 5-10, 14, 16-19 entry H          line    36 file /home/r08543048/miniconda3/share/psi4/basis/jun-cc-pvtz.gbs 


         ---------------------------------------------------------
                                   SCF
               by Justin Turney, Rob Parrish, Andy Simmonett
                          and Daniel G. A. Smith
                              RHF Reference
                        1 Threads,  20980 MiB Core
         ---------------------------------------------------------

  ==> Geometry <==

    Molecular point group: c1
    Full point group: C1

    Geometry (in Angstrom), charge = 0, multiplicity = 1:

       Center              X                  Y                   Z               Mass       
    ------------   -----------------  -----------------  -----------------  -----------------
         C           -3.187648762723    -0.748284325831     0.153381624175    12.000000000000
         C           -1.814624762723    -0.151926325831    -0.042985375825    12.000000000000
         O           -0.915457762723    -0.779073325831    -0.598959375825    15.994914619570
         N           -1.640509762723     1.107784674169     0.427860624175    14.003074004430
         H           -3.908311762723    -0.043303325831     0.561655624175     1.007825032230
         H           -3.543446762723    -1.118212325831    -0.805168375825     1.007825032230
         H           -3.098728762723    -1.599763325831     0.825638624175     1.007825032230
         H           -0.720173762723     1.524336674169     0.384082624175     1.007825032230
         H           -2.373867762723     1.579262674169     0.922303624175     1.007825032230
         H            1.232799237277     0.783162674169    -1.765362375825     1.007825032230
         C            2.261673237277    -0.671113325831    -0.462026375825    12.000000000000
         C            1.547436237277     0.616999674169    -0.721917375825    12.000000000000
         O            1.315752237277     1.460579674169     0.129124624175    15.994914619570
         H            1.631662237277    -1.454801325831    -0.889538375825     1.007825032230
         C            2.552245237277    -0.917620325831     1.006737624175    12.000000000000
         H            3.076892237277    -1.861742325831     1.140976624175     1.007825032230
         H            3.161935237277    -0.118423325831     1.423964624175     1.007825032230
         H            1.622560237277    -0.955255325831     1.571964624175     1.007825032230
         H            3.177186237277    -0.654285325831    -1.063250375825     1.007825032230

  Running in c1 symmetry.

  Rotational constants: A =      0.11413  B =      0.03165  C =      0.02840 [cm^-1]
  Rotational constants: A =   3421.41511  B =    948.84943  C =    851.47671 [MHz]
  Nuclear repulsion =  375.658781178021002

  Charge       = 0
  Multiplicity = 1
  Electrons    = 64
  Nalpha       = 32
  Nbeta        = 32

  ==> Algorithm <==

  SCF Algorithm Type is DF.
  DIIS enabled.
  MOM disabled.
  Fractional occupation disabled.
  Guess Type is SAD.
  Energy threshold   = 1.00e-08
  Density threshold  = 1.00e-08
  Integral threshold = 0.00e+00

  ==> Primary Basis <==

  Basis Set: JUN-CC-PVTZ
    Blend: JUN-CC-PVTZ
    Number of shells: 170
    Number of basis function: 466
    Number of Cartesian functions: 525
    Spherical Harmonics?: true
    Max angular momentum: 3

   => Loading Basis Set <=

    Name: (JUN-CC-PVTZ AUX)
    Role: JKFIT
    Keyword: DF_BASIS_SCF
    atoms 1-2, 11-12, 15  entry C          line   152 file /home/r08543048/miniconda3/share/psi4/basis/jun-cc-pvtz-jkfit.gbs 
    atoms 3, 13           entry O          line   272 file /home/r08543048/miniconda3/share/psi4/basis/jun-cc-pvtz-jkfit.gbs 
    atoms 4               entry N          line   212 file /home/r08543048/miniconda3/share/psi4/basis/jun-cc-pvtz-jkfit.gbs 
    atoms 5-10, 14, 16-19 entry H          line    70 file /home/r08543048/miniconda3/share/psi4/basis/jun-cc-pvtz-jkfit.gbs 

  ==> Pre-Iterations <==

   -------------------------------------------------------
    Irrep   Nso     Nmo     Nalpha   Nbeta   Ndocc  Nsocc
   -------------------------------------------------------
     A        466     466       0       0       0       0
   -------------------------------------------------------
    Total     466     466      32      32      32       0
   -------------------------------------------------------

  ==> Integral Setup <==

  ==> DiskDFJK: Density-Fitted J/K Matrices <==

    J tasked:                  Yes
    K tasked:                  Yes
    wK tasked:                  No
    OpenMP threads:              1
    Integrals threads:           1
    Memory [MiB]:            15735
    Algorithm:                Core
    Integral Cache:           SAVE
    Schwarz Cutoff:          1E-12
    Fitting Condition:       1E-10

   => Auxiliary Basis Set <=

  Basis Set: (JUN-CC-PVTZ AUX)
    Blend: JUN-CC-PVTZ-JKFIT
    Number of shells: 342
    Number of basis function: 1090
    Number of Cartesian functions: 1313
    Spherical Harmonics?: true
    Max angular momentum: 4

  Minimum eigenvalue in the overlap matrix is 4.8114267863E-05.
  Using Symmetric Orthogonalization.

  SCF Guess: Superposition of Atomic Densities via on-the-fly atomic UHF.

  ==> Iterations <==

                           Total Energy        Delta E     RMS |[F,P]|

   @DF-RHF iter SAD:  -398.56591012764642   -3.98566e+02   0.00000e+00 
   @DF-RHF iter   1:  -399.77266325272620   -1.20675e+00   1.71815e-03 DIIS
   @DF-RHF iter   2:  -400.01339116610399   -2.40728e-01   9.89478e-04 DIIS
   @DF-RHF iter   3:  -400.08838003877781   -7.49889e-02   1.88013e-04 DIIS
   @DF-RHF iter   4:  -400.09305373702904   -4.67370e-03   7.85285e-05 DIIS
   @DF-RHF iter   5:  -400.09393321131972   -8.79474e-04   1.42267e-05 DIIS
   @DF-RHF iter   6:  -400.09398816567949   -5.49544e-05   6.02336e-06 DIIS
   @DF-RHF iter   7:  -400.09399623186664   -8.06619e-06   2.39220e-06 DIIS
   @DF-RHF iter   8:  -400.09399801494118   -1.78307e-06   9.64884e-07 DIIS
   @DF-RHF iter   9:  -400.09399833390722   -3.18966e-07   2.76532e-07 DIIS
   @DF-RHF iter  10:  -400.09399835586260   -2.19554e-08   9.64801e-08 DIIS
   @DF-RHF iter  11:  -400.09399835795887   -2.09627e-09   3.60253e-08 DIIS
   @DF-RHF iter  12:  -400.09399835813792   -1.79057e-10   1.31018e-08 DIIS
   @DF-RHF iter  13:  -400.09399835816248   -2.45564e-11   2.72749e-09 DIIS
  Energy and wave function converged.


  ==> Post-Iterations <==

    Orbital Energies [Eh]
    ---------------------

    Doubly Occupied:                                                      

       1A    -20.544430     2A    -20.514743     3A    -15.577398  
       4A    -11.353798     5A    -11.325687     6A    -11.237052  
       7A    -11.226289     8A    -11.207765     9A     -1.380495  
      10A     -1.373259    11A     -1.207635    12A     -1.049743  
      13A     -1.005021    14A     -0.900233    15A     -0.796530  
      16A     -0.762473    17A     -0.722869    18A     -0.669832  
      19A     -0.667209    20A     -0.622854    21A     -0.616102  
      22A     -0.613733    23A     -0.582254    24A     -0.562227  
      25A     -0.529078    26A     -0.522627    27A     -0.517987  
      28A     -0.505195    29A     -0.480689    30A     -0.423931  
      31A     -0.415288    32A     -0.409182  

    Virtual:                                                              

      33A      0.042215    34A      0.056356    35A      0.058863  
      36A      0.063739    37A      0.075732    38A      0.078042  
      39A      0.080593    40A      0.094956    41A      0.103256  
      42A      0.109276    43A      0.110799    44A      0.115946  
      45A      0.124524    46A      0.137836    47A      0.143888  
      48A      0.150212    49A      0.155511    50A      0.161404  
      51A      0.167195    52A      0.179210    53A      0.185832  
      54A      0.189879    55A      0.195738    56A      0.205212  
      57A      0.211637    58A      0.232387    59A      0.238771  
      60A      0.251672    61A      0.263875    62A      0.268899  
      63A      0.278217    64A      0.280404    65A      0.287631  
      66A      0.289153    67A      0.293098    68A      0.299036  
      69A      0.311402    70A      0.315476    71A      0.316858  
      72A      0.323869    73A      0.329818    74A      0.331878  
      75A      0.337347    76A      0.339607    77A      0.354399  
      78A      0.360990    79A      0.369303    80A      0.378918  
      81A      0.387126    82A      0.394067    83A      0.398710  
      84A      0.411795    85A      0.421491    86A      0.427672  
      87A      0.437596    88A      0.441533    89A      0.448185  
      90A      0.453738    91A      0.469454    92A      0.486580  
      93A      0.499374    94A      0.508596    95A      0.511072  
      96A      0.521760    97A      0.525050    98A      0.540821  
      99A      0.542509   100A      0.545521   101A      0.558372  
     102A      0.563914   103A      0.585942   104A      0.590272  
     105A      0.601533   106A      0.608118   107A      0.612917  
     108A      0.624832   109A      0.633828   110A      0.650300  
     111A      0.655446   112A      0.662908   113A      0.678470  
     114A      0.679985   115A      0.691393   116A      0.694836  
     117A      0.720077   118A      0.723584   119A      0.730196  
     120A      0.736719   121A      0.744105   122A      0.758310  
     123A      0.762951   124A      0.777591   125A      0.783264  
     126A      0.792525   127A      0.805970   128A      0.813222  
     129A      0.824226   130A      0.829123   131A      0.840847  
     132A      0.855155   133A      0.870095   134A      0.871795  
     135A      0.881034   136A      0.884626   137A      0.898047  
     138A      0.910235   139A      0.920790   140A      0.924233  
     141A      0.940442   142A      0.946891   143A      0.955186  
     144A      0.991529   145A      0.998496   146A      1.012148  
     147A      1.022060   148A      1.035967   149A      1.048435  
     150A      1.054534   151A      1.067210   152A      1.085875  
     153A      1.086375   154A      1.112433   155A      1.121719  
     156A      1.136809   157A      1.139883   158A      1.147143  
     159A      1.162567   160A      1.183098   161A      1.187604  
     162A      1.210490   163A      1.225595   164A      1.234055  
     165A      1.259011   166A      1.271600   167A      1.290243  
     168A      1.301507   169A      1.310723   170A      1.322744  
     171A      1.337153   172A      1.342135   173A      1.353879  
     174A      1.360352   175A      1.379923   176A      1.381322  
     177A      1.387858   178A      1.394834   179A      1.400008  
     180A      1.419838   181A      1.427834   182A      1.446047  
     183A      1.455572   184A      1.459350   185A      1.470940  
     186A      1.486437   187A      1.495384   188A      1.506615  
     189A      1.515152   190A      1.532126   191A      1.546818  
     192A      1.553237   193A      1.572915   194A      1.579985  
     195A      1.587537   196A      1.607374   197A      1.617287  
     198A      1.630937   199A      1.637446   200A      1.639747  
     201A      1.661947   202A      1.678274   203A      1.682901  
     204A      1.696148   205A      1.700522   206A      1.717667  
     207A      1.735849   208A      1.753048   209A      1.758919  
     210A      1.801382   211A      1.816778   212A      1.838740  
     213A      1.856757   214A      1.876015   215A      1.886506  
     216A      1.900170   217A      1.919815   218A      1.954255  
     219A      1.959070   220A      1.970361   221A      1.983606  
     222A      2.048820   223A      2.092823   224A      2.124985  
     225A      2.163678   226A      2.272956   227A      2.281760  
     228A      2.357856   229A      2.381443   230A      2.418520  
     231A      2.425740   232A      2.456048   233A      2.492480  
     234A      2.514417   235A      2.574116   236A      2.586031  
     237A      2.647432   238A      2.730090   239A      2.741057  
     240A      2.762737   241A      2.778401   242A      2.786517  
     243A      2.812045   244A      2.828271   245A      2.839815  
     246A      2.876270   247A      2.903916   248A      2.938290  
     249A      2.950715   250A      2.969977   251A      2.982222  
     252A      2.992017   253A      3.004280   254A      3.014800  
     255A      3.040251   256A      3.047065   257A      3.067928  
     258A      3.094592   259A      3.106624   260A      3.130733  
     261A      3.140039   262A      3.150346   263A      3.157839  
     264A      3.173097   265A      3.213060   266A      3.224465  
     267A      3.258746   268A      3.259541   269A      3.270253  
     270A      3.288901   271A      3.313160   272A      3.324612  
     273A      3.347698   274A      3.362593   275A      3.371316  
     276A      3.396645   277A      3.414890   278A      3.415606  
     279A      3.421191   280A      3.434265   281A      3.436241  
     282A      3.448278   283A      3.451199   284A      3.479794  
     285A      3.491928   286A      3.494154   287A      3.511169  
     288A      3.524147   289A      3.532973   290A      3.542139  
     291A      3.547060   292A      3.555687   293A      3.565896  
     294A      3.578545   295A      3.605176   296A      3.614937  
     297A      3.628760   298A      3.632223   299A      3.637987  
     300A      3.653839   301A      3.663424   302A      3.688579  
     303A      3.693242   304A      3.716905   305A      3.723881  
     306A      3.733056   307A      3.745255   308A      3.779737  
     309A      3.789406   310A      3.804383   311A      3.821606  
     312A      3.830526   313A      3.855870   314A      3.875132  
     315A      3.878957   316A      3.889346   317A      3.903851  
     318A      3.915596   319A      3.935186   320A      3.949872  
     321A      3.972005   322A      4.002625   323A      4.018929  
     324A      4.033171   325A      4.049534   326A      4.069304  
     327A      4.093706   328A      4.124151   329A      4.139017  
     330A      4.154617   331A      4.171411   332A      4.179494  
     333A      4.194650   334A      4.215564   335A      4.228656  
     336A      4.243046   337A      4.262019   338A      4.281982  
     339A      4.300881   340A      4.310092   341A      4.327805  
     342A      4.343309   343A      4.345449   344A      4.363434  
     345A      4.378713   346A      4.382136   347A      4.401457  
     348A      4.420512   349A      4.435735   350A      4.447976  
     351A      4.452282   352A      4.462263   353A      4.466375  
     354A      4.486618   355A      4.500715   356A      4.518833  
     357A      4.528376   358A      4.541773   359A      4.558227  
     360A      4.586456   361A      4.593297   362A      4.614443  
     363A      4.635025   364A      4.665073   365A      4.669570  
     366A      4.672445   367A      4.695033   368A      4.717353  
     369A      4.721635   370A      4.737876   371A      4.767523  
     372A      4.801762   373A      4.815401   374A      4.849313  
     375A      4.891857   376A      4.917197   377A      4.930855  
     378A      4.953517   379A      4.974052   380A      4.998982  
     381A      5.029104   382A      5.072041   383A      5.109522  
     384A      5.136823   385A      5.142004   386A      5.191551  
     387A      5.196845   388A      5.216689   389A      5.241575  
     390A      5.260160   391A      5.287502   392A      5.294940  
     393A      5.309079   394A      5.322384   395A      5.341693  
     396A      5.357771   397A      5.409407   398A      5.418184  
     399A      5.440409   400A      5.453172   401A      5.485387  
     402A      5.493410   403A      5.534356   404A      5.547622  
     405A      5.583889   406A      5.616069   407A      5.647956  
     408A      5.666863   409A      5.685915   410A      5.692269  
     411A      5.721147   412A      5.723407   413A      5.738375  
     414A      5.745160   415A      5.757137   416A      5.770954  
     417A      5.781856   418A      5.822583   419A      5.862173  
     420A      5.894367   421A      5.919103   422A      5.936151  
     423A      5.943233   424A      5.989084   425A      6.008742  
     426A      6.050419   427A      6.104118   428A      6.138669  
     429A      6.210166   430A      6.215173   431A      6.234595  
     432A      6.304162   433A      6.330394   434A      6.436119  
     435A      6.442679   436A      6.500314   437A      6.519196  
     438A      6.558790   439A      6.581216   440A      6.710408  
     441A      6.782129   442A      6.808937   443A      6.826700  
     444A      6.987492   445A      7.218338   446A      7.268019  
     447A      7.292437   448A      7.305552   449A      7.329310  
     450A      7.364734   451A      7.464718   452A      7.479871  
     453A      7.506988   454A      7.535075   455A      7.641569  
     456A      7.746625   457A      7.796408   458A      7.821044  
     459A     12.265146   460A     12.607138   461A     13.915197  
     462A     14.071300   463A     14.354291   464A     14.719757  
     465A     14.796861   466A     15.763206  

    Final Occupation by Irrep:
              A 
    DOCC [    32 ]

  @DF-RHF Final Energy:  -400.09399835816248

   => Energetics <=

    Nuclear Repulsion Energy =            375.6587811780210018
    One-Electron Energy =               -1290.8583403553748212
    Two-Electron Energy =                 515.1055608191913961
    Total Energy =                       -400.0939983581624801

Computation Completed


Properties will be evaluated at   0.000000,   0.000000,   0.000000 [a0]

Properties computed using the SCF density matrix

  Nuclear Dipole Moment: [e a0]
     X:     0.2490      Y:    -3.6739      Z:     2.1595

  Electronic Dipole Moment: [e a0]
     X:    -1.0163      Y:     3.6482      Z:    -2.0766

  Dipole Moment: [e a0]
     X:    -0.7673      Y:    -0.0257      Z:     0.0829     Total:     0.7722

  Dipole Moment: [D]
     X:    -1.9502      Y:    -0.0653      Z:     0.2106     Total:     1.9627


*** tstop() called on r282 at Sat Sep 11 01:15:06 2021
Module time:
	user time   =      54.74 seconds =       0.91 minutes
	system time =       1.28 seconds =       0.02 minutes
	total time  =         56 seconds =       0.93 minutes
Total time:
	user time   =      54.74 seconds =       0.91 minutes
	system time =       1.28 seconds =       0.02 minutes
	total time  =         56 seconds =       0.93 minutes

  //>>>>>>>>>>>>>>>>>>>>>>>>>>>>>>>>>>>//
  //            Monomer A HF           //
  //<<<<<<<<<<<<<<<<<<<<<<<<<<<<<<<<<<<//


*** tstart() called on r282
*** at Sat Sep 11 01:15:06 2021

   => Loading Basis Set <=

    Name: JUN-CC-PVTZ
    Role: ORBITAL
    Keyword: BASIS
    atoms 1-2, 11-12, 15  entry C          line   217 file /home/r08543048/miniconda3/share/psi4/basis/jun-cc-pvtz.gbs 
    atoms 3, 13           entry O          line   305 file /home/r08543048/miniconda3/share/psi4/basis/jun-cc-pvtz.gbs 
    atoms 4               entry N          line   261 file /home/r08543048/miniconda3/share/psi4/basis/jun-cc-pvtz.gbs 
    atoms 5-10, 14, 16-19 entry H          line    36 file /home/r08543048/miniconda3/share/psi4/basis/jun-cc-pvtz.gbs 


         ---------------------------------------------------------
                                   SCF
               by Justin Turney, Rob Parrish, Andy Simmonett
                          and Daniel G. A. Smith
                              RHF Reference
                        1 Threads,  20980 MiB Core
         ---------------------------------------------------------

  ==> Geometry <==

    Molecular point group: c1
    Full point group: C1

    Geometry (in Angstrom), charge = 0, multiplicity = 1:

       Center              X                  Y                   Z               Mass       
    ------------   -----------------  -----------------  -----------------  -----------------
         C           -3.187648762723    -0.748284325831     0.153381624175    12.000000000000
         C           -1.814624762723    -0.151926325831    -0.042985375825    12.000000000000
         O           -0.915457762723    -0.779073325831    -0.598959375825    15.994914619570
         N           -1.640509762723     1.107784674169     0.427860624175    14.003074004430
         H           -3.908311762723    -0.043303325831     0.561655624175     1.007825032230
         H           -3.543446762723    -1.118212325831    -0.805168375825     1.007825032230
         H           -3.098728762723    -1.599763325831     0.825638624175     1.007825032230
         H           -0.720173762723     1.524336674169     0.384082624175     1.007825032230
         H           -2.373867762723     1.579262674169     0.922303624175     1.007825032230
      Gh(H)           1.232799237277     0.783162674169    -1.765362375825     1.007825032230
      Gh(C)           2.261673237277    -0.671113325831    -0.462026375825    12.000000000000
      Gh(C)           1.547436237277     0.616999674169    -0.721917375825    12.000000000000
      Gh(O)           1.315752237277     1.460579674169     0.129124624175    15.994914619570
      Gh(H)           1.631662237277    -1.454801325831    -0.889538375825     1.007825032230
      Gh(C)           2.552245237277    -0.917620325831     1.006737624175    12.000000000000
      Gh(H)           3.076892237277    -1.861742325831     1.140976624175     1.007825032230
      Gh(H)           3.161935237277    -0.118423325831     1.423964624175     1.007825032230
      Gh(H)           1.622560237277    -0.955255325831     1.571964624175     1.007825032230
      Gh(H)           3.177186237277    -0.654285325831    -1.063250375825     1.007825032230

  Running in c1 symmetry.

  Rotational constants: A =      0.11413  B =      0.03165  C =      0.02840 [cm^-1]
  Rotational constants: A =   3421.41511  B =    948.84943  C =    851.47671 [MHz]
  Nuclear repulsion =  121.755172844218464

  Charge       = 0
  Multiplicity = 1
  Electrons    = 32
  Nalpha       = 16
  Nbeta        = 16

  ==> Algorithm <==

  SCF Algorithm Type is DF.
  DIIS enabled.
  MOM disabled.
  Fractional occupation disabled.
  Guess Type is SAD.
  Energy threshold   = 1.00e-08
  Density threshold  = 1.00e-08
  Integral threshold = 0.00e+00

  ==> Primary Basis <==

  Basis Set: JUN-CC-PVTZ
    Blend: JUN-CC-PVTZ
    Number of shells: 170
    Number of basis function: 466
    Number of Cartesian functions: 525
    Spherical Harmonics?: true
    Max angular momentum: 3

   => Loading Basis Set <=

    Name: (JUN-CC-PVTZ AUX)
    Role: JKFIT
    Keyword: DF_BASIS_SCF
    atoms 1-2, 11-12, 15  entry C          line   152 file /home/r08543048/miniconda3/share/psi4/basis/jun-cc-pvtz-jkfit.gbs 
    atoms 3, 13           entry O          line   272 file /home/r08543048/miniconda3/share/psi4/basis/jun-cc-pvtz-jkfit.gbs 
    atoms 4               entry N          line   212 file /home/r08543048/miniconda3/share/psi4/basis/jun-cc-pvtz-jkfit.gbs 
    atoms 5-10, 14, 16-19 entry H          line    70 file /home/r08543048/miniconda3/share/psi4/basis/jun-cc-pvtz-jkfit.gbs 

  ==> Pre-Iterations <==

   -------------------------------------------------------
    Irrep   Nso     Nmo     Nalpha   Nbeta   Ndocc  Nsocc
   -------------------------------------------------------
     A        466     466       0       0       0       0
   -------------------------------------------------------
    Total     466     466      16      16      16       0
   -------------------------------------------------------

  ==> Integral Setup <==

  ==> DiskDFJK: Density-Fitted J/K Matrices <==

    J tasked:                  Yes
    K tasked:                  Yes
    wK tasked:                  No
    OpenMP threads:              1
    Integrals threads:           1
    Memory [MiB]:            15735
    Algorithm:                Core
    Integral Cache:           LOAD
    Schwarz Cutoff:          1E-12
    Fitting Condition:       1E-10

   => Auxiliary Basis Set <=

  Basis Set: (JUN-CC-PVTZ AUX)
    Blend: JUN-CC-PVTZ-JKFIT
    Number of shells: 342
    Number of basis function: 1090
    Number of Cartesian functions: 1313
    Spherical Harmonics?: true
    Max angular momentum: 4

  Minimum eigenvalue in the overlap matrix is 4.8114267863E-05.
  Using Symmetric Orthogonalization.

  SCF Guess: Superposition of Atomic Densities via on-the-fly atomic UHF.

  ==> Iterations <==

                           Total Energy        Delta E     RMS |[F,P]|

   @DF-RHF iter SAD:  -207.24299697301757   -2.07243e+02   0.00000e+00 
   @DF-RHF iter   1:  -207.88751041574073   -6.44513e-01   1.29823e-03 DIIS
   @DF-RHF iter   2:  -208.01538022955702   -1.27870e-01   7.78859e-04 DIIS
   @DF-RHF iter   3:  -208.05868257791371   -4.33023e-02   1.44200e-04 DIIS
   @DF-RHF iter   4:  -208.06115114559179   -2.46857e-03   5.84799e-05 DIIS
   @DF-RHF iter   5:  -208.06165229111411   -5.01146e-04   1.09200e-05 DIIS
   @DF-RHF iter   6:  -208.06168335286094   -3.10617e-05   5.18537e-06 DIIS
   @DF-RHF iter   7:  -208.06168905798410   -5.70512e-06   1.95833e-06 DIIS
   @DF-RHF iter   8:  -208.06169029181584   -1.23383e-06   6.38064e-07 DIIS
   @DF-RHF iter   9:  -208.06169044505518   -1.53239e-07   1.64506e-07 DIIS
   @DF-RHF iter  10:  -208.06169045281376   -7.75859e-09   5.37387e-08 DIIS
   @DF-RHF iter  11:  -208.06169045352297   -7.09207e-10   1.39444e-08 DIIS
   @DF-RHF iter  12:  -208.06169045357294   -4.99654e-11   2.93361e-09 DIIS
  Energy and wave function converged.


  ==> Post-Iterations <==

    Orbital Energies [Eh]
    ---------------------

    Doubly Occupied:                                                      

       1A    -20.514017     2A    -15.590698     3A    -11.354178  
       4A    -11.238549     5A     -1.372120     6A     -1.216086  
       7A     -1.006854     8A     -0.802802     9A     -0.730023  
      10A     -0.664044    11A     -0.615835    12A     -0.582502  
      13A     -0.564331    14A     -0.524456    15A     -0.423360  
      16A     -0.414704  

    Virtual:                                                              

      17A      0.035618    18A      0.043225    19A      0.052641  
      20A      0.060380    21A      0.072956    22A      0.077086  
      23A      0.080715    24A      0.088684    25A      0.096073  
      26A      0.106300    27A      0.114670    28A      0.115166  
      29A      0.123197    30A      0.130489    31A      0.143601  
      32A      0.144653    33A      0.152967    34A      0.157666  
      35A      0.161764    36A      0.168234    37A      0.174708  
      38A      0.180302    39A      0.185211    40A      0.195482  
      41A      0.200694    42A      0.219144    43A      0.231356  
      44A      0.244196    45A      0.247976    46A      0.260092  
      47A      0.272965    48A      0.281265    49A      0.283588  
      50A      0.286200    51A      0.294646    52A      0.297203  
      53A      0.310784    54A      0.313559    55A      0.317501  
      56A      0.325497    57A      0.331343    58A      0.337114  
      59A      0.344811    60A      0.354168    61A      0.368856  
      62A      0.371503    63A      0.380364    64A      0.386126  
      65A      0.389978    66A      0.395008    67A      0.410345  
      68A      0.416889    69A      0.421283    70A      0.424410  
      71A      0.438461    72A      0.453243    73A      0.459449  
      74A      0.472174    75A      0.482583    76A      0.497077  
      77A      0.500579    78A      0.501281    79A      0.514189  
      80A      0.518024    81A      0.535469    82A      0.538338  
      83A      0.551135    84A      0.556980    85A      0.570501  
      86A      0.583332    87A      0.585751    88A      0.588620  
      89A      0.595667    90A      0.604109    91A      0.622080  
      92A      0.629212    93A      0.632075    94A      0.640444  
      95A      0.644819    96A      0.660156    97A      0.666697  
      98A      0.672945    99A      0.682596   100A      0.688535  
     101A      0.700338   102A      0.710717   103A      0.719975  
     104A      0.721772   105A      0.725216   106A      0.741197  
     107A      0.775189   108A      0.778826   109A      0.807099  
     110A      0.808662   111A      0.811337   112A      0.824235  
     113A      0.842744   114A      0.868024   115A      0.871055  
     116A      0.880617   117A      0.906339   118A      0.911498  
     119A      0.915484   120A      0.938683   121A      0.949326  
     122A      0.971941   123A      0.992730   124A      1.003571  
     125A      1.022259   126A      1.025221   127A      1.043643  
     128A      1.050136   129A      1.064888   130A      1.080958  
     131A      1.087612   132A      1.096444   133A      1.107111  
     134A      1.128017   135A      1.146735   136A      1.158345  
     137A      1.162869   138A      1.171704   139A      1.183738  
     140A      1.189609   141A      1.196219   142A      1.201349  
     143A      1.223771   144A      1.236947   145A      1.242379  
     146A      1.254507   147A      1.270775   148A      1.278490  
     149A      1.302486   150A      1.309899   151A      1.312621  
     152A      1.322895   153A      1.332119   154A      1.341525  
     155A      1.358893   156A      1.365739   157A      1.369204  
     158A      1.380084   159A      1.392517   160A      1.395429  
     161A      1.413101   162A      1.422479   163A      1.436689  
     164A      1.438329   165A      1.461131   166A      1.473009  
     167A      1.480825   168A      1.494050   169A      1.507298  
     170A      1.512261   171A      1.519593   172A      1.544895  
     173A      1.562452   174A      1.567554   175A      1.577421  
     176A      1.587066   177A      1.598026   178A      1.604029  
     179A      1.617087   180A      1.628129   181A      1.642837  
     182A      1.648888   183A      1.665917   184A      1.676782  
     185A      1.684409   186A      1.699386   187A      1.720806  
     188A      1.743399   189A      1.753954   190A      1.772791  
     191A      1.779682   192A      1.803988   193A      1.840357  
     194A      1.869846   195A      1.892669   196A      1.914874  
     197A      1.918966   198A      1.923279   199A      1.931946  
     200A      1.967827   201A      1.982335   202A      2.003667  
     203A      2.056604   204A      2.072059   205A      2.111860  
     206A      2.128940   207A      2.135733   208A      2.183575  
     209A      2.192574   210A      2.208313   211A      2.257412  
     212A      2.298198   213A      2.308137   214A      2.375917  
     215A      2.380276   216A      2.423577   217A      2.433758  
     218A      2.447879   219A      2.482673   220A      2.501256  
     221A      2.562660   222A      2.603963   223A      2.617752  
     224A      2.648779   225A      2.677325   226A      2.735113  
     227A      2.743698   228A      2.785218   229A      2.793226  
     230A      2.822077   231A      2.845610   232A      2.878885  
     233A      2.910901   234A      2.963767   235A      2.992328  
     236A      3.003832   237A      3.010004   238A      3.053486  
     239A      3.082005   240A      3.092596   241A      3.153128  
     242A      3.202779   243A      3.211373   244A      3.221887  
     245A      3.239360   246A      3.269896   247A      3.277935  
     248A      3.305758   249A      3.363872   250A      3.396958  
     251A      3.418785   252A      3.436014   253A      3.444497  
     254A      3.489787   255A      3.504657   256A      3.516017  
     257A      3.524397   258A      3.534895   259A      3.542198  
     260A      3.568270   261A      3.594359   262A      3.603269  
     263A      3.608614   264A      3.619360   265A      3.633817  
     266A      3.648075   267A      3.651306   268A      3.656758  
     269A      3.674286   270A      3.676404   271A      3.695801  
     272A      3.732008   273A      3.743984   274A      3.776989  
     275A      3.790218   276A      3.803382   277A      3.812410  
     278A      3.835970   279A      3.841265   280A      3.863462  
     281A      3.869089   282A      3.885610   283A      3.888628  
     284A      3.907298   285A      3.934618   286A      3.952418  
     287A      3.962541   288A      3.974727   289A      3.995918  
     290A      4.019889   291A      4.038739   292A      4.052609  
     293A      4.057225   294A      4.081551   295A      4.102708  
     296A      4.134779   297A      4.154504   298A      4.162006  
     299A      4.170190   300A      4.185557   301A      4.208849  
     302A      4.245262   303A      4.258178   304A      4.288776  
     305A      4.294459   306A      4.309631   307A      4.311654  
     308A      4.333977   309A      4.360089   310A      4.389959  
     311A      4.391890   312A      4.409856   313A      4.437963  
     314A      4.438783   315A      4.455882   316A      4.467434  
     317A      4.476435   318A      4.488815   319A      4.494230  
     320A      4.516784   321A      4.531248   322A      4.540616  
     323A      4.546102   324A      4.565201   325A      4.583984  
     326A      4.591912   327A      4.618226   328A      4.629453  
     329A      4.635467   330A      4.661455   331A      4.676130  
     332A      4.702914   333A      4.708445   334A      4.720741  
     335A      4.729229   336A      4.737852   337A      4.752825  
     338A      4.763328   339A      4.793788   340A      4.804867  
     341A      4.807198   342A      4.812737   343A      4.828794  
     344A      4.855563   345A      4.876580   346A      4.881048  
     347A      4.886449   348A      4.898059   349A      4.911396  
     350A      4.923606   351A      4.939338   352A      4.960356  
     353A      4.987712   354A      4.990057   355A      5.008327  
     356A      5.014713   357A      5.030996   358A      5.035570  
     359A      5.091624   360A      5.107599   361A      5.122890  
     362A      5.133490   363A      5.142581   364A      5.161494  
     365A      5.190951   366A      5.209346   367A      5.217287  
     368A      5.249515   369A      5.290552   370A      5.300842  
     371A      5.337747   372A      5.366447   373A      5.389921  
     374A      5.411409   375A      5.451168   376A      5.475118  
     377A      5.492695   378A      5.538854   379A      5.581124  
     380A      5.594775   381A      5.613673   382A      5.634530  
     383A      5.672750   384A      5.686165   385A      5.695134  
     386A      5.723635   387A      5.744121   388A      5.758752  
     389A      5.777101   390A      5.820623   391A      5.862638  
     392A      5.888802   393A      5.903046   394A      5.916796  
     395A      5.995374   396A      6.037842   397A      6.054719  
     398A      6.089667   399A      6.107896   400A      6.137504  
     401A      6.177234   402A      6.200378   403A      6.231129  
     404A      6.263672   405A      6.302805   406A      6.338615  
     407A      6.375897   408A      6.397296   409A      6.433115  
     410A      6.436144   411A      6.458663   412A      6.468836  
     413A      6.509272   414A      6.520886   415A      6.610040  
     416A      6.653906   417A      6.668681   418A      6.717190  
     419A      6.797616   420A      6.834599   421A      6.891294  
     422A      6.929389   423A      6.994423   424A      7.024521  
     425A      7.219882   426A      7.295865   427A      7.337988  
     428A      7.372765   429A      7.385870   430A      7.456124  
     431A      7.486290   432A      7.511064   433A      7.555038  
     434A      7.585085   435A      7.716882   436A      7.723341  
     437A      7.786673   438A      7.824818   439A      7.833689  
     440A      7.902956   441A      7.922955   442A      8.056747  
     443A      8.151593   444A      8.261510   445A      8.476240  
     446A      8.588737   447A      9.479477   448A      9.540760  
     449A      9.687823   450A      9.832072   451A      9.892228  
     452A      9.939243   453A      9.994317   454A     10.094743  
     455A     11.023403   456A     11.751815   457A     11.975722  
     458A     12.282370   459A     13.744269   460A     13.901274  
     461A     14.786598   462A     15.726484   463A     43.949884  
     464A     45.055968   465A     45.870376   466A     60.824389  

    Final Occupation by Irrep:
              A 
    DOCC [    16 ]

  @DF-RHF Final Energy:  -208.06169045357294

   => Energetics <=

    Nuclear Repulsion Energy =            121.7551728442184640
    One-Electron Energy =                -524.4046026452708702
    Two-Electron Energy =                 194.5877393474794701
    Total Energy =                       -208.0616904535729361

Computation Completed


Properties will be evaluated at   0.000000,   0.000000,   0.000000 [a0]

Properties computed using the SCF density matrix

  Nuclear Dipole Moment: [e a0]
     X:  -118.0425      Y:    -6.6840      Z:     1.4253

  Electronic Dipole Moment: [e a0]
     X:   116.9796      Y:     7.7049      Z:    -0.5603

  Dipole Moment: [e a0]
     X:    -1.0629      Y:     1.0209      Z:     0.8650     Total:     1.7088

  Dipole Moment: [D]
     X:    -2.7017      Y:     2.5948      Z:     2.1985     Total:     4.3434


*** tstop() called on r282 at Sat Sep 11 01:15:35 2021
Module time:
	user time   =      28.24 seconds =       0.47 minutes
	system time =       0.57 seconds =       0.01 minutes
	total time  =         29 seconds =       0.48 minutes
Total time:
	user time   =      82.98 seconds =       1.38 minutes
	system time =       1.85 seconds =       0.03 minutes
	total time  =         85 seconds =       1.42 minutes

  //>>>>>>>>>>>>>>>>>>>>>>>>>>>>>>>>>>>//
  //            Monomer B HF           //
  //<<<<<<<<<<<<<<<<<<<<<<<<<<<<<<<<<<<//


*** tstart() called on r282
*** at Sat Sep 11 01:15:35 2021

   => Loading Basis Set <=

    Name: JUN-CC-PVTZ
    Role: ORBITAL
    Keyword: BASIS
    atoms 1-2, 11-12, 15  entry C          line   217 file /home/r08543048/miniconda3/share/psi4/basis/jun-cc-pvtz.gbs 
    atoms 3, 13           entry O          line   305 file /home/r08543048/miniconda3/share/psi4/basis/jun-cc-pvtz.gbs 
    atoms 4               entry N          line   261 file /home/r08543048/miniconda3/share/psi4/basis/jun-cc-pvtz.gbs 
    atoms 5-10, 14, 16-19 entry H          line    36 file /home/r08543048/miniconda3/share/psi4/basis/jun-cc-pvtz.gbs 


         ---------------------------------------------------------
                                   SCF
               by Justin Turney, Rob Parrish, Andy Simmonett
                          and Daniel G. A. Smith
                              RHF Reference
                        1 Threads,  20980 MiB Core
         ---------------------------------------------------------

  ==> Geometry <==

    Molecular point group: c1
    Full point group: C1

    Geometry (in Angstrom), charge = 0, multiplicity = 1:

       Center              X                  Y                   Z               Mass       
    ------------   -----------------  -----------------  -----------------  -----------------
      Gh(C)          -3.187648762723    -0.748284325831     0.153381624175    12.000000000000
      Gh(C)          -1.814624762723    -0.151926325831    -0.042985375825    12.000000000000
      Gh(O)          -0.915457762723    -0.779073325831    -0.598959375825    15.994914619570
      Gh(N)          -1.640509762723     1.107784674169     0.427860624175    14.003074004430
      Gh(H)          -3.908311762723    -0.043303325831     0.561655624175     1.007825032230
      Gh(H)          -3.543446762723    -1.118212325831    -0.805168375825     1.007825032230
      Gh(H)          -3.098728762723    -1.599763325831     0.825638624175     1.007825032230
      Gh(H)          -0.720173762723     1.524336674169     0.384082624175     1.007825032230
      Gh(H)          -2.373867762723     1.579262674169     0.922303624175     1.007825032230
         H            1.232799237277     0.783162674169    -1.765362375825     1.007825032230
         C            2.261673237277    -0.671113325831    -0.462026375825    12.000000000000
         C            1.547436237277     0.616999674169    -0.721917375825    12.000000000000
         O            1.315752237277     1.460579674169     0.129124624175    15.994914619570
         H            1.631662237277    -1.454801325831    -0.889538375825     1.007825032230
         C            2.552245237277    -0.917620325831     1.006737624175    12.000000000000
         H            3.076892237277    -1.861742325831     1.140976624175     1.007825032230
         H            3.161935237277    -0.118423325831     1.423964624175     1.007825032230
         H            1.622560237277    -0.955255325831     1.571964624175     1.007825032230
         H            3.177186237277    -0.654285325831    -1.063250375825     1.007825032230

  Running in c1 symmetry.

  Rotational constants: A =      0.11413  B =      0.03165  C =      0.02840 [cm^-1]
  Rotational constants: A =   3421.41511  B =    948.84943  C =    851.47671 [MHz]
  Nuclear repulsion =  118.762457614230158

  Charge       = 0
  Multiplicity = 1
  Electrons    = 32
  Nalpha       = 16
  Nbeta        = 16

  ==> Algorithm <==

  SCF Algorithm Type is DF.
  DIIS enabled.
  MOM disabled.
  Fractional occupation disabled.
  Guess Type is SAD.
  Energy threshold   = 1.00e-08
  Density threshold  = 1.00e-08
  Integral threshold = 0.00e+00

  ==> Primary Basis <==

  Basis Set: JUN-CC-PVTZ
    Blend: JUN-CC-PVTZ
    Number of shells: 170
    Number of basis function: 466
    Number of Cartesian functions: 525
    Spherical Harmonics?: true
    Max angular momentum: 3

   => Loading Basis Set <=

    Name: (JUN-CC-PVTZ AUX)
    Role: JKFIT
    Keyword: DF_BASIS_SCF
    atoms 1-2, 11-12, 15  entry C          line   152 file /home/r08543048/miniconda3/share/psi4/basis/jun-cc-pvtz-jkfit.gbs 
    atoms 3, 13           entry O          line   272 file /home/r08543048/miniconda3/share/psi4/basis/jun-cc-pvtz-jkfit.gbs 
    atoms 4               entry N          line   212 file /home/r08543048/miniconda3/share/psi4/basis/jun-cc-pvtz-jkfit.gbs 
    atoms 5-10, 14, 16-19 entry H          line    70 file /home/r08543048/miniconda3/share/psi4/basis/jun-cc-pvtz-jkfit.gbs 

  ==> Pre-Iterations <==

   -------------------------------------------------------
    Irrep   Nso     Nmo     Nalpha   Nbeta   Ndocc  Nsocc
   -------------------------------------------------------
     A        466     466       0       0       0       0
   -------------------------------------------------------
    Total     466     466      16      16      16       0
   -------------------------------------------------------

  ==> Integral Setup <==

  ==> DiskDFJK: Density-Fitted J/K Matrices <==

    J tasked:                  Yes
    K tasked:                  Yes
    wK tasked:                  No
    OpenMP threads:              1
    Integrals threads:           1
    Memory [MiB]:            15735
    Algorithm:                Core
    Integral Cache:           LOAD
    Schwarz Cutoff:          1E-12
    Fitting Condition:       1E-10

   => Auxiliary Basis Set <=

  Basis Set: (JUN-CC-PVTZ AUX)
    Blend: JUN-CC-PVTZ-JKFIT
    Number of shells: 342
    Number of basis function: 1090
    Number of Cartesian functions: 1313
    Spherical Harmonics?: true
    Max angular momentum: 4

  Minimum eigenvalue in the overlap matrix is 4.8114267863E-05.
  Using Symmetric Orthogonalization.

  SCF Guess: Superposition of Atomic Densities via on-the-fly atomic UHF.

  ==> Iterations <==

                           Total Energy        Delta E     RMS |[F,P]|

   @DF-RHF iter SAD:  -191.18188784391711   -1.91182e+02   0.00000e+00 
   @DF-RHF iter   1:  -191.85862977168009   -6.76742e-01   1.19335e-03 DIIS
   @DF-RHF iter   2:  -191.97395367566548   -1.15324e-01   7.66391e-04 DIIS
   @DF-RHF iter   3:  -192.02035777423396   -4.64041e-02   1.42339e-04 DIIS
   @DF-RHF iter   4:  -192.02316080805110   -2.80303e-03   6.04658e-05 DIIS
   @DF-RHF iter   5:  -192.02371331866638   -5.52511e-04   1.08962e-05 DIIS
   @DF-RHF iter   6:  -192.02375149113988   -3.81725e-05   4.15664e-06 DIIS
   @DF-RHF iter   7:  -192.02375675271850   -5.26158e-06   1.80189e-06 DIIS
   @DF-RHF iter   8:  -192.02375764849435   -8.95776e-07   5.66432e-07 DIIS
   @DF-RHF iter   9:  -192.02375775668943   -1.08195e-07   1.15233e-07 DIIS
   @DF-RHF iter  10:  -192.02375776094493   -4.25550e-09   2.40404e-08 DIIS
   @DF-RHF iter  11:  -192.02375776109068   -1.45747e-10   5.28629e-09 DIIS
  Energy and wave function converged.


  ==> Post-Iterations <==

    Orbital Energies [Eh]
    ---------------------

    Doubly Occupied:                                                      

       1A    -20.557480     2A    -11.332698     3A    -11.245129  
       4A    -11.221238     5A     -1.385574     6A     -1.065873  
       7A     -0.914179     8A     -0.774452     9A     -0.681030  
      10A     -0.638200    11A     -0.626071    12A     -0.541868  
      13A     -0.527324    14A     -0.520278    15A     -0.490768  
      16A     -0.423858  

    Virtual:                                                              

      17A      0.033333    18A      0.046365    19A      0.051476  
      20A      0.059264    21A      0.066819    22A      0.073299  
      23A      0.074462    24A      0.089219    25A      0.095871  
      26A      0.101035    27A      0.105377    28A      0.107498  
      29A      0.121971    30A      0.129721    31A      0.135303  
      32A      0.138800    33A      0.147920    34A      0.155294  
      35A      0.161137    36A      0.165920    37A      0.175180  
      38A      0.184479    39A      0.189037    40A      0.204346  
      41A      0.206869    42A      0.209094    43A      0.217362  
      44A      0.230985    45A      0.237844    46A      0.255290  
      47A      0.262338    48A      0.270366    49A      0.273071  
      50A      0.285953    51A      0.289309    52A      0.299164  
      53A      0.307465    54A      0.312862    55A      0.323430  
      56A      0.326852    57A      0.333891    58A      0.339494  
      59A      0.344298    60A      0.352781    61A      0.363733  
      62A      0.369415    63A      0.373326    64A      0.384690  
      65A      0.389122    66A      0.392162    67A      0.402496  
      68A      0.408465    69A      0.415325    70A      0.422792  
      71A      0.432969    72A      0.442675    73A      0.447684  
      74A      0.459065    75A      0.467622    76A      0.474590  
      77A      0.483616    78A      0.486512    79A      0.494676  
      80A      0.507514    81A      0.511382    82A      0.517134  
      83A      0.522130    84A      0.537649    85A      0.547533  
      86A      0.553328    87A      0.571438    88A      0.573246  
      89A      0.591483    90A      0.597537    91A      0.605722  
      92A      0.633368    93A      0.634449    94A      0.655667  
      95A      0.658682    96A      0.670252    97A      0.673613  
      98A      0.685677    99A      0.692675   100A      0.710053  
     101A      0.722656   102A      0.724800   103A      0.746197  
     104A      0.757256   105A      0.766768   106A      0.774003  
     107A      0.793673   108A      0.803638   109A      0.810272  
     110A      0.815236   111A      0.827288   112A      0.836932  
     113A      0.839152   114A      0.849447   115A      0.853985  
     116A      0.866348   117A      0.878526   118A      0.884168  
     119A      0.907588   120A      0.910821   121A      0.913964  
     122A      0.923177   123A      0.952945   124A      0.958153  
     125A      0.965552   126A      0.991444   127A      1.015182  
     128A      1.017390   129A      1.023417   130A      1.025457  
     131A      1.035150   132A      1.056898   133A      1.069883  
     134A      1.080926   135A      1.083801   136A      1.097854  
     137A      1.124755   138A      1.130102   139A      1.153097  
     140A      1.167390   141A      1.171994   142A      1.175338  
     143A      1.189355   144A      1.208218   145A      1.211626  
     146A      1.223867   147A      1.264263   148A      1.268425  
     149A      1.281108   150A      1.291654   151A      1.314213  
     152A      1.324692   153A      1.341834   154A      1.357920  
     155A      1.370015   156A      1.374364   157A      1.388760  
     158A      1.395610   159A      1.407516   160A      1.410560  
     161A      1.422971   162A      1.430037   163A      1.446868  
     164A      1.458256   165A      1.471628   166A      1.483369  
     167A      1.490261   168A      1.512977   169A      1.518291  
     170A      1.529030   171A      1.534958   172A      1.546154  
     173A      1.555590   174A      1.561450   175A      1.590978  
     176A      1.604204   177A      1.606967   178A      1.613215  
     179A      1.627011   180A      1.634349   181A      1.641172  
     182A      1.661449   183A      1.670490   184A      1.680330  
     185A      1.696064   186A      1.716944   187A      1.739867  
     188A      1.752067   189A      1.768492   190A      1.773966  
     191A      1.795458   192A      1.808878   193A      1.827502  
     194A      1.837962   195A      1.867906   196A      1.880171  
     197A      1.889173   198A      1.909614   199A      1.922257  
     200A      1.938458   201A      1.951370   202A      1.977545  
     203A      2.009249   204A      2.019944   205A      2.075466  
     206A      2.097526   207A      2.106492   208A      2.129911  
     209A      2.239514   210A      2.314698   211A      2.340855  
     212A      2.354101   213A      2.374587   214A      2.399446  
     215A      2.421652   216A      2.434012   217A      2.482386  
     218A      2.513022   219A      2.560754   220A      2.599865  
     221A      2.616570   222A      2.638794   223A      2.696784  
     224A      2.719295   225A      2.740732   226A      2.775131  
     227A      2.792432   228A      2.806411   229A      2.820275  
     230A      2.844401   231A      2.866139   232A      2.883645  
     233A      2.909062   234A      2.915107   235A      2.925714  
     236A      2.945415   237A      2.970644   238A      2.988041  
     239A      3.008856   240A      3.052602   241A      3.061744  
     242A      3.066022   243A      3.099371   244A      3.123212  
     245A      3.130139   246A      3.144395   247A      3.176956  
     248A      3.215473   249A      3.241619   250A      3.294502  
     251A      3.304962   252A      3.330483   253A      3.341582  
     254A      3.361584   255A      3.397629   256A      3.412978  
     257A      3.423046   258A      3.428219   259A      3.458128  
     260A      3.483746   261A      3.491616   262A      3.514964  
     263A      3.524619   264A      3.548392   265A      3.553872  
     266A      3.573401   267A      3.590905   268A      3.595487  
     269A      3.611482   270A      3.615102   271A      3.628581  
     272A      3.647033   273A      3.661015   274A      3.677871  
     275A      3.684647   276A      3.707994   277A      3.722941  
     278A      3.726756   279A      3.784971   280A      3.808163  
     281A      3.830876   282A      3.844996   283A      3.853460  
     284A      3.864391   285A      3.877904   286A      3.887233  
     287A      3.898203   288A      3.904605   289A      3.928996  
     290A      3.935476   291A      3.961908   292A      3.986336  
     293A      4.006882   294A      4.011814   295A      4.044641  
     296A      4.064617   297A      4.095227   298A      4.109066  
     299A      4.143631   300A      4.152549   301A      4.160686  
     302A      4.200521   303A      4.217441   304A      4.231121  
     305A      4.256585   306A      4.274071   307A      4.283844  
     308A      4.307395   309A      4.311514   310A      4.318660  
     311A      4.328390   312A      4.334335   313A      4.354848  
     314A      4.362668   315A      4.382370   316A      4.406086  
     317A      4.431739   318A      4.448060   319A      4.457095  
     320A      4.489361   321A      4.495897   322A      4.512839  
     323A      4.523158   324A      4.528536   325A      4.535705  
     326A      4.562421   327A      4.573008   328A      4.616387  
     329A      4.637990   330A      4.645056   331A      4.654498  
     332A      4.672097   333A      4.677141   334A      4.684127  
     335A      4.706737   336A      4.722405   337A      4.735039  
     338A      4.743254   339A      4.761353   340A      4.776629  
     341A      4.782133   342A      4.808125   343A      4.816695  
     344A      4.820262   345A      4.840567   346A      4.856443  
     347A      4.876244   348A      4.890047   349A      4.908622  
     350A      4.923620   351A      4.937546   352A      4.941472  
     353A      4.953717   354A      4.962929   355A      4.984627  
     356A      5.016610   357A      5.020437   358A      5.050638  
     359A      5.055758   360A      5.065002   361A      5.097170  
     362A      5.108537   363A      5.123193   364A      5.147537  
     365A      5.174940   366A      5.190885   367A      5.213928  
     368A      5.238340   369A      5.274076   370A      5.282553  
     371A      5.293912   372A      5.307513   373A      5.339718  
     374A      5.391796   375A      5.427295   376A      5.441641  
     377A      5.468551   378A      5.522766   379A      5.586787  
     380A      5.641667   381A      5.659175   382A      5.675421  
     383A      5.689632   384A      5.715604   385A      5.734697  
     386A      5.741528   387A      5.795739   388A      5.814534  
     389A      5.847200   390A      5.865590   391A      5.908512  
     392A      5.921520   393A      5.942946   394A      5.973267  
     395A      5.978739   396A      6.038329   397A      6.079780  
     398A      6.122229   399A      6.149547   400A      6.191491  
     401A      6.205504   402A      6.235561   403A      6.302304  
     404A      6.323337   405A      6.351217   406A      6.446243  
     407A      6.457239   408A      6.481889   409A      6.487762  
     410A      6.508691   411A      6.512597   412A      6.542302  
     413A      6.571128   414A      6.625814   415A      6.695577  
     416A      6.750177   417A      6.800152   418A      6.872109  
     419A      6.947662   420A      6.971851   421A      7.084458  
     422A      7.252901   423A      7.296137   424A      7.317862  
     425A      7.340918   426A      7.358847   427A      7.444609  
     428A      7.468674   429A      7.500316   430A      7.541405  
     431A      7.561053   432A      7.635662   433A      7.705563  
     434A      7.768525   435A      7.819049   436A      7.839780  
     437A      7.863644   438A      7.896688   439A      8.058831  
     440A      8.255169   441A      8.454758   442A      8.813882  
     443A      9.096658   444A      9.125318   445A      9.145188  
     446A      9.447367   447A      9.820692   448A      9.849783  
     449A      9.939450   450A      9.944862   451A     10.173413  
     452A     10.551617   453A     10.931469   454A     11.433310  
     455A     11.610297   456A     11.645958   457A     11.966740  
     458A     12.631742   459A     13.843470   460A     14.053045  
     461A     14.363085   462A     14.728440   463A     42.920528  
     464A     46.171120   465A     55.374514   466A     60.675540  

    Final Occupation by Irrep:
              A 
    DOCC [    16 ]

  @DF-RHF Final Energy:  -192.02375776109068

   => Energetics <=

    Nuclear Repulsion Energy =            118.7624576142301578
    One-Electron Energy =                -495.6803954079949790
    Two-Electron Energy =                 184.8941800326741713
    Total Energy =                       -192.0237577610906783

Computation Completed


Properties will be evaluated at   0.000000,   0.000000,   0.000000 [a0]

Properties computed using the SCF density matrix

  Nuclear Dipole Moment: [e a0]
     X:   118.2915      Y:     3.0101      Z:     0.7342

  Electronic Dipole Moment: [e a0]
     X:  -117.9515      Y:    -3.9943      Z:    -1.4357

  Dipole Moment: [e a0]
     X:     0.3400      Y:    -0.9841      Z:    -0.7015     Total:     1.2555

  Dipole Moment: [D]
     X:     0.8642      Y:    -2.5015      Z:    -1.7830     Total:     3.1911


*** tstop() called on r282 at Sat Sep 11 01:16:04 2021
Module time:
	user time   =      28.45 seconds =       0.47 minutes
	system time =       0.52 seconds =       0.01 minutes
	total time  =         29 seconds =       0.48 minutes
Total time:
	user time   =     111.44 seconds =       1.86 minutes
	system time =       2.37 seconds =       0.04 minutes
	total time  =        114 seconds =       1.90 minutes
  Constructing Basis Sets for SAPT...

   => Loading Basis Set <=

    Name: (JUN-CC-PVTZ AUX)
    Role: RIFIT
    Keyword: DF_BASIS_SAPT
    atoms 1-2, 11-12, 15  entry C          line   132 file /home/r08543048/miniconda3/share/psi4/basis/jun-cc-pvtz-ri.gbs 
    atoms 3, 13           entry O          line   244 file /home/r08543048/miniconda3/share/psi4/basis/jun-cc-pvtz-ri.gbs 
    atoms 4               entry N          line   188 file /home/r08543048/miniconda3/share/psi4/basis/jun-cc-pvtz-ri.gbs 
    atoms 5-10, 14, 16-19 entry H          line    30 file /home/r08543048/miniconda3/share/psi4/basis/jun-cc-pvtz-ri.gbs 


  //>>>>>>>>>>>>>>>>>>>>>>>>>>>>>>>>>>>//
  //               SAPT0               //
  //<<<<<<<<<<<<<<<<<<<<<<<<<<<<<<<<<<<//


*** tstart() called on r282
*** at Sat Sep 11 01:16:04 2021

        SAPT0  
    Ed Hohenstein
     6 June 2009

      Orbital Information
  --------------------------
    NSO        =       466
    NMO        =       466
    NRI        =      1106
    NOCC A     =        16
    NOCC B     =        16
    FOCC A     =         0
    FOCC B     =         0
    NVIR A     =       450
    NVIR B     =       450

    Elst10,r            =    -0.019932701525 [Eh]
    Exch10              =     0.017461405914 [Eh]
    Exch10 (S^2)        =     0.017334322434 [Eh]

    Iter     Energy [mEh]          dE [mEh]         Residual      Time [s]
       1      -3.64442043       3.644420427      10.269681660             1
       2      -4.52085095       0.876430520       5.488669488             1
       3      -4.66080554       0.139954598       1.562701984             2
       4      -4.62291045      -0.037895091       0.610597189             3
       5      -4.62111760      -0.001792849       0.230457416             4
       6      -4.62450040       0.003382797       0.084178977             4
       7      -4.62489816       0.000397761       0.020727068             5
       8      -4.62460635      -0.000291814       0.005354550             6
       9      -4.62458222      -0.000024125       0.001399588             7
      10      -4.62459745       0.000015228       0.000383869             8
      11      -4.62459844       0.000000988       0.000082386             8
      12      -4.62459747      -0.000000972       0.000025507             9
      13      -4.62459757       0.000000104       0.000010538            10
      14      -4.62459764       0.000000073       0.000003607            11
      15      -4.62459762      -0.000000027       0.000001197            11
      16      -4.62459761      -0.000000004       0.000000353            12

    CHF Iterations converged


    Iter     Energy [mEh]          dE [mEh]         Residual      Time [s]
       1      -4.26810198       4.268101984      19.332945154             1
       2      -4.46359535       0.195493370       7.273538073             2
       3      -5.03106803       0.567472673       2.452823648             3
       4      -5.05186318       0.020795156       1.029644768             3
       5      -5.01883834      -0.033024841       0.307999981             4
       6      -5.02137058       0.002532238       0.091472571             5
       7      -5.02316830       0.001797722       0.020839106             6
       8      -5.02300264      -0.000165662       0.005671595             6
       9      -5.02292970      -0.000072937       0.001899486             7
      10      -5.02294241       0.000012705       0.001309886             8
      11      -5.02295397       0.000011559       0.000430957             9
      12      -5.02294779      -0.000006178       0.000112653            10
      13      -5.02294789       0.000000097       0.000031095            10
      14      -5.02294816       0.000000273       0.000009598            11
      15      -5.02294816       0.000000004       0.000002625            12
      16      -5.02294814      -0.000000025       0.000000742            13

    CHF Iterations converged

    Ind20,r (A<-B)      =    -0.004624597614 [Eh]
    Ind20,r (B<-A)      =    -0.005022948140 [Eh]
    Ind20,r             =    -0.009647545753 [Eh]
    Exch-Ind20,r (A<-B) =     0.003553554310 [Eh]
    Exch-Ind20,r (B<-A) =     0.002200109135 [Eh]
    Exch-Ind20,r        =     0.005753663445 [Eh]
    Disp20              =    -0.010725337773 [Eh]
    Disp20 (SS)         =    -0.005362668887 [Eh]
    Disp20 (OS)         =    -0.005362668887 [Eh]
    Exch-Disp20         =     0.001593009390 [Eh]
    Exch-Disp20 (SS)    =     0.000997276479 [Eh]
    Exch-Disp20 (OS)    =     0.000595732911 [Eh]

    SAPT Results 
  --------------------------------------------------------------------------------------------------------
    Electrostatics                -19.93270152 [mEh]     -12.50795904 [kcal/mol]     -52.33330064 [kJ/mol]
      Elst10,r                    -19.93270152 [mEh]     -12.50795904 [kcal/mol]     -52.33330064 [kJ/mol]

    Exchange                       17.46140591 [mEh]      10.95719764 [kcal/mol]      45.84491491 [kJ/mol]
      Exch10                       17.46140591 [mEh]      10.95719764 [kcal/mol]      45.84491491 [kJ/mol]
      Exch10(S^2)                  17.33432243 [mEh]      10.87745155 [kcal/mol]      45.51125728 [kJ/mol]

    Induction                      -6.07884789 [mEh]      -3.81453464 [kcal/mol]     -15.96001293 [kJ/mol]
      Ind20,r                      -9.64754575 [mEh]      -6.05392636 [kcal/mol]     -25.32962789 [kJ/mol]
      Exch-Ind20,r                  5.75366344 [mEh]       3.61047832 [kcal/mol]      15.10624129 [kJ/mol]
      delta HF,r (2)               -2.18496558 [mEh]      -1.37108660 [kcal/mol]      -5.73662634 [kJ/mol]

    Dispersion                     -9.13232838 [mEh]      -5.73062258 [kcal/mol]     -23.97692487 [kJ/mol]
      Disp20                      -10.72533777 [mEh]      -6.73025106 [kcal/mol]     -28.15937044 [kJ/mol]
      Exch-Disp20                   1.59300939 [mEh]       0.99962848 [kcal/mol]       4.18244558 [kJ/mol]
      Disp20 (SS)                  -5.36266889 [mEh]      -3.36512553 [kcal/mol]     -14.07968522 [kJ/mol]
      Disp20 (OS)                  -5.36266889 [mEh]      -3.36512553 [kcal/mol]     -14.07968522 [kJ/mol]
      Exch-Disp20 (SS)              0.99727648 [mEh]       0.62580044 [kcal/mol]       2.61834903 [kJ/mol]
      Exch-Disp20 (OS)              0.59573291 [mEh]       0.37382805 [kcal/mol]       1.56409654 [kJ/mol]

  Total HF                         -8.55014350 [mEh]      -5.36529605 [kcal/mol]     -22.44839866 [kJ/mol]
  Total SAPT0                     -17.68247188 [mEh]     -11.09591863 [kcal/mol]     -46.42532353 [kJ/mol]

  Special recipe for scaled SAPT0 (see Manual):
    Electrostatics sSAPT0         -19.93270152 [mEh]     -12.50795904 [kcal/mol]     -52.33330064 [kJ/mol]
    Exchange sSAPT0                17.46140591 [mEh]      10.95719764 [kcal/mol]      45.84491491 [kJ/mol]
    Induction sSAPT0               -5.95137201 [mEh]      -3.73454232 [kcal/mol]     -15.62532507 [kJ/mol]
    Dispersion sSAPT0              -9.09703430 [mEh]      -5.70847521 [kcal/mol]     -23.88426027 [kJ/mol]
  Total sSAPT0                    -17.51970193 [mEh]     -10.99377894 [kcal/mol]     -45.99797107 [kJ/mol]
  --------------------------------------------------------------------------------------------------------

*** tstop() called on r282 at Sat Sep 11 01:17:44 2021
Module time:
	user time   =      83.68 seconds =       1.39 minutes
	system time =      15.89 seconds =       0.26 minutes
	total time  =        100 seconds =       1.67 minutes
Total time:
	user time   =     195.25 seconds =       3.25 minutes
	system time =      18.26 seconds =       0.30 minutes
	total time  =        214 seconds =       3.57 minutes

    Psi4 stopped on: Saturday, 11 September 2021 01:17AM
    Psi4 wall time for execution: 0:03:33.79

*** Psi4 exiting successfully. Buy a developer a beer!
