
    -----------------------------------------------------------------------
          Psi4: An Open-Source Ab Initio Electronic Structure Package
                               Psi4 1.3.2 release

                         Git: Rev {HEAD} ecbda83 


    R. M. Parrish, L. A. Burns, D. G. A. Smith, A. C. Simmonett,
    A. E. DePrince III, E. G. Hohenstein, U. Bozkaya, A. Yu. Sokolov,
    R. Di Remigio, R. M. Richard, J. F. Gonthier, A. M. James,
    H. R. McAlexander, A. Kumar, M. Saitow, X. Wang, B. P. Pritchard,
    P. Verma, H. F. Schaefer III, K. Patkowski, R. A. King, E. F. Valeev,
    F. A. Evangelista, J. M. Turney, T. D. Crawford, and C. D. Sherrill,
    J. Chem. Theory Comput. 13(7) pp 3185--3197 (2017).
    (doi: 10.1021/acs.jctc.7b00174)


                         Additional Contributions by
    P. Kraus, H. Kruse, M. H. Lechner, M. C. Schieber, R. A. Shaw,
    A. Alenaizan, R. Galvelis, Z. L. Glick, S. Lehtola, and J. P. Misiewicz

    -----------------------------------------------------------------------


    Psi4 started on: Thursday, 09 September 2021 11:50AM

    Process ID: 53938
    Host:       r282
    PSIDATADIR: /home/r08543048/miniconda3/share/psi4
    Memory:     500.0 MiB
    Threads:    1
    
  ==> Input File <==

--------------------------------------------------------------------------
# Any line starting with the # character is a comment line
#! Sample  computation

memory 22 gb

molecule Dimer {
 
0 1                               
 C    2.26336800    1.63905900    0.23410500
 C    1.92366600    0.55201100   -0.19483600
 C    1.51789100   -0.76753000   -0.66951700
 C    1.50124500   -1.80372700    0.45572500
 H    2.56466200    2.59062900    0.59663800
 H    0.52368500   -0.69906400   -1.11608000
 H    2.20110200   -1.08378200   -1.46002800
 H    1.19970400   -2.77556000    0.06747300
 H    2.48809500   -1.89681900    0.90628300
 H    0.79332800   -1.51464400    1.23059600













 
 --
0 1
 C    -2.26135700   -1.63900500   -0.23809800
 C    -1.92253700   -0.55258400    0.19310600
 C    -1.51787400    0.76631200    0.67049100
 C    -1.50355000    1.80515800   -0.45234500
 H    -2.56190000   -2.59005700   -0.60262800
 H    -2.20070400    1.07991100    1.46239300
 H    -0.52319500    0.69795000    1.11599800
 H    -1.20247000    2.77636800   -0.06217700
 H    -0.79637200    1.51853400   -1.22879900
 H    -2.49104800    1.89837500   -0.90145200













 
 
 
units angstrom

no_reorient
symmetry c1
}

set globals{
  basis jun-cc-pVTZ
  scf_type DF 
  freeze_core True
}

energy('sapt0')


--------------------------------------------------------------------------

  Memory set to  20.489 GiB by Python driver.

  //>>>>>>>>>>>>>>>>>>>>>>>>>>>>>>>>>>>//
  //              Dimer HF             //
  //<<<<<<<<<<<<<<<<<<<<<<<<<<<<<<<<<<<//


*** tstart() called on r282
*** at Thu Sep  9 11:50:07 2021

   => Loading Basis Set <=

    Name: JUN-CC-PVTZ
    Role: ORBITAL
    Keyword: BASIS
    atoms 1-4, 11-14  entry C          line   217 file /home/r08543048/miniconda3/share/psi4/basis/jun-cc-pvtz.gbs 
    atoms 5-10, 15-20 entry H          line    36 file /home/r08543048/miniconda3/share/psi4/basis/jun-cc-pvtz.gbs 


         ---------------------------------------------------------
                                   SCF
               by Justin Turney, Rob Parrish, Andy Simmonett
                          and Daniel G. A. Smith
                              RHF Reference
                        1 Threads,  20980 MiB Core
         ---------------------------------------------------------

  ==> Geometry <==

    Molecular point group: c1
    Full point group: C1

    Geometry (in Angstrom), charge = 0, multiplicity = 1:

       Center              X                  Y                   Z               Mass       
    ------------   -----------------  -----------------  -----------------  -----------------
         C            2.263321087172     1.639075805704     0.234180366896    12.000000000000
         C            1.923619087172     0.552027805704    -0.194760633104    12.000000000000
         C            1.517844087172    -0.767513194296    -0.669441633104    12.000000000000
         C            1.501198087172    -1.803710194296     0.455800366896    12.000000000000
         H            2.564615087172     2.590645805704     0.596713366896     1.007825032230
         H            0.523638087172    -0.699047194296    -1.116004633104     1.007825032230
         H            2.201055087172    -1.083765194296    -1.459952633104     1.007825032230
         H            1.199657087172    -2.775543194296     0.067548366896     1.007825032230
         H            2.488048087172    -1.896802194296     0.906358366896     1.007825032230
         H            0.793281087172    -1.514627194296     1.230671366896     1.007825032230
         C           -2.261403912828    -1.638988194296    -0.238022633104    12.000000000000
         C           -1.922583912828    -0.552567194296     0.193181366896    12.000000000000
         C           -1.517920912828     0.766328805704     0.670566366896    12.000000000000
         C           -1.503596912828     1.805174805704    -0.452269633104    12.000000000000
         H           -2.561946912828    -2.590040194296    -0.602552633104     1.007825032230
         H           -2.200750912828     1.079927805704     1.462468366896     1.007825032230
         H           -0.523241912828     0.697966805704     1.116073366896     1.007825032230
         H           -1.202516912828     2.776384805704    -0.062101633104     1.007825032230
         H           -0.796418912828     1.518550805704    -1.228723633104     1.007825032230
         H           -2.491094912828     1.898391805704    -0.901376633104     1.007825032230

  Running in c1 symmetry.

  Rotational constants: A =      0.07089  B =      0.04298  C =      0.02959 [cm^-1]
  Rotational constants: A =   2125.21036  B =   1288.43074  C =    887.15424 [MHz]
  Nuclear repulsion =  323.174695981882962

  Charge       = 0
  Multiplicity = 1
  Electrons    = 60
  Nalpha       = 30
  Nbeta        = 30

  ==> Algorithm <==

  SCF Algorithm Type is DF.
  DIIS enabled.
  MOM disabled.
  Fractional occupation disabled.
  Guess Type is SAD.
  Energy threshold   = 1.00e-08
  Density threshold  = 1.00e-08
  Integral threshold = 0.00e+00

  ==> Primary Basis <==

  Basis Set: JUN-CC-PVTZ
    Blend: JUN-CC-PVTZ
    Number of shells: 176
    Number of basis function: 480
    Number of Cartesian functions: 540
    Spherical Harmonics?: true
    Max angular momentum: 3

   => Loading Basis Set <=

    Name: (JUN-CC-PVTZ AUX)
    Role: JKFIT
    Keyword: DF_BASIS_SCF
    atoms 1-4, 11-14  entry C          line   152 file /home/r08543048/miniconda3/share/psi4/basis/jun-cc-pvtz-jkfit.gbs 
    atoms 5-10, 15-20 entry H          line    70 file /home/r08543048/miniconda3/share/psi4/basis/jun-cc-pvtz-jkfit.gbs 

  ==> Pre-Iterations <==

   -------------------------------------------------------
    Irrep   Nso     Nmo     Nalpha   Nbeta   Ndocc  Nsocc
   -------------------------------------------------------
     A        480     480       0       0       0       0
   -------------------------------------------------------
    Total     480     480      30      30      30       0
   -------------------------------------------------------

  ==> Integral Setup <==

  ==> DiskDFJK: Density-Fitted J/K Matrices <==

    J tasked:                  Yes
    K tasked:                  Yes
    wK tasked:                  No
    OpenMP threads:              1
    Integrals threads:           1
    Memory [MiB]:            15735
    Algorithm:                Core
    Integral Cache:           SAVE
    Schwarz Cutoff:          1E-12
    Fitting Condition:       1E-10

   => Auxiliary Basis Set <=

  Basis Set: (JUN-CC-PVTZ AUX)
    Blend: JUN-CC-PVTZ-JKFIT
    Number of shells: 352
    Number of basis function: 1120
    Number of Cartesian functions: 1348
    Spherical Harmonics?: true
    Max angular momentum: 4

  Minimum eigenvalue in the overlap matrix is 2.0619759619E-05.
  Using Symmetric Orthogonalization.

  SCF Guess: Superposition of Atomic Densities via on-the-fly atomic UHF.

  ==> Iterations <==

                           Total Energy        Delta E     RMS |[F,P]|

   @DF-RHF iter SAD:  -308.09324201301666   -3.08093e+02   0.00000e+00 
   @DF-RHF iter   1:  -309.64372438134899   -1.55048e+00   1.37092e-03 DIIS
   @DF-RHF iter   2:  -309.86516079484312   -2.21436e-01   5.66641e-04 DIIS
   @DF-RHF iter   3:  -309.90319160372070   -3.80308e-02   1.53943e-04 DIIS
   @DF-RHF iter   4:  -309.90662382315338   -3.43222e-03   7.99788e-05 DIIS
   @DF-RHF iter   5:  -309.90751568631879   -8.91863e-04   1.09459e-05 DIIS
   @DF-RHF iter   6:  -309.90754128866467   -2.56023e-05   3.03431e-06 DIIS
   @DF-RHF iter   7:  -309.90754321377426   -1.92511e-06   8.20726e-07 DIIS
   @DF-RHF iter   8:  -309.90754348172663   -2.67952e-07   3.64929e-07 DIIS
   @DF-RHF iter   9:  -309.90754357083711   -8.91105e-08   1.86794e-07 DIIS
   @DF-RHF iter  10:  -309.90754360335552   -3.25184e-08   6.03999e-08 DIIS
   @DF-RHF iter  11:  -309.90754360599857   -2.64305e-09   1.74364e-08 DIIS
   @DF-RHF iter  12:  -309.90754360614011   -1.41540e-10   4.49337e-09 DIIS
  Energy and wave function converged.


  ==> Post-Iterations <==

    Orbital Energies [Eh]
    ---------------------

    Doubly Occupied:                                                      

       1A    -11.248555     2A    -11.248524     3A    -11.237730  
       4A    -11.237715     5A    -11.222945     6A    -11.222929  
       7A    -11.219879     8A    -11.219862     9A     -1.083087  
      10A     -1.076076    11A     -0.992798    12A     -0.989058  
      13A     -0.872971    14A     -0.871914    15A     -0.719163  
      16A     -0.718066    17A     -0.641842    18A     -0.640436  
      19A     -0.638682    20A     -0.614388    21A     -0.548653  
      22A     -0.548601    23A     -0.521630    24A     -0.519117  
      25A     -0.515223    26A     -0.507744    27A     -0.389973  
      28A     -0.382425    29A     -0.380132    30A     -0.373187  

    Virtual:                                                              

      31A      0.044308    32A      0.048118    33A      0.054380  
      34A      0.057399    35A      0.066497    36A      0.071921  
      37A      0.079788    38A      0.086384    39A      0.091097  
      40A      0.093894    41A      0.104691    42A      0.106831  
      43A      0.118460    44A      0.123013    45A      0.123992  
      46A      0.126375    47A      0.140672    48A      0.141016  
      49A      0.145245    50A      0.155136    51A      0.164145  
      52A      0.171977    53A      0.179757    54A      0.181393  
      55A      0.185272    56A      0.185859    57A      0.190822  
      58A      0.198985    59A      0.203351    60A      0.204203  
      61A      0.206887    62A      0.213494    63A      0.214869  
      64A      0.217564    65A      0.239728    66A      0.239924  
      67A      0.273442    68A      0.278383    69A      0.284033  
      70A      0.290464    71A      0.299301    72A      0.304323  
      73A      0.310464    74A      0.315490    75A      0.319131  
      76A      0.321600    77A      0.330851    78A      0.334693  
      79A      0.340685    80A      0.346893    81A      0.355522  
      82A      0.368025    83A      0.373324    84A      0.375725  
      85A      0.385819    86A      0.386623    87A      0.390621  
      88A      0.395523    89A      0.403182    90A      0.413291  
      91A      0.419431    92A      0.420438    93A      0.422594  
      94A      0.431551    95A      0.434614    96A      0.452375  
      97A      0.458029    98A      0.465222    99A      0.477751  
     100A      0.480502   101A      0.481292   102A      0.483752  
     103A      0.505102   104A      0.508538   105A      0.509878  
     106A      0.512163   107A      0.519557   108A      0.529821  
     109A      0.533597   110A      0.538544   111A      0.541072  
     112A      0.546823   113A      0.549501   114A      0.562400  
     115A      0.565193   116A      0.585607   117A      0.602551  
     118A      0.613529   119A      0.615437   120A      0.628546  
     121A      0.629566   122A      0.651993   123A      0.664784  
     124A      0.668907   125A      0.674341   126A      0.690867  
     127A      0.709050   128A      0.715476   129A      0.731856  
     130A      0.747949   131A      0.757530   132A      0.772132  
     133A      0.774839   134A      0.790123   135A      0.797286  
     136A      0.810993   137A      0.822863   138A      0.824148  
     139A      0.844166   140A      0.846367   141A      0.858403  
     142A      0.861127   143A      0.871451   144A      0.876092  
     145A      0.896065   146A      0.904533   147A      0.906366  
     148A      0.910362   149A      0.923372   150A      0.943812  
     151A      0.947330   152A      0.948954   153A      0.964372  
     154A      0.966054   155A      0.979984   156A      0.984977  
     157A      1.001224   158A      1.005718   159A      1.023658  
     160A      1.032417   161A      1.042649   162A      1.049308  
     163A      1.060814   164A      1.070528   165A      1.090867  
     166A      1.094705   167A      1.104493   168A      1.116309  
     169A      1.124163   170A      1.137774   171A      1.149951  
     172A      1.159628   173A      1.166212   174A      1.185896  
     175A      1.190516   176A      1.204625   177A      1.206638  
     178A      1.208816   179A      1.228397   180A      1.232786  
     181A      1.243918   182A      1.259429   183A      1.262446  
     184A      1.264950   185A      1.273719   186A      1.282142  
     187A      1.306589   188A      1.317092   189A      1.345983  
     190A      1.371404   191A      1.377660   192A      1.409436  
     193A      1.410381   194A      1.436781   195A      1.441218  
     196A      1.449419   197A      1.456112   198A      1.468204  
     199A      1.471290   200A      1.489675   201A      1.501213  
     202A      1.507765   203A      1.519057   204A      1.543001  
     205A      1.544546   206A      1.548445   207A      1.559485  
     208A      1.579202   209A      1.585969   210A      1.587417  
     211A      1.612237   212A      1.634297   213A      1.640886  
     214A      1.651812   215A      1.664370   216A      1.673405  
     217A      1.689931   218A      1.693279   219A      1.728304  
     220A      1.735478   221A      1.747690   222A      1.755930  
     223A      1.773201   224A      1.775696   225A      1.793095  
     226A      1.825636   227A      1.831390   228A      1.844937  
     229A      1.859212   230A      1.862055   231A      1.893432  
     232A      1.906592   233A      1.928576   234A      1.947338  
     235A      1.977472   236A      2.001045   237A      2.123356  
     238A      2.136468   239A      2.146803   240A      2.156322  
     241A      2.399848   242A      2.415635   243A      2.556499  
     244A      2.569032   245A      2.616752   246A      2.654795  
     247A      2.670645   248A      2.694819   249A      2.742781  
     250A      2.744723   251A      2.754817   252A      2.757717  
     253A      2.796223   254A      2.802703   255A      2.816420  
     256A      2.817697   257A      2.843333   258A      2.843435  
     259A      2.869948   260A      2.878170   261A      2.886620  
     262A      2.886752   263A      2.896289   264A      2.908054  
     265A      2.926069   266A      2.928592   267A      2.934025  
     268A      2.950486   269A      2.952990   270A      2.972066  
     271A      2.993502   272A      2.995071   273A      3.003803  
     274A      3.008347   275A      3.028379   276A      3.028948  
     277A      3.039504   278A      3.068386   279A      3.091238  
     280A      3.127759   281A      3.146759   282A      3.147766  
     283A      3.155916   284A      3.164355   285A      3.191883  
     286A      3.202159   287A      3.218636   288A      3.220540  
     289A      3.231826   290A      3.235186   291A      3.248514  
     292A      3.250579   293A      3.262607   294A      3.263642  
     295A      3.279503   296A      3.279766   297A      3.287073  
     298A      3.297299   299A      3.323951   300A      3.338134  
     301A      3.341478   302A      3.351995   303A      3.362067  
     304A      3.369423   305A      3.376166   306A      3.395875  
     307A      3.400662   308A      3.409867   309A      3.423648  
     310A      3.434364   311A      3.436307   312A      3.445066  
     313A      3.447922   314A      3.456691   315A      3.466401  
     316A      3.489462   317A      3.495976   318A      3.497699  
     319A      3.510927   320A      3.512201   321A      3.518330  
     322A      3.525696   323A      3.533083   324A      3.533332  
     325A      3.561955   326A      3.566444   327A      3.580697  
     328A      3.582803   329A      3.592978   330A      3.606945  
     331A      3.621382   332A      3.642761   333A      3.659407  
     334A      3.672490   335A      3.686436   336A      3.693011  
     337A      3.695724   338A      3.699778   339A      3.714293  
     340A      3.725029   341A      3.739883   342A      3.755049  
     343A      3.763936   344A      3.773504   345A      3.796853  
     346A      3.812379   347A      3.829846   348A      3.836092  
     349A      3.854477   350A      3.873076   351A      3.912383  
     352A      3.914166   353A      3.931267   354A      3.943250  
     355A      4.023317   356A      4.030641   357A      4.033440  
     358A      4.056334   359A      4.066886   360A      4.076851  
     361A      4.086825   362A      4.100053   363A      4.116929  
     364A      4.124874   365A      4.157145   366A      4.168588  
     367A      4.184030   368A      4.187603   369A      4.207880  
     370A      4.221492   371A      4.238820   372A      4.246959  
     373A      4.288875   374A      4.291190   375A      4.307667  
     376A      4.309993   377A      4.319503   378A      4.323946  
     379A      4.330929   380A      4.333420   381A      4.367285  
     382A      4.377581   383A      4.407847   384A      4.414905  
     385A      4.430573   386A      4.439105   387A      4.459754  
     388A      4.479663   389A      4.487669   390A      4.489586  
     391A      4.524930   392A      4.530734   393A      4.540497  
     394A      4.546367   395A      4.559570   396A      4.566758  
     397A      4.568834   398A      4.579889   399A      4.590793  
     400A      4.594603   401A      4.624260   402A      4.636895  
     403A      4.666965   404A      4.691232   405A      4.698974  
     406A      4.746428   407A      4.767722   408A      4.789957  
     409A      4.794432   410A      4.847201   411A      4.850999  
     412A      4.877891   413A      4.904592   414A      4.907466  
     415A      4.945508   416A      4.966301   417A      5.019386  
     418A      5.021475   419A      5.100547   420A      5.103350  
     421A      5.200355   422A      5.202891   423A      5.258406  
     424A      5.270631   425A      5.289201   426A      5.295583  
     427A      5.301755   428A      5.307027   429A      5.319886  
     430A      5.334490   431A      5.359377   432A      5.365740  
     433A      5.372438   434A      5.384801   435A      5.449341  
     436A      5.452991   437A      5.540708   438A      5.544908  
     439A      5.617396   440A      5.620267   441A      5.708798  
     442A      5.708839   443A      5.723573   444A      5.724135  
     445A      5.740973   446A      5.748931   447A      5.754375  
     448A      5.761718   449A      5.797163   450A      5.810203  
     451A      5.863674   452A      5.882661   453A      5.921194  
     454A      5.930205   455A      5.939072   456A      5.960606  
     457A      6.085403   458A      6.102029   459A      6.353267  
     460A      6.354991   461A      6.367115   462A      6.372213  
     463A      6.420908   464A      6.446351   465A      6.487511  
     466A      6.493111   467A      6.509537   468A      6.526426  
     469A      6.551877   470A      6.612849   471A      6.755419  
     472A      6.766887   473A     10.440827   474A     10.454638  
     475A     14.424322   476A     14.547682   477A     14.571142  
     478A     14.696488   479A     18.450423   480A     18.474058  

    Final Occupation by Irrep:
              A 
    DOCC [    30 ]

  @DF-RHF Final Energy:  -309.90754360614011

   => Energetics <=

    Nuclear Repulsion Energy =            323.1746959818829623
    One-Electron Energy =               -1057.3578704658361858
    Two-Electron Energy =                 424.2756308778131711
    Total Energy =                       -309.9075436061401092

Computation Completed


Properties will be evaluated at   0.000000,   0.000000,   0.000000 [a0]

Properties computed using the SCF density matrix

  Nuclear Dipole Moment: [e a0]
     X:    -0.0053      Y:     0.0019      Z:     0.0086

  Electronic Dipole Moment: [e a0]
     X:     0.0047      Y:    -0.0021      Z:    -0.0081

  Dipole Moment: [e a0]
     X:    -0.0006      Y:    -0.0002      Z:     0.0005     Total:     0.0008

  Dipole Moment: [D]
     X:    -0.0015      Y:    -0.0004      Z:     0.0013     Total:     0.0020


*** tstop() called on r282 at Thu Sep  9 11:51:05 2021
Module time:
	user time   =      57.19 seconds =       0.95 minutes
	system time =       1.31 seconds =       0.02 minutes
	total time  =         58 seconds =       0.97 minutes
Total time:
	user time   =      57.19 seconds =       0.95 minutes
	system time =       1.31 seconds =       0.02 minutes
	total time  =         58 seconds =       0.97 minutes

  //>>>>>>>>>>>>>>>>>>>>>>>>>>>>>>>>>>>//
  //            Monomer A HF           //
  //<<<<<<<<<<<<<<<<<<<<<<<<<<<<<<<<<<<//


*** tstart() called on r282
*** at Thu Sep  9 11:51:05 2021

   => Loading Basis Set <=

    Name: JUN-CC-PVTZ
    Role: ORBITAL
    Keyword: BASIS
    atoms 1-4, 11-14  entry C          line   217 file /home/r08543048/miniconda3/share/psi4/basis/jun-cc-pvtz.gbs 
    atoms 5-10, 15-20 entry H          line    36 file /home/r08543048/miniconda3/share/psi4/basis/jun-cc-pvtz.gbs 


         ---------------------------------------------------------
                                   SCF
               by Justin Turney, Rob Parrish, Andy Simmonett
                          and Daniel G. A. Smith
                              RHF Reference
                        1 Threads,  20980 MiB Core
         ---------------------------------------------------------

  ==> Geometry <==

    Molecular point group: c1
    Full point group: C1

    Geometry (in Angstrom), charge = 0, multiplicity = 1:

       Center              X                  Y                   Z               Mass       
    ------------   -----------------  -----------------  -----------------  -----------------
         C            2.263321087172     1.639075805704     0.234180366896    12.000000000000
         C            1.923619087172     0.552027805704    -0.194760633104    12.000000000000
         C            1.517844087172    -0.767513194296    -0.669441633104    12.000000000000
         C            1.501198087172    -1.803710194296     0.455800366896    12.000000000000
         H            2.564615087172     2.590645805704     0.596713366896     1.007825032230
         H            0.523638087172    -0.699047194296    -1.116004633104     1.007825032230
         H            2.201055087172    -1.083765194296    -1.459952633104     1.007825032230
         H            1.199657087172    -2.775543194296     0.067548366896     1.007825032230
         H            2.488048087172    -1.896802194296     0.906358366896     1.007825032230
         H            0.793281087172    -1.514627194296     1.230671366896     1.007825032230
      Gh(C)          -2.261403912828    -1.638988194296    -0.238022633104    12.000000000000
      Gh(C)          -1.922583912828    -0.552567194296     0.193181366896    12.000000000000
      Gh(C)          -1.517920912828     0.766328805704     0.670566366896    12.000000000000
      Gh(C)          -1.503596912828     1.805174805704    -0.452269633104    12.000000000000
      Gh(H)          -2.561946912828    -2.590040194296    -0.602552633104     1.007825032230
      Gh(H)          -2.200750912828     1.079927805704     1.462468366896     1.007825032230
      Gh(H)          -0.523241912828     0.697966805704     1.116073366896     1.007825032230
      Gh(H)          -1.202516912828     2.776384805704    -0.062101633104     1.007825032230
      Gh(H)          -0.796418912828     1.518550805704    -1.228723633104     1.007825032230
      Gh(H)          -2.491094912828     1.898391805704    -0.901376633104     1.007825032230

  Running in c1 symmetry.

  Rotational constants: A =      0.07089  B =      0.04298  C =      0.02959 [cm^-1]
  Rotational constants: A =   2125.21036  B =   1288.43074  C =    887.15424 [MHz]
  Nuclear repulsion =  102.872199337363028

  Charge       = 0
  Multiplicity = 1
  Electrons    = 30
  Nalpha       = 15
  Nbeta        = 15

  ==> Algorithm <==

  SCF Algorithm Type is DF.
  DIIS enabled.
  MOM disabled.
  Fractional occupation disabled.
  Guess Type is SAD.
  Energy threshold   = 1.00e-08
  Density threshold  = 1.00e-08
  Integral threshold = 0.00e+00

  ==> Primary Basis <==

  Basis Set: JUN-CC-PVTZ
    Blend: JUN-CC-PVTZ
    Number of shells: 176
    Number of basis function: 480
    Number of Cartesian functions: 540
    Spherical Harmonics?: true
    Max angular momentum: 3

   => Loading Basis Set <=

    Name: (JUN-CC-PVTZ AUX)
    Role: JKFIT
    Keyword: DF_BASIS_SCF
    atoms 1-4, 11-14  entry C          line   152 file /home/r08543048/miniconda3/share/psi4/basis/jun-cc-pvtz-jkfit.gbs 
    atoms 5-10, 15-20 entry H          line    70 file /home/r08543048/miniconda3/share/psi4/basis/jun-cc-pvtz-jkfit.gbs 

  ==> Pre-Iterations <==

   -------------------------------------------------------
    Irrep   Nso     Nmo     Nalpha   Nbeta   Ndocc  Nsocc
   -------------------------------------------------------
     A        480     480       0       0       0       0
   -------------------------------------------------------
    Total     480     480      15      15      15       0
   -------------------------------------------------------

  ==> Integral Setup <==

  ==> DiskDFJK: Density-Fitted J/K Matrices <==

    J tasked:                  Yes
    K tasked:                  Yes
    wK tasked:                  No
    OpenMP threads:              1
    Integrals threads:           1
    Memory [MiB]:            15735
    Algorithm:                Core
    Integral Cache:           LOAD
    Schwarz Cutoff:          1E-12
    Fitting Condition:       1E-10

   => Auxiliary Basis Set <=

  Basis Set: (JUN-CC-PVTZ AUX)
    Blend: JUN-CC-PVTZ-JKFIT
    Number of shells: 352
    Number of basis function: 1120
    Number of Cartesian functions: 1348
    Spherical Harmonics?: true
    Max angular momentum: 4

  Minimum eigenvalue in the overlap matrix is 2.0619759619E-05.
  Using Symmetric Orthogonalization.

  SCF Guess: Superposition of Atomic Densities via on-the-fly atomic UHF.

  ==> Iterations <==

                           Total Energy        Delta E     RMS |[F,P]|

   @DF-RHF iter SAD:  -153.95460219351520   -1.53955e+02   0.00000e+00 
   @DF-RHF iter   1:  -154.82137053869675   -8.66768e-01   9.78992e-04 DIIS
   @DF-RHF iter   2:  -154.93437153601087   -1.13001e-01   3.99441e-04 DIIS
   @DF-RHF iter   3:  -154.95336174705079   -1.89902e-02   9.84017e-05 DIIS
   @DF-RHF iter   4:  -154.95489429804428   -1.53255e-03   5.32478e-05 DIIS
   @DF-RHF iter   5:  -154.95528554568878   -3.91248e-04   7.71785e-06 DIIS
   @DF-RHF iter   6:  -154.95529809243089   -1.25467e-05   2.05689e-06 DIIS
   @DF-RHF iter   7:  -154.95529899776838   -9.05337e-07   6.12573e-07 DIIS
   @DF-RHF iter   8:  -154.95529915643988   -1.58671e-07   2.86284e-07 DIIS
   @DF-RHF iter   9:  -154.95529921567450   -5.92346e-08   1.40652e-07 DIIS
   @DF-RHF iter  10:  -154.95529923460069   -1.89262e-08   3.91188e-08 DIIS
   @DF-RHF iter  11:  -154.95529923562398   -1.02330e-09   1.17824e-08 DIIS
   @DF-RHF iter  12:  -154.95529923567349   -4.95106e-11   3.10293e-09 DIIS
  Energy and wave function converged.


  ==> Post-Iterations <==

    Orbital Energies [Eh]
    ---------------------

    Doubly Occupied:                                                      

       1A    -11.253385     2A    -11.236390     3A    -11.224836  
       4A    -11.222327     5A     -1.081325     6A     -0.991015  
       7A     -0.875608     8A     -0.717796     9A     -0.642410  
      10A     -0.630827    11A     -0.552044    12A     -0.524723  
      13A     -0.515776    14A     -0.380132    15A     -0.379948  

    Virtual:                                                              

      16A      0.030092    17A      0.044317    18A      0.049967  
      19A      0.052063    20A      0.063182    21A      0.069686  
      22A      0.076361    23A      0.083486    24A      0.087145  
      25A      0.092884    26A      0.101754    27A      0.105744  
      28A      0.106646    29A      0.116873    30A      0.121762  
      31A      0.122822    32A      0.134473    33A      0.139369  
      34A      0.141537    35A      0.146127    36A      0.149883  
      37A      0.154036    38A      0.164600    39A      0.169656  
      40A      0.173554    41A      0.176156    42A      0.189657  
      43A      0.190589    44A      0.196993    45A      0.203010  
      46A      0.205177    47A      0.213816    48A      0.215492  
      49A      0.233739    50A      0.238324    51A      0.251597  
      52A      0.270615    53A      0.279839    54A      0.284119  
      55A      0.295850    56A      0.302007    57A      0.306678  
      58A      0.313209    59A      0.313905    60A      0.321980  
      61A      0.333850    62A      0.337610    63A      0.339840  
      64A      0.344757    65A      0.352730    66A      0.362274  
      67A      0.368175    68A      0.372947    69A      0.376980  
      70A      0.380354    71A      0.386458    72A      0.392983  
      73A      0.402248    74A      0.411222    75A      0.412869  
      76A      0.417731    77A      0.424521    78A      0.429277  
      79A      0.436960    80A      0.447776    81A      0.454228  
      82A      0.461065    83A      0.471581    84A      0.477374  
      85A      0.479770    86A      0.487571    87A      0.495203  
      88A      0.509823    89A      0.515271    90A      0.519003  
      91A      0.528796    92A      0.538991    93A      0.545006  
      94A      0.548343    95A      0.555473    96A      0.561302  
      97A      0.567561    98A      0.571645    99A      0.587436  
     100A      0.600287   101A      0.601471   102A      0.612878  
     103A      0.617715   104A      0.627545   105A      0.640254  
     106A      0.647063   107A      0.654230   108A      0.658616  
     109A      0.664034   110A      0.677456   111A      0.687541  
     112A      0.699099   113A      0.707029   114A      0.724507  
     115A      0.733013   116A      0.734636   117A      0.748234  
     118A      0.757408   119A      0.768700   120A      0.783281  
     121A      0.789868   122A      0.814524   123A      0.824644  
     124A      0.827162   125A      0.834006   126A      0.843982  
     127A      0.856020   128A      0.872604   129A      0.891674  
     130A      0.897671   131A      0.914164   132A      0.921983  
     133A      0.948185   134A      0.960059   135A      0.968530  
     136A      0.982852   137A      1.015905   138A      1.028515  
     139A      1.033644   140A      1.056441   141A      1.064849  
     142A      1.082407   143A      1.099169   144A      1.116277  
     145A      1.120302   146A      1.126531   147A      1.142371  
     148A      1.153171   149A      1.160841   150A      1.171492  
     151A      1.181274   152A      1.193118   153A      1.210976  
     154A      1.217220   155A      1.233790   156A      1.240508  
     157A      1.249783   158A      1.259872   159A      1.272997  
     160A      1.274802   161A      1.282393   162A      1.287545  
     163A      1.293371   164A      1.310750   165A      1.320240  
     166A      1.336892   167A      1.347524   168A      1.356510  
     169A      1.359425   170A      1.372594   171A      1.377458  
     172A      1.387845   173A      1.395045   174A      1.409218  
     175A      1.416614   176A      1.425749   177A      1.437228  
     178A      1.442037   179A      1.449116   180A      1.467133  
     181A      1.476233   182A      1.488549   183A      1.490114  
     184A      1.510974   185A      1.517371   186A      1.521477  
     187A      1.531315   188A      1.547798   189A      1.561047  
     190A      1.572610   191A      1.575967   192A      1.580761  
     193A      1.592318   194A      1.607882   195A      1.630703  
     196A      1.640595   197A      1.652274   198A      1.661010  
     199A      1.681766   200A      1.683732   201A      1.698937  
     202A      1.716382   203A      1.721857   204A      1.733074  
     205A      1.741096   206A      1.749656   207A      1.775130  
     208A      1.791672   209A      1.802591   210A      1.807168  
     211A      1.828222   212A      1.834521   213A      1.865918  
     214A      1.876742   215A      1.883887   216A      1.904019  
     217A      1.913942   218A      1.935299   219A      1.974630  
     220A      1.985915   221A      2.059857   222A      2.090214  
     223A      2.131886   224A      2.161069   225A      2.213104  
     226A      2.217418   227A      2.220622   228A      2.321596  
     229A      2.344000   230A      2.350130   231A      2.419865  
     232A      2.430083   233A      2.515743   234A      2.533911  
     235A      2.542337   236A      2.570420   237A      2.613834  
     238A      2.657795   239A      2.675119   240A      2.708777  
     241A      2.750578   242A      2.769325   243A      2.814812  
     244A      2.842432   245A      2.856886   246A      2.886893  
     247A      2.895384   248A      2.902516   249A      2.913674  
     250A      2.937091   251A      2.942085   252A      2.953172  
     253A      2.997728   254A      3.008938   255A      3.011117  
     256A      3.038136   257A      3.112057   258A      3.135781  
     259A      3.155334   260A      3.194450   261A      3.208260  
     262A      3.215635   263A      3.228924   264A      3.239807  
     265A      3.268959   266A      3.277729   267A      3.286219  
     268A      3.296899   269A      3.306042   270A      3.310768  
     271A      3.338972   272A      3.349535   273A      3.354183  
     274A      3.367402   275A      3.390226   276A      3.413152  
     277A      3.433137   278A      3.441992   279A      3.457061  
     280A      3.472485   281A      3.490198   282A      3.501170  
     283A      3.509424   284A      3.525573   285A      3.547458  
     286A      3.561476   287A      3.569775   288A      3.572721  
     289A      3.600177   290A      3.612477   291A      3.627990  
     292A      3.640255   293A      3.643488   294A      3.659110  
     295A      3.665592   296A      3.670432   297A      3.679905  
     298A      3.693356   299A      3.704010   300A      3.719215  
     301A      3.727364   302A      3.741655   303A      3.762580  
     304A      3.778033   305A      3.803442   306A      3.815283  
     307A      3.827862   308A      3.835619   309A      3.843940  
     310A      3.863760   311A      3.882457   312A      3.899535  
     313A      3.906276   314A      3.923023   315A      3.955202  
     316A      3.970093   317A      3.989669   318A      4.024578  
     319A      4.030111   320A      4.036950   321A      4.044582  
     322A      4.060000   323A      4.075676   324A      4.083077  
     325A      4.100402   326A      4.113097   327A      4.129840  
     328A      4.151885   329A      4.172160   330A      4.177988  
     331A      4.191157   332A      4.203825   333A      4.213485  
     334A      4.217958   335A      4.239551   336A      4.268548  
     337A      4.280232   338A      4.294121   339A      4.300373  
     340A      4.306342   341A      4.323495   342A      4.339280  
     343A      4.358130   344A      4.370593   345A      4.406897  
     346A      4.419869   347A      4.429706   348A      4.454072  
     349A      4.463228   350A      4.471473   351A      4.489458  
     352A      4.505098   353A      4.522841   354A      4.534310  
     355A      4.539996   356A      4.545235   357A      4.553895  
     358A      4.561172   359A      4.579309   360A      4.581106  
     361A      4.603873   362A      4.624679   363A      4.626172  
     364A      4.655413   365A      4.665477   366A      4.674902  
     367A      4.681411   368A      4.686395   369A      4.716584  
     370A      4.724210   371A      4.746357   372A      4.750756  
     373A      4.759988   374A      4.764353   375A      4.788155  
     376A      4.797888   377A      4.827839   378A      4.835494  
     379A      4.846655   380A      4.866129   381A      4.867542  
     382A      4.878922   383A      4.887810   384A      4.897064  
     385A      4.921284   386A      4.923578   387A      4.927862  
     388A      4.954759   389A      4.967421   390A      4.980957  
     391A      5.007718   392A      5.013977   393A      5.031249  
     394A      5.042083   395A      5.078889   396A      5.100756  
     397A      5.148478   398A      5.172588   399A      5.187047  
     400A      5.194589   401A      5.221090   402A      5.233313  
     403A      5.263402   404A      5.292152   405A      5.299573  
     406A      5.322898   407A      5.329170   408A      5.346226  
     409A      5.355159   410A      5.371005   411A      5.385938  
     412A      5.447686   413A      5.477665   414A      5.541958  
     415A      5.600797   416A      5.622335   417A      5.659912  
     418A      5.706324   419A      5.721006   420A      5.729685  
     421A      5.748612   422A      5.757933   423A      5.767844  
     424A      5.798880   425A      5.858176   426A      5.876063  
     427A      5.919124   428A      5.926592   429A      5.939907  
     430A      5.942869   431A      6.030214   432A      6.066053  
     433A      6.093910   434A      6.143743   435A      6.288839  
     436A      6.307830   437A      6.346557   438A      6.353954  
     439A      6.365142   440A      6.372759   441A      6.405953  
     442A      6.414043   443A      6.416890   444A      6.441968  
     445A      6.477440   446A      6.493399   447A      6.514642  
     448A      6.521131   449A      6.588802   450A      6.760054  
     451A      6.781403   452A      6.917023   453A      6.975324  
     454A      7.026760   455A      7.123778   456A      7.307007  
     457A      7.341694   458A      7.383593   459A      7.477298  
     460A      7.563327   461A      7.670892   462A      7.714662  
     463A      7.854282   464A      7.892928   465A      7.990494  
     466A      8.053228   467A      8.297276   468A      8.530659  
     469A      9.622372   470A      9.903021   471A     10.455629  
     472A     10.972574   473A     11.668226   474A     14.487120  
     475A     14.625382   476A     18.463263   477A     37.211268  
     478A     45.462564   479A     46.120233   480A     53.364847  

    Final Occupation by Irrep:
              A 
    DOCC [    15 ]

  @DF-RHF Final Energy:  -154.95529923567349

   => Energetics <=

    Nuclear Repulsion Energy =            102.8721993373630283
    One-Electron Energy =                -411.1979125639632571
    Two-Electron Energy =                 153.3704139909267212
    Total Energy =                       -154.9552992356734933

Computation Completed


Properties will be evaluated at   0.000000,   0.000000,   0.000000 [a0]

Properties computed using the SCF density matrix

  Nuclear Dipole Moment: [e a0]
     X:   100.1672      Y:   -14.4750      Z:    -1.5496

  Electronic Dipole Moment: [e a0]
     X:  -100.2546      Y:    14.1569      Z:     1.4835

  Dipole Moment: [e a0]
     X:    -0.0874      Y:    -0.3182      Z:    -0.0660     Total:     0.3365

  Dipole Moment: [D]
     X:    -0.2223      Y:    -0.8087      Z:    -0.1678     Total:     0.8553


*** tstop() called on r282 at Thu Sep  9 11:51:40 2021
Module time:
	user time   =      34.31 seconds =       0.57 minutes
	system time =       0.62 seconds =       0.01 minutes
	total time  =         35 seconds =       0.58 minutes
Total time:
	user time   =      91.50 seconds =       1.52 minutes
	system time =       1.93 seconds =       0.03 minutes
	total time  =         93 seconds =       1.55 minutes

  //>>>>>>>>>>>>>>>>>>>>>>>>>>>>>>>>>>>//
  //            Monomer B HF           //
  //<<<<<<<<<<<<<<<<<<<<<<<<<<<<<<<<<<<//


*** tstart() called on r282
*** at Thu Sep  9 11:51:40 2021

   => Loading Basis Set <=

    Name: JUN-CC-PVTZ
    Role: ORBITAL
    Keyword: BASIS
    atoms 1-4, 11-14  entry C          line   217 file /home/r08543048/miniconda3/share/psi4/basis/jun-cc-pvtz.gbs 
    atoms 5-10, 15-20 entry H          line    36 file /home/r08543048/miniconda3/share/psi4/basis/jun-cc-pvtz.gbs 


         ---------------------------------------------------------
                                   SCF
               by Justin Turney, Rob Parrish, Andy Simmonett
                          and Daniel G. A. Smith
                              RHF Reference
                        1 Threads,  20980 MiB Core
         ---------------------------------------------------------

  ==> Geometry <==

    Molecular point group: c1
    Full point group: C1

    Geometry (in Angstrom), charge = 0, multiplicity = 1:

       Center              X                  Y                   Z               Mass       
    ------------   -----------------  -----------------  -----------------  -----------------
      Gh(C)           2.263321087172     1.639075805704     0.234180366896    12.000000000000
      Gh(C)           1.923619087172     0.552027805704    -0.194760633104    12.000000000000
      Gh(C)           1.517844087172    -0.767513194296    -0.669441633104    12.000000000000
      Gh(C)           1.501198087172    -1.803710194296     0.455800366896    12.000000000000
      Gh(H)           2.564615087172     2.590645805704     0.596713366896     1.007825032230
      Gh(H)           0.523638087172    -0.699047194296    -1.116004633104     1.007825032230
      Gh(H)           2.201055087172    -1.083765194296    -1.459952633104     1.007825032230
      Gh(H)           1.199657087172    -2.775543194296     0.067548366896     1.007825032230
      Gh(H)           2.488048087172    -1.896802194296     0.906358366896     1.007825032230
      Gh(H)           0.793281087172    -1.514627194296     1.230671366896     1.007825032230
         C           -2.261403912828    -1.638988194296    -0.238022633104    12.000000000000
         C           -1.922583912828    -0.552567194296     0.193181366896    12.000000000000
         C           -1.517920912828     0.766328805704     0.670566366896    12.000000000000
         C           -1.503596912828     1.805174805704    -0.452269633104    12.000000000000
         H           -2.561946912828    -2.590040194296    -0.602552633104     1.007825032230
         H           -2.200750912828     1.079927805704     1.462468366896     1.007825032230
         H           -0.523241912828     0.697966805704     1.116073366896     1.007825032230
         H           -1.202516912828     2.776384805704    -0.062101633104     1.007825032230
         H           -0.796418912828     1.518550805704    -1.228723633104     1.007825032230
         H           -2.491094912828     1.898391805704    -0.901376633104     1.007825032230

  Running in c1 symmetry.

  Rotational constants: A =      0.07089  B =      0.04298  C =      0.02959 [cm^-1]
  Rotational constants: A =   2125.21036  B =   1288.43074  C =    887.15424 [MHz]
  Nuclear repulsion =  102.872521196461761

  Charge       = 0
  Multiplicity = 1
  Electrons    = 30
  Nalpha       = 15
  Nbeta        = 15

  ==> Algorithm <==

  SCF Algorithm Type is DF.
  DIIS enabled.
  MOM disabled.
  Fractional occupation disabled.
  Guess Type is SAD.
  Energy threshold   = 1.00e-08
  Density threshold  = 1.00e-08
  Integral threshold = 0.00e+00

  ==> Primary Basis <==

  Basis Set: JUN-CC-PVTZ
    Blend: JUN-CC-PVTZ
    Number of shells: 176
    Number of basis function: 480
    Number of Cartesian functions: 540
    Spherical Harmonics?: true
    Max angular momentum: 3

   => Loading Basis Set <=

    Name: (JUN-CC-PVTZ AUX)
    Role: JKFIT
    Keyword: DF_BASIS_SCF
    atoms 1-4, 11-14  entry C          line   152 file /home/r08543048/miniconda3/share/psi4/basis/jun-cc-pvtz-jkfit.gbs 
    atoms 5-10, 15-20 entry H          line    70 file /home/r08543048/miniconda3/share/psi4/basis/jun-cc-pvtz-jkfit.gbs 

  ==> Pre-Iterations <==

   -------------------------------------------------------
    Irrep   Nso     Nmo     Nalpha   Nbeta   Ndocc  Nsocc
   -------------------------------------------------------
     A        480     480       0       0       0       0
   -------------------------------------------------------
    Total     480     480      15      15      15       0
   -------------------------------------------------------

  ==> Integral Setup <==

  ==> DiskDFJK: Density-Fitted J/K Matrices <==

    J tasked:                  Yes
    K tasked:                  Yes
    wK tasked:                  No
    OpenMP threads:              1
    Integrals threads:           1
    Memory [MiB]:            15735
    Algorithm:                Core
    Integral Cache:           LOAD
    Schwarz Cutoff:          1E-12
    Fitting Condition:       1E-10

   => Auxiliary Basis Set <=

  Basis Set: (JUN-CC-PVTZ AUX)
    Blend: JUN-CC-PVTZ-JKFIT
    Number of shells: 352
    Number of basis function: 1120
    Number of Cartesian functions: 1348
    Spherical Harmonics?: true
    Max angular momentum: 4

  Minimum eigenvalue in the overlap matrix is 2.0619759619E-05.
  Using Symmetric Orthogonalization.

  SCF Guess: Superposition of Atomic Densities via on-the-fly atomic UHF.

  ==> Iterations <==

                           Total Energy        Delta E     RMS |[F,P]|

   @DF-RHF iter SAD:  -153.95461692870470   -1.53955e+02   0.00000e+00 
   @DF-RHF iter   1:  -154.82137020410232   -8.66753e-01   9.78999e-04 DIIS
   @DF-RHF iter   2:  -154.93437200718097   -1.13002e-01   3.99448e-04 DIIS
   @DF-RHF iter   3:  -154.95336281018024   -1.89908e-02   9.84034e-05 DIIS
   @DF-RHF iter   4:  -154.95489539320027   -1.53258e-03   5.32479e-05 DIIS
   @DF-RHF iter   5:  -154.95528664491735   -3.91252e-04   7.71767e-06 DIIS
   @DF-RHF iter   6:  -154.95529919138946   -1.25465e-05   2.05682e-06 DIIS
   @DF-RHF iter   7:  -154.95530009666868   -9.05279e-07   6.12565e-07 DIIS
   @DF-RHF iter   8:  -154.95530025533731   -1.58669e-07   2.86280e-07 DIIS
   @DF-RHF iter   9:  -154.95530031457020   -5.92329e-08   1.40649e-07 DIIS
   @DF-RHF iter  10:  -154.95530033349365   -1.89235e-08   3.91162e-08 DIIS
   @DF-RHF iter  11:  -154.95530033451405   -1.02040e-09   1.17815e-08 DIIS
   @DF-RHF iter  12:  -154.95530033456612   -5.20686e-11   3.10280e-09 DIIS
  Energy and wave function converged.


  ==> Post-Iterations <==

    Orbital Energies [Eh]
    ---------------------

    Doubly Occupied:                                                      

       1A    -11.253383     2A    -11.236387     3A    -11.224837  
       4A    -11.222325     5A     -1.081326     6A     -0.991015  
       7A     -0.875611     8A     -0.717794     9A     -0.642412  
      10A     -0.630822    11A     -0.552044    12A     -0.524729  
      13A     -0.515774    14A     -0.380133    15A     -0.379948  

    Virtual:                                                              

      16A      0.030091    17A      0.044322    18A      0.049971  
      19A      0.052067    20A      0.063181    21A      0.069684  
      22A      0.076372    23A      0.083482    24A      0.087136  
      25A      0.092884    26A      0.101710    27A      0.105794  
      28A      0.106652    29A      0.116870    30A      0.121754  
      31A      0.122829    32A      0.134447    33A      0.139332  
      34A      0.141617    35A      0.146187    36A      0.149807  
      37A      0.154068    38A      0.164562    39A      0.169666  
      40A      0.173522    41A      0.176192    42A      0.189660  
      43A      0.190599    44A      0.197017    45A      0.202973  
      46A      0.205169    47A      0.213841    48A      0.215509  
      49A      0.233725    50A      0.238337    51A      0.251669  
      52A      0.270543    53A      0.279835    54A      0.284085  
      55A      0.295897    56A      0.301990    57A      0.306731  
      58A      0.313217    59A      0.313910    60A      0.321921  
      61A      0.333867    62A      0.337648    63A      0.339778  
      64A      0.344779    65A      0.352691    66A      0.362330  
      67A      0.368181    68A      0.373054    69A      0.376891  
      70A      0.380319    71A      0.386374    72A      0.392976  
      73A      0.402274    74A      0.411234    75A      0.412859  
      76A      0.417769    77A      0.424460    78A      0.429292  
      79A      0.436934    80A      0.447869    81A      0.454337  
      82A      0.461022    83A      0.471546    84A      0.477434  
      85A      0.479806    86A      0.487601    87A      0.495176  
      88A      0.509855    89A      0.515218    90A      0.519007  
      91A      0.528793    92A      0.538975    93A      0.545004  
      94A      0.548430    95A      0.555468    96A      0.561352  
      97A      0.567546    98A      0.571566    99A      0.587201  
     100A      0.600352   101A      0.601534   102A      0.612902  
     103A      0.617740   104A      0.627541   105A      0.640249  
     106A      0.647141   107A      0.654416   108A      0.658686  
     109A      0.664065   110A      0.677452   111A      0.687546  
     112A      0.699083   113A      0.706960   114A      0.724573  
     115A      0.732912   116A      0.734556   117A      0.748313  
     118A      0.757546   119A      0.768832   120A      0.783202  
     121A      0.789821   122A      0.814241   123A      0.824703  
     124A      0.827287   125A      0.834119   126A      0.843965  
     127A      0.855868   128A      0.872521   129A      0.891644  
     130A      0.897756   131A      0.914167   132A      0.922021  
     133A      0.948135   134A      0.960036   135A      0.968389  
     136A      0.982893   137A      1.015876   138A      1.028446  
     139A      1.033447   140A      1.056450   141A      1.064846  
     142A      1.082356   143A      1.099061   144A      1.116298  
     145A      1.120361   146A      1.126491   147A      1.142548  
     148A      1.153381   149A      1.160962   150A      1.171395  
     151A      1.181282   152A      1.193142   153A      1.210960  
     154A      1.217404   155A      1.233654   156A      1.240554  
     157A      1.249968   158A      1.259817   159A      1.273201  
     160A      1.274863   161A      1.282313   162A      1.287688  
     163A      1.293567   164A      1.310869   165A      1.320471  
     166A      1.336774   167A      1.347542   168A      1.356545  
     169A      1.359532   170A      1.372488   171A      1.377749  
     172A      1.387721   173A      1.395382   174A      1.409160  
     175A      1.416701   176A      1.425616   177A      1.437178  
     178A      1.441931   179A      1.449150   180A      1.466864  
     181A      1.476179   182A      1.488663   183A      1.490038  
     184A      1.510830   185A      1.517209   186A      1.521519  
     187A      1.531342   188A      1.547646   189A      1.560906  
     190A      1.572567   191A      1.575778   192A      1.580462  
     193A      1.592331   194A      1.608111   195A      1.630538  
     196A      1.640530   197A      1.652732   198A      1.660961  
     199A      1.682058   200A      1.683902   201A      1.699117  
     202A      1.716642   203A      1.721713   204A      1.732635  
     205A      1.740929   206A      1.749764   207A      1.775019  
     208A      1.791750   209A      1.802694   210A      1.807032  
     211A      1.828361   212A      1.833983   213A      1.865903  
     214A      1.876783   215A      1.883990   216A      1.903852  
     217A      1.913976   218A      1.935432   219A      1.974740  
     220A      1.985974   221A      2.060035   222A      2.090214  
     223A      2.131881   224A      2.161059   225A      2.213240  
     226A      2.217267   227A      2.220604   228A      2.321622  
     229A      2.344094   230A      2.350233   231A      2.419930  
     232A      2.430071   233A      2.515675   234A      2.533990  
     235A      2.542353   236A      2.570400   237A      2.613765  
     238A      2.657781   239A      2.675302   240A      2.708983  
     241A      2.750523   242A      2.769727   243A      2.814734  
     244A      2.842453   245A      2.857010   246A      2.886995  
     247A      2.895364   248A      2.902584   249A      2.913399  
     250A      2.937207   251A      2.942175   252A      2.953147  
     253A      2.997773   254A      3.009031   255A      3.011097  
     256A      3.038052   257A      3.112125   258A      3.135705  
     259A      3.155342   260A      3.194500   261A      3.208323  
     262A      3.215629   263A      3.228986   264A      3.239872  
     265A      3.269074   266A      3.277642   267A      3.286261  
     268A      3.296558   269A      3.305910   270A      3.310776  
     271A      3.339056   272A      3.349553   273A      3.354191  
     274A      3.367379   275A      3.390209   276A      3.413195  
     277A      3.433107   278A      3.442040   279A      3.457019  
     280A      3.472399   281A      3.490316   282A      3.501204  
     283A      3.509535   284A      3.525547   285A      3.547473  
     286A      3.561501   287A      3.569907   288A      3.572667  
     289A      3.600061   290A      3.612456   291A      3.628195  
     292A      3.640380   293A      3.643484   294A      3.659244  
     295A      3.665280   296A      3.670323   297A      3.679961  
     298A      3.693367   299A      3.704017   300A      3.719215  
     301A      3.727482   302A      3.741532   303A      3.762659  
     304A      3.778040   305A      3.803566   306A      3.815233  
     307A      3.827786   308A      3.835502   309A      3.843934  
     310A      3.863801   311A      3.882408   312A      3.899491  
     313A      3.906336   314A      3.922858   315A      3.955201  
     316A      3.969970   317A      3.989588   318A      4.024627  
     319A      4.030082   320A      4.037048   321A      4.044518  
     322A      4.060126   323A      4.075625   324A      4.083165  
     325A      4.100348   326A      4.113121   327A      4.129925  
     328A      4.151855   329A      4.172052   330A      4.178067  
     331A      4.191146   332A      4.203693   333A      4.213473  
     334A      4.218015   335A      4.239501   336A      4.268550  
     337A      4.280148   338A      4.294104   339A      4.300494  
     340A      4.306296   341A      4.323506   342A      4.339418  
     343A      4.358242   344A      4.370561   345A      4.406847  
     346A      4.419973   347A      4.429572   348A      4.454196  
     349A      4.463191   350A      4.471258   351A      4.489235  
     352A      4.505176   353A      4.522658   354A      4.534230  
     355A      4.540147   356A      4.545219   357A      4.553855  
     358A      4.561044   359A      4.579265   360A      4.581014  
     361A      4.603869   362A      4.624566   363A      4.626156  
     364A      4.655603   365A      4.665544   366A      4.674808  
     367A      4.681442   368A      4.686273   369A      4.716658  
     370A      4.724076   371A      4.746306   372A      4.750806  
     373A      4.760030   374A      4.764384   375A      4.788236  
     376A      4.797920   377A      4.827790   378A      4.835548  
     379A      4.846522   380A      4.866244   381A      4.867682  
     382A      4.878965   383A      4.887720   384A      4.897047  
     385A      4.921692   386A      4.923504   387A      4.927776  
     388A      4.955000   389A      4.967380   390A      4.980685  
     391A      5.008037   392A      5.014225   393A      5.031491  
     394A      5.042119   395A      5.078875   396A      5.100966  
     397A      5.148734   398A      5.172439   399A      5.186887  
     400A      5.194687   401A      5.221294   402A      5.233293  
     403A      5.263395   404A      5.292160   405A      5.299534  
     406A      5.322751   407A      5.329216   408A      5.346407  
     409A      5.355222   410A      5.371041   411A      5.385898  
     412A      5.447639   413A      5.477697   414A      5.542023  
     415A      5.600830   416A      5.622381   417A      5.659970  
     418A      5.706356   419A      5.720994   420A      5.729571  
     421A      5.748655   422A      5.757754   423A      5.767820  
     424A      5.798828   425A      5.858106   426A      5.876154  
     427A      5.919134   428A      5.926525   429A      5.939975  
     430A      5.942689   431A      6.030238   432A      6.066066  
     433A      6.093892   434A      6.143841   435A      6.288817  
     436A      6.307948   437A      6.346741   438A      6.354103  
     439A      6.365163   440A      6.372807   441A      6.405943  
     442A      6.413954   443A      6.416907   444A      6.442076  
     445A      6.477411   446A      6.493478   447A      6.514596  
     448A      6.521051   449A      6.588823   450A      6.760094  
     451A      6.781455   452A      6.917074   453A      6.975261  
     454A      7.026599   455A      7.123733   456A      7.307017  
     457A      7.341694   458A      7.383567   459A      7.477419  
     460A      7.563341   461A      7.670986   462A      7.714741  
     463A      7.854303   464A      7.892947   465A      7.990544  
     466A      8.053331   467A      8.297266   468A      8.530777  
     469A      9.622426   470A      9.903195   471A     10.455766  
     472A     10.972501   473A     11.668205   474A     14.486947  
     475A     14.625399   476A     18.463530   477A     37.210681  
     478A     45.463087   479A     46.119894   480A     53.364347  

    Final Occupation by Irrep:
              A 
    DOCC [    15 ]

  @DF-RHF Final Energy:  -154.95530033456612

   => Energetics <=

    Nuclear Repulsion Energy =            102.8725211964617614
    One-Electron Energy =                -411.1985651234068087
    Two-Electron Energy =                 153.3707435923789149
    Total Energy =                       -154.9553003345661182

Computation Completed


Properties will be evaluated at   0.000000,   0.000000,   0.000000 [a0]

Properties computed using the SCF density matrix

  Nuclear Dipole Moment: [e a0]
     X:  -100.1725      Y:    14.4769      Z:     1.5581

  Electronic Dipole Moment: [e a0]
     X:   100.2596      Y:   -14.1588      Z:    -1.4914

  Dipole Moment: [e a0]
     X:     0.0871      Y:     0.3181      Z:     0.0667     Total:     0.3365

  Dipole Moment: [D]
     X:     0.2214      Y:     0.8085      Z:     0.1695     Total:     0.8553


*** tstop() called on r282 at Thu Sep  9 11:52:18 2021
Module time:
	user time   =      36.79 seconds =       0.61 minutes
	system time =       0.64 seconds =       0.01 minutes
	total time  =         38 seconds =       0.63 minutes
Total time:
	user time   =     128.29 seconds =       2.14 minutes
	system time =       2.57 seconds =       0.04 minutes
	total time  =        131 seconds =       2.18 minutes
  Constructing Basis Sets for SAPT...

   => Loading Basis Set <=

    Name: (JUN-CC-PVTZ AUX)
    Role: RIFIT
    Keyword: DF_BASIS_SAPT
    atoms 1-4, 11-14  entry C          line   132 file /home/r08543048/miniconda3/share/psi4/basis/jun-cc-pvtz-ri.gbs 
    atoms 5-10, 15-20 entry H          line    30 file /home/r08543048/miniconda3/share/psi4/basis/jun-cc-pvtz-ri.gbs 


  //>>>>>>>>>>>>>>>>>>>>>>>>>>>>>>>>>>>//
  //               SAPT0               //
  //<<<<<<<<<<<<<<<<<<<<<<<<<<<<<<<<<<<//


*** tstart() called on r282
*** at Thu Sep  9 11:52:18 2021

        SAPT0  
    Ed Hohenstein
     6 June 2009

      Orbital Information
  --------------------------
    NSO        =       480
    NMO        =       480
    NRI        =      1136
    NOCC A     =        15
    NOCC B     =        15
    FOCC A     =         4
    FOCC B     =         4
    NVIR A     =       465
    NVIR B     =       465

    Elst10,r            =    -0.005064444936 [Eh]
    Exch10              =     0.009411679200 [Eh]
    Exch10 (S^2)        =     0.009391463171 [Eh]

    Iter     Energy [mEh]          dE [mEh]         Residual      Time [s]
       1      -1.09286761       1.092867612       4.769703141             0
       2      -1.35094968       0.258082070       1.481655390             1
       3      -1.36378327       0.012833585       0.463851607             2
       4      -1.35920642      -0.004576851       0.195028661             3
       5      -1.35752068      -0.001685738       0.064337733             4
       6      -1.35771669       0.000196015       0.035363578             5
       7      -1.35807838       0.000361682       0.014393903             6
       8      -1.35791923      -0.000159141       0.004386157             7
       9      -1.35791067      -0.000008566       0.001045200             8
      10      -1.35791924       0.000008569       0.000272676             9
      11      -1.35791930       0.000000065       0.000067946            10
      12      -1.35791879      -0.000000509       0.000014094            11
      13      -1.35791888       0.000000091       0.000002875            12
      14      -1.35791888      -0.000000007       0.000000734            13

    CHF Iterations converged


    Iter     Energy [mEh]          dE [mEh]         Residual      Time [s]
       1      -1.09583719       1.095837186       4.777332540             1
       2      -1.35543658       0.259599397       1.480441640             2
       3      -1.36811987       0.012683290       0.464543772             3
       4      -1.36351217      -0.004607702       0.194843125             3
       5      -1.36183849      -0.001673682       0.064200434             4
       6      -1.36203722       0.000198726       0.035189687             5
       7      -1.36239657       0.000359357       0.014363832             6
       8      -1.36223722      -0.000159354       0.004373643             7
       9      -1.36222898      -0.000008238       0.001044191             8
      10      -1.36223755       0.000008568       0.000272205             9
      11      -1.36223760       0.000000051       0.000067993            10
      12      -1.36223709      -0.000000508       0.000014122            11
      13      -1.36223718       0.000000091       0.000002891            12
      14      -1.36223718      -0.000000007       0.000000757            13

    CHF Iterations converged

    Ind20,r (A<-B)      =    -0.001357918877 [Eh]
    Ind20,r (B<-A)      =    -0.001362237176 [Eh]
    Ind20,r             =    -0.002720156052 [Eh]
    Exch-Ind20,r (A<-B) =     0.001081978484 [Eh]
    Exch-Ind20,r (B<-A) =     0.001086622194 [Eh]
    Exch-Ind20,r        =     0.002168600678 [Eh]
    Disp20              =    -0.010514380146 [Eh]
    Disp20 (SS)         =    -0.005257190073 [Eh]
    Disp20 (OS)         =    -0.005257190073 [Eh]
    Exch-Disp20         =     0.001112588470 [Eh]
    Exch-Disp20 (SS)    =     0.000726438373 [Eh]
    Exch-Disp20 (OS)    =     0.000386150097 [Eh]

    SAPT Results 
  --------------------------------------------------------------------------------------------------------
    Electrostatics                 -5.06444494 [mEh]      -3.17798718 [kcal/mol]     -13.29669835 [kJ/mol]
      Elst10,r                     -5.06444494 [mEh]      -3.17798718 [kcal/mol]     -13.29669835 [kJ/mol]

    Exchange                        9.41167920 [mEh]       5.90591786 [kcal/mol]      24.71036034 [kJ/mol]
      Exch10                        9.41167920 [mEh]       5.90591786 [kcal/mol]      24.71036034 [kJ/mol]
      Exch10(S^2)                   9.39146317 [mEh]       5.89323211 [kcal/mol]      24.65728316 [kJ/mol]

    Induction                      -1.29127017 [mEh]      -0.81028426 [kcal/mol]      -3.39022935 [kJ/mol]
      Ind20,r                      -2.72015605 [mEh]      -1.70692369 [kcal/mol]      -7.14176873 [kJ/mol]
      Exch-Ind20,r                  2.16860068 [mEh]       1.36081747 [kcal/mol]       5.69366030 [kJ/mol]
      delta HF,r (2)               -0.73971479 [mEh]      -0.46417804 [kcal/mol]      -1.94212092 [kJ/mol]

    Dispersion                     -9.40179168 [mEh]      -5.89971335 [kcal/mol]     -24.68440064 [kJ/mol]
      Disp20                      -10.51438015 [mEh]      -6.59787315 [kcal/mol]     -27.60550127 [kJ/mol]
      Exch-Disp20                   1.11258847 [mEh]       0.69815981 [kcal/mol]       2.92110063 [kJ/mol]
      Disp20 (SS)                  -5.25719007 [mEh]      -3.29893658 [kcal/mol]     -13.80275063 [kJ/mol]
      Disp20 (OS)                  -5.25719007 [mEh]      -3.29893658 [kcal/mol]     -13.80275063 [kJ/mol]
      Exch-Disp20 (SS)              0.72643837 [mEh]       0.45584696 [kcal/mol]       1.90726369 [kJ/mol]
      Exch-Disp20 (OS)              0.38615010 [mEh]       0.24231284 [kcal/mol]       1.01383694 [kJ/mol]

  Total HF                          3.05596410 [mEh]       1.91764642 [kcal/mol]       8.02343264 [kJ/mol]
  Total SAPT0                      -6.34582758 [mEh]      -3.98206692 [kcal/mol]     -16.66096801 [kJ/mol]

  Special recipe for scaled SAPT0 (see Manual):
    Electrostatics sSAPT0          -5.06444494 [mEh]      -3.17798718 [kcal/mol]     -13.29669835 [kJ/mol]
    Exchange sSAPT0                 9.41167920 [mEh]       5.90591786 [kcal/mol]      24.71036034 [kJ/mol]
    Induction sSAPT0               -1.27723563 [mEh]      -0.80147746 [kcal/mol]      -3.35338169 [kJ/mol]
    Dispersion sSAPT0              -9.39459134 [mEh]      -5.89519507 [kcal/mol]     -24.66549616 [kJ/mol]
  Total sSAPT0                     -6.32459270 [mEh]      -3.96874184 [kcal/mol]     -16.60521586 [kJ/mol]
  --------------------------------------------------------------------------------------------------------

*** tstop() called on r282 at Thu Sep  9 11:53:52 2021
Module time:
	user time   =      79.19 seconds =       1.32 minutes
	system time =      14.98 seconds =       0.25 minutes
	total time  =         94 seconds =       1.57 minutes
Total time:
	user time   =     207.61 seconds =       3.46 minutes
	system time =      17.55 seconds =       0.29 minutes
	total time  =        225 seconds =       3.75 minutes

    Psi4 stopped on: Thursday, 09 September 2021 11:53AM
    Psi4 wall time for execution: 0:03:45.45

*** Psi4 exiting successfully. Buy a developer a beer!
