
    -----------------------------------------------------------------------
          Psi4: An Open-Source Ab Initio Electronic Structure Package
                               Psi4 1.3.2 release

                         Git: Rev {HEAD} ecbda83 


    R. M. Parrish, L. A. Burns, D. G. A. Smith, A. C. Simmonett,
    A. E. DePrince III, E. G. Hohenstein, U. Bozkaya, A. Yu. Sokolov,
    R. Di Remigio, R. M. Richard, J. F. Gonthier, A. M. James,
    H. R. McAlexander, A. Kumar, M. Saitow, X. Wang, B. P. Pritchard,
    P. Verma, H. F. Schaefer III, K. Patkowski, R. A. King, E. F. Valeev,
    F. A. Evangelista, J. M. Turney, T. D. Crawford, and C. D. Sherrill,
    J. Chem. Theory Comput. 13(7) pp 3185--3197 (2017).
    (doi: 10.1021/acs.jctc.7b00174)


                         Additional Contributions by
    P. Kraus, H. Kruse, M. H. Lechner, M. C. Schieber, R. A. Shaw,
    A. Alenaizan, R. Galvelis, Z. L. Glick, S. Lehtola, and J. P. Misiewicz

    -----------------------------------------------------------------------


    Psi4 started on: Thursday, 09 September 2021 12:31PM

    Process ID: 54106
    Host:       r282
    PSIDATADIR: /home/r08543048/miniconda3/share/psi4
    Memory:     500.0 MiB
    Threads:    1
    
  ==> Input File <==

--------------------------------------------------------------------------
# Any line starting with the # character is a comment line
#! Sample  computation

memory 22 gb

molecule Dimer {
 
0 1                               
 C     3.36840900   -0.43975000    0.00770200
 C     2.27101900    0.48291900    0.51798900
 C     1.41885800    1.01694500   -0.63707700
 C     0.39801600    1.95794600   -0.19005200
 C    -0.43193400    2.74848000    0.22035000
 H     4.03828900    0.09078600   -0.67044400
 H     3.96529500   -0.83630700    0.82815000
 H     2.93672600   -1.28211200   -0.53336300
 H     1.62448300   -0.05379100    1.21425200
 H     2.70183400    1.32559300    1.06154100
 H     2.06424600    1.51220600   -1.36739400
 H     0.94451900    0.17535900   -1.14907600
 H    -1.15263700    3.44813600    0.56539400














 
 --
0 1
 C    -3.36883100    0.43926900   -0.00463600
 C    -2.27232700   -0.48346000   -0.51672100
 C    -1.41785300   -1.01696100    0.63687900
 C    -0.39726800   -1.95738800    0.18805600
 C     0.43220700   -2.74766000   -0.22381000
 H    -2.93618000    1.28194100    0.53517500
 H    -3.96744500    0.83535600   -0.82405200
 H    -4.03725500   -0.09105900    0.67510600
 H    -2.70409800   -1.32640200   -1.05910400
 H    -1.62722800    0.05302000   -1.21448700
 H    -0.94316000   -0.17511700    1.14811300
 H    -2.06169300   -1.51260300    1.36830200
 H     1.15252500   -3.44704000   -0.57020100














 
 
 
units angstrom

no_reorient
symmetry c1
}

set globals{
  basis jun-cc-pVTZ
  scf_type DF 
  freeze_core True
}

energy('sapt0')


--------------------------------------------------------------------------

  Memory set to  20.489 GiB by Python driver.

  //>>>>>>>>>>>>>>>>>>>>>>>>>>>>>>>>>>>//
  //              Dimer HF             //
  //<<<<<<<<<<<<<<<<<<<<<<<<<<<<<<<<<<<//


*** tstart() called on r282
*** at Thu Sep  9 12:31:24 2021

   => Loading Basis Set <=

    Name: JUN-CC-PVTZ
    Role: ORBITAL
    Keyword: BASIS
    atoms 1-5, 14-18  entry C          line   217 file /home/r08543048/miniconda3/share/psi4/basis/jun-cc-pvtz.gbs 
    atoms 6-13, 19-26 entry H          line    36 file /home/r08543048/miniconda3/share/psi4/basis/jun-cc-pvtz.gbs 


         ---------------------------------------------------------
                                   SCF
               by Justin Turney, Rob Parrish, Andy Simmonett
                          and Daniel G. A. Smith
                              RHF Reference
                        1 Threads,  20980 MiB Core
         ---------------------------------------------------------

  ==> Geometry <==

    Molecular point group: c1
    Full point group: C1

    Geometry (in Angstrom), charge = 0, multiplicity = 1:

       Center              X                  Y                   Z               Mass       
    ------------   -----------------  -----------------  -----------------  -----------------
         C            3.368396077490    -0.439764913358     0.007759785688    12.000000000000
         C            2.271006077490     0.482904086642     0.518046785688    12.000000000000
         C            1.418845077490     1.016930086642    -0.637019214312    12.000000000000
         C            0.398003077490     1.957931086642    -0.189994214312    12.000000000000
         C           -0.431946922510     2.748465086642     0.220407785688    12.000000000000
         H            4.038276077490     0.090771086642    -0.670386214312     1.007825032230
         H            3.965282077490    -0.836321913358     0.828207785688     1.007825032230
         H            2.936713077490    -1.282126913358    -0.533305214312     1.007825032230
         H            1.624470077490    -0.053805913358     1.214309785688     1.007825032230
         H            2.701821077490     1.325578086642     1.061598785688     1.007825032230
         H            2.064233077490     1.512191086642    -1.367336214312     1.007825032230
         H            0.944506077490     0.175344086642    -1.149018214312     1.007825032230
         H           -1.152649922510     3.448121086642     0.565451785688     1.007825032230
         C           -3.368843922510     0.439254086642    -0.004578214312    12.000000000000
         C           -2.272339922510    -0.483474913358    -0.516663214312    12.000000000000
         C           -1.417865922510    -1.016975913358     0.636936785688    12.000000000000
         C           -0.397280922510    -1.957402913358     0.188113785688    12.000000000000
         C            0.432194077490    -2.747674913358    -0.223752214312    12.000000000000
         H           -2.936192922510     1.281926086642     0.535232785688     1.007825032230
         H           -3.967457922510     0.835341086642    -0.823994214312     1.007825032230
         H           -4.037267922510    -0.091073913358     0.675163785688     1.007825032230
         H           -2.704110922510    -1.326416913358    -1.059046214312     1.007825032230
         H           -1.627240922510     0.053005086642    -1.214429214312     1.007825032230
         H           -0.943172922510    -0.175131913358     1.148170785688     1.007825032230
         H           -2.061705922510    -1.512617913358     1.368359785688     1.007825032230
         H            1.152512077490    -3.447054913358    -0.570143214312     1.007825032230

  Running in c1 symmetry.

  Rotational constants: A =      0.04456  B =      0.02803  C =      0.01846 [cm^-1]
  Rotational constants: A =   1335.86602  B =    840.26231  C =    553.51936 [MHz]
  Nuclear repulsion =  484.892749084171157

  Charge       = 0
  Multiplicity = 1
  Electrons    = 76
  Nalpha       = 38
  Nbeta        = 38

  ==> Algorithm <==

  SCF Algorithm Type is DF.
  DIIS enabled.
  MOM disabled.
  Fractional occupation disabled.
  Guess Type is SAD.
  Energy threshold   = 1.00e-08
  Density threshold  = 1.00e-08
  Integral threshold = 0.00e+00

  ==> Primary Basis <==

  Basis Set: JUN-CC-PVTZ
    Blend: JUN-CC-PVTZ
    Number of shells: 226
    Number of basis function: 614
    Number of Cartesian functions: 690
    Spherical Harmonics?: true
    Max angular momentum: 3

   => Loading Basis Set <=

    Name: (JUN-CC-PVTZ AUX)
    Role: JKFIT
    Keyword: DF_BASIS_SCF
    atoms 1-5, 14-18  entry C          line   152 file /home/r08543048/miniconda3/share/psi4/basis/jun-cc-pvtz-jkfit.gbs 
    atoms 6-13, 19-26 entry H          line    70 file /home/r08543048/miniconda3/share/psi4/basis/jun-cc-pvtz-jkfit.gbs 

  ==> Pre-Iterations <==

   -------------------------------------------------------
    Irrep   Nso     Nmo     Nalpha   Nbeta   Ndocc  Nsocc
   -------------------------------------------------------
     A        614     614       0       0       0       0
   -------------------------------------------------------
    Total     614     614      38      38      38       0
   -------------------------------------------------------

  ==> Integral Setup <==

  ==> DiskDFJK: Density-Fitted J/K Matrices <==

    J tasked:                  Yes
    K tasked:                  Yes
    wK tasked:                  No
    OpenMP threads:              1
    Integrals threads:           1
    Memory [MiB]:            15735
    Algorithm:                Core
    Integral Cache:           SAVE
    Schwarz Cutoff:          1E-12
    Fitting Condition:       1E-10

   => Auxiliary Basis Set <=

  Basis Set: (JUN-CC-PVTZ AUX)
    Blend: JUN-CC-PVTZ-JKFIT
    Number of shells: 450
    Number of basis function: 1430
    Number of Cartesian functions: 1720
    Spherical Harmonics?: true
    Max angular momentum: 4

  Minimum eigenvalue in the overlap matrix is 1.4533342585E-05.
  Using Symmetric Orthogonalization.

  SCF Guess: Superposition of Atomic Densities via on-the-fly atomic UHF.

  ==> Iterations <==

                           Total Energy        Delta E     RMS |[F,P]|

   @DF-RHF iter SAD:  -386.28556377496159   -3.86286e+02   0.00000e+00 
   @DF-RHF iter   1:  -387.64925288503184   -1.36369e+00   1.23038e-03 DIIS
   @DF-RHF iter   2:  -387.94411407409802   -2.94861e-01   5.18586e-04 DIIS
   @DF-RHF iter   3:  -387.99699762810542   -5.28836e-02   1.28650e-04 DIIS
   @DF-RHF iter   4:  -388.00130749191339   -4.30986e-03   6.68933e-05 DIIS
   @DF-RHF iter   5:  -388.00228770561125   -9.80214e-04   1.21065e-05 DIIS
   @DF-RHF iter   6:  -388.00232820708425   -4.05015e-05   3.51297e-06 DIIS
   @DF-RHF iter   7:  -388.00233260062174   -4.39354e-06   8.57656e-07 DIIS
   @DF-RHF iter   8:  -388.00233318196206   -5.81340e-07   4.18721e-07 DIIS
   @DF-RHF iter   9:  -388.00233338802087   -2.06059e-07   2.17163e-07 DIIS
   @DF-RHF iter  10:  -388.00233345903519   -7.10143e-08   6.18871e-08 DIIS
   @DF-RHF iter  11:  -388.00233346317799   -4.14281e-09   1.58602e-08 DIIS
   @DF-RHF iter  12:  -388.00233346334932   -1.71326e-10   4.49141e-09 DIIS
  Energy and wave function converged.


  ==> Post-Iterations <==

    Orbital Energies [Eh]
    ---------------------

    Doubly Occupied:                                                      

       1A    -11.245584     2A    -11.245571     3A    -11.237771  
       4A    -11.237763     5A    -11.224175     6A    -11.224168  
       7A    -11.222736     8A    -11.222727     9A    -11.212190  
      10A    -11.212181    11A     -1.094276    12A     -1.088245  
      13A     -1.017928    14A     -1.013958    15A     -0.939208  
      16A     -0.937137    17A     -0.821100    18A     -0.817353  
      19A     -0.720586    20A     -0.719920    21A     -0.654558  
      22A     -0.640521    23A     -0.638584    24A     -0.635242  
      25A     -0.575054    26A     -0.574560    27A     -0.556466  
      28A     -0.554379    29A     -0.509690    30A     -0.508639  
      31A     -0.493618    32A     -0.490644    33A     -0.484251  
      34A     -0.478481    35A     -0.388003    36A     -0.380918  
      37A     -0.378418    38A     -0.374208  

    Virtual:                                                              

      39A      0.044633    40A      0.046243    41A      0.053952  
      42A      0.055652    43A      0.063906    44A      0.067707  
      45A      0.072512    46A      0.084917    47A      0.085529  
      48A      0.087840    49A      0.093182    50A      0.100243  
      51A      0.105839    52A      0.107859    53A      0.117434  
      54A      0.121797    55A      0.124054    56A      0.126779  
      57A      0.129121    58A      0.138704    59A      0.152130  
      60A      0.158025    61A      0.158278    62A      0.162813  
      63A      0.169243    64A      0.172650    65A      0.176357  
      66A      0.181431    67A      0.185756    68A      0.185914  
      69A      0.193143    70A      0.198395    71A      0.198676  
      72A      0.199654    73A      0.201174    74A      0.204646  
      75A      0.218399    76A      0.218913    77A      0.224151  
      78A      0.228652    79A      0.231356    80A      0.241193  
      81A      0.246744    82A      0.261283    83A      0.271071  
      84A      0.276698    85A      0.280947    86A      0.285950  
      87A      0.293712    88A      0.297392    89A      0.303216  
      90A      0.305783    91A      0.318778    92A      0.324407  
      93A      0.327470    94A      0.328645    95A      0.335467  
      96A      0.338282    97A      0.345538    98A      0.350754  
      99A      0.353618   100A      0.360169   101A      0.361452  
     102A      0.364752   103A      0.368224   104A      0.373048  
     105A      0.388083   106A      0.397984   107A      0.401305  
     108A      0.404539   109A      0.405081   110A      0.407923  
     111A      0.410458   112A      0.413798   113A      0.421267  
     114A      0.428411   115A      0.442992   116A      0.444085  
     117A      0.446590   118A      0.451493   119A      0.456305  
     120A      0.459797   121A      0.466072   122A      0.472802  
     123A      0.478802   124A      0.483604   125A      0.493013  
     126A      0.496021   127A      0.503236   128A      0.509404  
     129A      0.518413   130A      0.522729   131A      0.527875  
     132A      0.531930   133A      0.538202   134A      0.540014  
     135A      0.545500   136A      0.548627   137A      0.557384  
     138A      0.559927   139A      0.564816   140A      0.567801  
     141A      0.571077   142A      0.579353   143A      0.584838  
     144A      0.592263   145A      0.595696   146A      0.619036  
     147A      0.624964   148A      0.632598   149A      0.646448  
     150A      0.647959   151A      0.656658   152A      0.659866  
     153A      0.661953   154A      0.675873   155A      0.682606  
     156A      0.691166   157A      0.695476   158A      0.715973  
     159A      0.718362   160A      0.732832   161A      0.734183  
     162A      0.749315   163A      0.756756   164A      0.773769  
     165A      0.781007   166A      0.786498   167A      0.800095  
     168A      0.803462   169A      0.808941   170A      0.817608  
     171A      0.821441   172A      0.835831   173A      0.843964  
     174A      0.845942   175A      0.855665   176A      0.859315  
     177A      0.863204   178A      0.864970   179A      0.867526  
     180A      0.869514   181A      0.883421   182A      0.888144  
     183A      0.896616   184A      0.898719   185A      0.906833  
     186A      0.922231   187A      0.944876   188A      0.957263  
     189A      0.964696   190A      0.966174   191A      0.968109  
     192A      0.989162   193A      0.990750   194A      0.994993  
     195A      1.003180   196A      1.008540   197A      1.016955  
     198A      1.019322   199A      1.031048   200A      1.031775  
     201A      1.040214   202A      1.054892   203A      1.074032  
     204A      1.078138   205A      1.081514   206A      1.096727  
     207A      1.099666   208A      1.108930   209A      1.114567  
     210A      1.127752   211A      1.134539   212A      1.136117  
     213A      1.149237   214A      1.170097   215A      1.173085  
     216A      1.174240   217A      1.192241   218A      1.195622  
     219A      1.201897   220A      1.205403   221A      1.223494  
     222A      1.225997   223A      1.242127   224A      1.263041  
     225A      1.263946   226A      1.275699   227A      1.284127  
     228A      1.289797   229A      1.289911   230A      1.292814  
     231A      1.302664   232A      1.309846   233A      1.310771  
     234A      1.328052   235A      1.354158   236A      1.363918  
     237A      1.372662   238A      1.387300   239A      1.391933  
     240A      1.403043   241A      1.413664   242A      1.417523  
     243A      1.424542   244A      1.424856   245A      1.436817  
     246A      1.437218   247A      1.451402   248A      1.460460  
     249A      1.471867   250A      1.489718   251A      1.499413  
     252A      1.503365   253A      1.506028   254A      1.519803  
     255A      1.537954   256A      1.542366   257A      1.560895  
     258A      1.562320   259A      1.575104   260A      1.581513  
     261A      1.582624   262A      1.599102   263A      1.607835  
     264A      1.609279   265A      1.621216   266A      1.621325  
     267A      1.636528   268A      1.637688   269A      1.667380  
     270A      1.672456   271A      1.678542   272A      1.684240  
     273A      1.708836   274A      1.712410   275A      1.724435  
     276A      1.734361   277A      1.734599   278A      1.744282  
     279A      1.766971   280A      1.776224   281A      1.779185  
     282A      1.791778   283A      1.791957   284A      1.808572  
     285A      1.825410   286A      1.841421   287A      1.849012  
     288A      1.877132   289A      1.884684   290A      1.893389  
     291A      1.924723   292A      1.935302   293A      1.940488  
     294A      1.958381   295A      1.960490   296A      1.968117  
     297A      1.973681   298A      1.990469   299A      1.995155  
     300A      2.033025   301A      2.096878   302A      2.107565  
     303A      2.152464   304A      2.175629   305A      2.182800  
     306A      2.198919   307A      2.452655   308A      2.469137  
     309A      2.572480   310A      2.589608   311A      2.636873  
     312A      2.712057   313A      2.725984   314A      2.738067  
     315A      2.758803   316A      2.760560   317A      2.772024  
     318A      2.775563   319A      2.794805   320A      2.797895  
     321A      2.821663   322A      2.824975   323A      2.838685  
     324A      2.846632   325A      2.857677   326A      2.863908  
     327A      2.867810   328A      2.872589   329A      2.893285  
     330A      2.895774   331A      2.916021   332A      2.924330  
     333A      2.924484   334A      2.931038   335A      2.934639  
     336A      2.944285   337A      2.949826   338A      2.960105  
     339A      2.974626   340A      2.982733   341A      2.991970  
     342A      2.997119   343A      3.007619   344A      3.030015  
     345A      3.035796   346A      3.038923   347A      3.053726  
     348A      3.066128   349A      3.068657   350A      3.089198  
     351A      3.120825   352A      3.123205   353A      3.135201  
     354A      3.137967   355A      3.147339   356A      3.148195  
     357A      3.156987   358A      3.184441   359A      3.185919  
     360A      3.189689   361A      3.224666   362A      3.225524  
     363A      3.231996   364A      3.241141   365A      3.245422  
     366A      3.255769   367A      3.256613   368A      3.259433  
     369A      3.277279   370A      3.280577   371A      3.281034  
     372A      3.295199   373A      3.308781   374A      3.309411  
     375A      3.327738   376A      3.338983   377A      3.343509  
     378A      3.347402   379A      3.356524   380A      3.359388  
     381A      3.370720   382A      3.382581   383A      3.385456  
     384A      3.390987   385A      3.397783   386A      3.415310  
     387A      3.422730   388A      3.426747   389A      3.434389  
     390A      3.439928   391A      3.445744   392A      3.466434  
     393A      3.466781   394A      3.472657   395A      3.485099  
     396A      3.486648   397A      3.488123   398A      3.493609  
     399A      3.514949   400A      3.521653   401A      3.523768  
     402A      3.525208   403A      3.533017   404A      3.535612  
     405A      3.549050   406A      3.549451   407A      3.555858  
     408A      3.560805   409A      3.568062   410A      3.568480  
     411A      3.575493   412A      3.582006   413A      3.599883  
     414A      3.607593   415A      3.617101   416A      3.624614  
     417A      3.632643   418A      3.636043   419A      3.651220  
     420A      3.663055   421A      3.674128   422A      3.698186  
     423A      3.708656   424A      3.709343   425A      3.724704  
     426A      3.728151   427A      3.741420   428A      3.757712  
     429A      3.758464   430A      3.770223   431A      3.777709  
     432A      3.792006   433A      3.796178   434A      3.807519  
     435A      3.815342   436A      3.828973   437A      3.829308  
     438A      3.837865   439A      3.851149   440A      3.889451  
     441A      3.905716   442A      3.917907   443A      3.930069  
     444A      3.934095   445A      3.951630   446A      3.955199  
     447A      3.982318   448A      3.993519   449A      4.007049  
     450A      4.016538   451A      4.034418   452A      4.038684  
     453A      4.068580   454A      4.074752   455A      4.094274  
     456A      4.105430   457A      4.108356   458A      4.110810  
     459A      4.130255   460A      4.140278   461A      4.163721  
     462A      4.181593   463A      4.201923   464A      4.211384  
     465A      4.227617   466A      4.232357   467A      4.238238  
     468A      4.262693   469A      4.275316   470A      4.280352  
     471A      4.281677   472A      4.285873   473A      4.307898  
     474A      4.308888   475A      4.315287   476A      4.333099  
     477A      4.349106   478A      4.356447   479A      4.359680  
     480A      4.364856   481A      4.375087   482A      4.382784  
     483A      4.388655   484A      4.398624   485A      4.410938  
     486A      4.430405   487A      4.440485   488A      4.442220  
     489A      4.473511   490A      4.476157   491A      4.490601  
     492A      4.499194   493A      4.501060   494A      4.509442  
     495A      4.517028   496A      4.519866   497A      4.528071  
     498A      4.536838   499A      4.542268   500A      4.544704  
     501A      4.563819   502A      4.582187   503A      4.590297  
     504A      4.609080   505A      4.621673   506A      4.621797  
     507A      4.641346   508A      4.646456   509A      4.664439  
     510A      4.682803   511A      4.689616   512A      4.696510  
     513A      4.735513   514A      4.737178   515A      4.743034  
     516A      4.755944   517A      4.779967   518A      4.820266  
     519A      4.836321   520A      4.851476   521A      4.855228  
     522A      4.883826   523A      4.884326   524A      4.900406  
     525A      4.904521   526A      4.914582   527A      4.932237  
     528A      4.939429   529A      5.069548   530A      5.072102  
     531A      5.074622   532A      5.088462   533A      5.109650  
     534A      5.117392   535A      5.129285   536A      5.130081  
     537A      5.150994   538A      5.158260   539A      5.194896  
     540A      5.196689   541A      5.239675   542A      5.241490  
     543A      5.277933   544A      5.284454   545A      5.291894  
     546A      5.294468   547A      5.345869   548A      5.347767  
     549A      5.371707   550A      5.372496   551A      5.389881  
     552A      5.401294   553A      5.412506   554A      5.432073  
     555A      5.493445   556A      5.495690   557A      5.537520  
     558A      5.538668   559A      5.553296   560A      5.556019  
     561A      5.616437   562A      5.621830   563A      5.642539  
     564A      5.646167   565A      5.653398   566A      5.672650  
     567A      5.699448   568A      5.702110   569A      5.762763  
     570A      5.765683   571A      5.775592   572A      5.777910  
     573A      5.805820   574A      5.813531   575A      5.839413  
     576A      5.840191   577A      5.914961   578A      5.919948  
     579A      5.930872   580A      5.934026   581A      5.967780  
     582A      5.970016   583A      5.973919   584A      5.983901  
     585A      6.079126   586A      6.080511   587A      6.164349  
     588A      6.170040   589A      6.361655   590A      6.364155  
     591A      6.367117   592A      6.373362   593A      6.482539  
     594A      6.499377   595A      6.518876   596A      6.521523  
     597A      6.533425   598A      6.541091   599A      6.555686  
     600A      6.597072   601A      6.602850   602A      6.640652  
     603A      6.783659   604A      6.797005   605A     10.687205  
     606A     10.741808   607A     13.935642   608A     13.945871  
     609A     14.532064   610A     14.674478   611A     14.778371  
     612A     14.865787   613A     18.543363   614A     18.545499  

    Final Occupation by Irrep:
              A 
    DOCC [    38 ]

  @DF-RHF Final Energy:  -388.00233346334932

   => Energetics <=

    Nuclear Repulsion Energy =            484.8927490841711574
    One-Electron Energy =               -1484.2485450357576156
    Two-Electron Energy =                 611.3534624882372555
    Total Energy =                       -388.0023334633492595

Computation Completed


Properties will be evaluated at   0.000000,   0.000000,   0.000000 [a0]

Properties computed using the SCF density matrix

  Nuclear Dipole Moment: [e a0]
     X:    -0.0019      Y:    -0.0021      Z:     0.0083

  Electronic Dipole Moment: [e a0]
     X:     0.0017      Y:     0.0018      Z:    -0.0080

  Dipole Moment: [e a0]
     X:    -0.0002      Y:    -0.0004      Z:     0.0003     Total:     0.0005

  Dipole Moment: [D]
     X:    -0.0004      Y:    -0.0009      Z:     0.0008     Total:     0.0013


*** tstop() called on r282 at Thu Sep  9 12:33:55 2021
Module time:
	user time   =     148.96 seconds =       2.48 minutes
	system time =       2.46 seconds =       0.04 minutes
	total time  =        151 seconds =       2.52 minutes
Total time:
	user time   =     148.96 seconds =       2.48 minutes
	system time =       2.46 seconds =       0.04 minutes
	total time  =        151 seconds =       2.52 minutes

  //>>>>>>>>>>>>>>>>>>>>>>>>>>>>>>>>>>>//
  //            Monomer A HF           //
  //<<<<<<<<<<<<<<<<<<<<<<<<<<<<<<<<<<<//


*** tstart() called on r282
*** at Thu Sep  9 12:33:55 2021

   => Loading Basis Set <=

    Name: JUN-CC-PVTZ
    Role: ORBITAL
    Keyword: BASIS
    atoms 1-5, 14-18  entry C          line   217 file /home/r08543048/miniconda3/share/psi4/basis/jun-cc-pvtz.gbs 
    atoms 6-13, 19-26 entry H          line    36 file /home/r08543048/miniconda3/share/psi4/basis/jun-cc-pvtz.gbs 


         ---------------------------------------------------------
                                   SCF
               by Justin Turney, Rob Parrish, Andy Simmonett
                          and Daniel G. A. Smith
                              RHF Reference
                        1 Threads,  20980 MiB Core
         ---------------------------------------------------------

  ==> Geometry <==

    Molecular point group: c1
    Full point group: C1

    Geometry (in Angstrom), charge = 0, multiplicity = 1:

       Center              X                  Y                   Z               Mass       
    ------------   -----------------  -----------------  -----------------  -----------------
         C            3.368396077490    -0.439764913358     0.007759785688    12.000000000000
         C            2.271006077490     0.482904086642     0.518046785688    12.000000000000
         C            1.418845077490     1.016930086642    -0.637019214312    12.000000000000
         C            0.398003077490     1.957931086642    -0.189994214312    12.000000000000
         C           -0.431946922510     2.748465086642     0.220407785688    12.000000000000
         H            4.038276077490     0.090771086642    -0.670386214312     1.007825032230
         H            3.965282077490    -0.836321913358     0.828207785688     1.007825032230
         H            2.936713077490    -1.282126913358    -0.533305214312     1.007825032230
         H            1.624470077490    -0.053805913358     1.214309785688     1.007825032230
         H            2.701821077490     1.325578086642     1.061598785688     1.007825032230
         H            2.064233077490     1.512191086642    -1.367336214312     1.007825032230
         H            0.944506077490     0.175344086642    -1.149018214312     1.007825032230
         H           -1.152649922510     3.448121086642     0.565451785688     1.007825032230
      Gh(C)          -3.368843922510     0.439254086642    -0.004578214312    12.000000000000
      Gh(C)          -2.272339922510    -0.483474913358    -0.516663214312    12.000000000000
      Gh(C)          -1.417865922510    -1.016975913358     0.636936785688    12.000000000000
      Gh(C)          -0.397280922510    -1.957402913358     0.188113785688    12.000000000000
      Gh(C)           0.432194077490    -2.747674913358    -0.223752214312    12.000000000000
      Gh(H)          -2.936192922510     1.281926086642     0.535232785688     1.007825032230
      Gh(H)          -3.967457922510     0.835341086642    -0.823994214312     1.007825032230
      Gh(H)          -4.037267922510    -0.091073913358     0.675163785688     1.007825032230
      Gh(H)          -2.704110922510    -1.326416913358    -1.059046214312     1.007825032230
      Gh(H)          -1.627240922510     0.053005086642    -1.214429214312     1.007825032230
      Gh(H)          -0.943172922510    -0.175131913358     1.148170785688     1.007825032230
      Gh(H)          -2.061705922510    -1.512617913358     1.368359785688     1.007825032230
      Gh(H)           1.152512077490    -3.447054913358    -0.570143214312     1.007825032230

  Running in c1 symmetry.

  Rotational constants: A =      0.04456  B =      0.02803  C =      0.01846 [cm^-1]
  Rotational constants: A =   1335.86602  B =    840.26231  C =    553.51936 [MHz]
  Nuclear repulsion =  154.150222118716641

  Charge       = 0
  Multiplicity = 1
  Electrons    = 38
  Nalpha       = 19
  Nbeta        = 19

  ==> Algorithm <==

  SCF Algorithm Type is DF.
  DIIS enabled.
  MOM disabled.
  Fractional occupation disabled.
  Guess Type is SAD.
  Energy threshold   = 1.00e-08
  Density threshold  = 1.00e-08
  Integral threshold = 0.00e+00

  ==> Primary Basis <==

  Basis Set: JUN-CC-PVTZ
    Blend: JUN-CC-PVTZ
    Number of shells: 226
    Number of basis function: 614
    Number of Cartesian functions: 690
    Spherical Harmonics?: true
    Max angular momentum: 3

   => Loading Basis Set <=

    Name: (JUN-CC-PVTZ AUX)
    Role: JKFIT
    Keyword: DF_BASIS_SCF
    atoms 1-5, 14-18  entry C          line   152 file /home/r08543048/miniconda3/share/psi4/basis/jun-cc-pvtz-jkfit.gbs 
    atoms 6-13, 19-26 entry H          line    70 file /home/r08543048/miniconda3/share/psi4/basis/jun-cc-pvtz-jkfit.gbs 

  ==> Pre-Iterations <==

   -------------------------------------------------------
    Irrep   Nso     Nmo     Nalpha   Nbeta   Ndocc  Nsocc
   -------------------------------------------------------
     A        614     614       0       0       0       0
   -------------------------------------------------------
    Total     614     614      19      19      19       0
   -------------------------------------------------------

  ==> Integral Setup <==

  ==> DiskDFJK: Density-Fitted J/K Matrices <==

    J tasked:                  Yes
    K tasked:                  Yes
    wK tasked:                  No
    OpenMP threads:              1
    Integrals threads:           1
    Memory [MiB]:            15735
    Algorithm:                Core
    Integral Cache:           LOAD
    Schwarz Cutoff:          1E-12
    Fitting Condition:       1E-10

   => Auxiliary Basis Set <=

  Basis Set: (JUN-CC-PVTZ AUX)
    Blend: JUN-CC-PVTZ-JKFIT
    Number of shells: 450
    Number of basis function: 1430
    Number of Cartesian functions: 1720
    Spherical Harmonics?: true
    Max angular momentum: 4

  Minimum eigenvalue in the overlap matrix is 1.4533342585E-05.
  Using Symmetric Orthogonalization.

  SCF Guess: Superposition of Atomic Densities via on-the-fly atomic UHF.

  ==> Iterations <==

                           Total Energy        Delta E     RMS |[F,P]|

   @DF-RHF iter SAD:  -193.02806153272400   -1.93028e+02   0.00000e+00 
   @DF-RHF iter   1:  -193.82528776077461   -7.97226e-01   8.75272e-04 DIIS
   @DF-RHF iter   2:  -193.97499651318461   -1.49709e-01   3.62459e-04 DIIS
   @DF-RHF iter   3:  -194.00082762022453   -2.58311e-02   8.36462e-05 DIIS
   @DF-RHF iter   4:  -194.00283201315651   -2.00439e-03   4.26586e-05 DIIS
   @DF-RHF iter   5:  -194.00323223729114   -4.00224e-04   8.16509e-06 DIIS
   @DF-RHF iter   6:  -194.00325026837609   -1.80311e-05   2.45396e-06 DIIS
   @DF-RHF iter   7:  -194.00325219987116   -1.93150e-06   5.41689e-07 DIIS
   @DF-RHF iter   8:  -194.00325242340335   -2.23532e-07   2.51957e-07 DIIS
   @DF-RHF iter   9:  -194.00325249795469   -7.45513e-08   1.32262e-07 DIIS
   @DF-RHF iter  10:  -194.00325252402891   -2.60742e-08   4.23920e-08 DIIS
   @DF-RHF iter  11:  -194.00325252606777   -2.03886e-09   9.98904e-09 DIIS
  Energy and wave function converged.


  ==> Post-Iterations <==

    Orbital Energies [Eh]
    ---------------------

    Doubly Occupied:                                                      

       1A    -11.250074     2A    -11.235779     3A    -11.229233  
       4A    -11.221626     5A    -11.218115     6A     -1.094048  
       7A     -1.016459     8A     -0.940281     9A     -0.823428  
      10A     -0.718477    11A     -0.649308    12A     -0.640756  
      13A     -0.579120    14A     -0.560085    15A     -0.513287  
      16A     -0.496650    17A     -0.486519    18A     -0.379128  
      19A     -0.377992  

    Virtual:                                                              

      20A      0.029991    21A      0.040527    22A      0.048886  
      23A      0.050448    24A      0.060433    25A      0.063557  
      26A      0.069751    27A      0.081193    28A      0.082940  
      29A      0.084589    30A      0.092733    31A      0.099840  
      32A      0.101396    33A      0.104366    34A      0.105617  
      35A      0.116869    36A      0.120463    37A      0.120950  
      38A      0.127373    39A      0.131339    40A      0.134984  
      41A      0.144116    42A      0.152050    43A      0.154141  
      44A      0.157203    45A      0.161526    46A      0.165638  
      47A      0.174873    48A      0.179238    49A      0.181467  
      50A      0.183841    51A      0.185580    52A      0.196625  
      53A      0.199411    54A      0.202120    55A      0.205755  
      56A      0.208495    57A      0.219555    58A      0.220580  
      59A      0.226883    60A      0.228654    61A      0.239660  
      62A      0.248150    63A      0.253365    64A      0.265765  
      65A      0.273382    66A      0.281410    67A      0.292224  
      68A      0.296674    69A      0.303118    70A      0.308315  
      71A      0.311674    72A      0.324060    73A      0.326382  
      74A      0.329718    75A      0.334062    76A      0.338924  
      77A      0.339515    78A      0.348057    79A      0.351976  
      80A      0.357228    81A      0.361507    82A      0.364090  
      83A      0.369800    84A      0.375371    85A      0.381554  
      86A      0.390037    87A      0.394205    88A      0.395785  
      89A      0.406765    90A      0.407490    91A      0.409870  
      92A      0.414970    93A      0.419219    94A      0.429262  
      95A      0.430783    96A      0.435373    97A      0.446433  
      98A      0.448387    99A      0.454371   100A      0.460668  
     101A      0.467434   102A      0.470510   103A      0.484726  
     104A      0.486559   105A      0.489087   106A      0.503043  
     107A      0.507733   108A      0.512521   109A      0.520337  
     110A      0.529805   111A      0.535415   112A      0.537750  
     113A      0.547120   114A      0.551736   115A      0.552975  
     116A      0.564999   117A      0.568971   118A      0.572748  
     119A      0.574885   120A      0.579882   121A      0.588166  
     122A      0.592226   123A      0.596904   124A      0.612293  
     125A      0.615140   126A      0.620550   127A      0.626291  
     128A      0.630453   129A      0.644738   130A      0.651592  
     131A      0.656056   132A      0.657731   133A      0.664032  
     134A      0.670876   135A      0.676849   136A      0.686170  
     137A      0.695091   138A      0.698543   139A      0.707856  
     140A      0.717678   141A      0.719685   142A      0.726673  
     143A      0.732956   144A      0.741366   145A      0.744254  
     146A      0.758425   147A      0.774741   148A      0.784520  
     149A      0.788580   150A      0.798457   151A      0.806296  
     152A      0.809684   153A      0.813983   154A      0.831722  
     155A      0.848018   156A      0.851652   157A      0.863222  
     158A      0.865612   159A      0.873606   160A      0.881906  
     161A      0.889102   162A      0.902892   163A      0.910491  
     164A      0.920281   165A      0.930375   166A      0.957861  
     167A      0.963030   168A      0.975051   169A      0.985163  
     170A      0.999226   171A      1.016893   172A      1.021187  
     173A      1.026351   174A      1.050755   175A      1.053301  
     176A      1.066096   177A      1.085018   178A      1.095993  
     179A      1.106158   180A      1.110775   181A      1.121796  
     182A      1.131743   183A      1.147106   184A      1.147792  
     185A      1.161978   186A      1.173096   187A      1.188230  
     188A      1.193797   189A      1.204830   190A      1.209396  
     191A      1.221453   192A      1.226702   193A      1.233574  
     194A      1.240692   195A      1.246099   196A      1.261711  
     197A      1.265191   198A      1.270955   199A      1.279766  
     200A      1.283385   201A      1.295559   202A      1.300697  
     203A      1.301378   204A      1.322101   205A      1.329535  
     206A      1.335586   207A      1.340953   208A      1.350556  
     209A      1.355803   210A      1.367499   211A      1.378987  
     212A      1.381250   213A      1.390089   214A      1.395538  
     215A      1.400223   216A      1.404680   217A      1.416541  
     218A      1.423798   219A      1.429741   220A      1.435076  
     221A      1.443336   222A      1.445838   223A      1.461277  
     224A      1.468131   225A      1.471732   226A      1.480093  
     227A      1.486927   228A      1.497923   229A      1.506297  
     230A      1.515480   231A      1.523299   232A      1.532592  
     233A      1.537152   234A      1.544621   235A      1.548949  
     236A      1.554469   237A      1.577151   238A      1.580455  
     239A      1.590338   240A      1.599596   241A      1.603343  
     242A      1.612692   243A      1.618695   244A      1.626174  
     245A      1.634040   246A      1.649333   247A      1.650757  
     248A      1.653800   249A      1.671461   250A      1.679279  
     251A      1.689855   252A      1.699607   253A      1.717239  
     254A      1.718406   255A      1.741844   256A      1.745041  
     257A      1.752791   258A      1.757446   259A      1.766402  
     260A      1.773411   261A      1.786750   262A      1.797078  
     263A      1.811373   264A      1.827369   265A      1.836806  
     266A      1.853626   267A      1.860208   268A      1.878591  
     269A      1.892445   270A      1.897491   271A      1.919074  
     272A      1.934775   273A      1.944312   274A      1.959751  
     275A      1.966254   276A      1.981317   277A      1.994794  
     278A      2.009878   279A      2.045841   280A      2.064266  
     281A      2.099190   282A      2.135770   283A      2.158069  
     284A      2.170952   285A      2.189967   286A      2.206614  
     287A      2.221966   288A      2.268368   289A      2.298706  
     290A      2.333505   291A      2.384398   292A      2.391293  
     293A      2.406941   294A      2.446142   295A      2.470066  
     296A      2.480370   297A      2.527332   298A      2.548948  
     299A      2.591203   300A      2.609356   301A      2.632665  
     302A      2.669559   303A      2.706577   304A      2.744859  
     305A      2.755417   306A      2.772669   307A      2.788898  
     308A      2.804487   309A      2.850948   310A      2.866883  
     311A      2.874138   312A      2.892921   313A      2.906532  
     314A      2.915161   315A      2.917107   316A      2.938400  
     317A      2.952392   318A      2.973756   319A      2.980160  
     320A      2.995951   321A      3.008320   322A      3.027180  
     323A      3.062162   324A      3.065975   325A      3.118942  
     326A      3.126326   327A      3.146670   328A      3.164257  
     329A      3.174369   330A      3.222876   331A      3.225809  
     332A      3.244862   333A      3.250583   334A      3.260722  
     335A      3.274799   336A      3.293319   337A      3.300714  
     338A      3.303568   339A      3.317669   340A      3.333908  
     341A      3.342719   342A      3.347675   343A      3.363305  
     344A      3.376563   345A      3.381448   346A      3.384638  
     347A      3.412317   348A      3.421910   349A      3.442457  
     350A      3.459589   351A      3.476669   352A      3.482047  
     353A      3.489678   354A      3.506337   355A      3.513078  
     356A      3.519200   357A      3.539673   358A      3.544073  
     359A      3.554735   360A      3.563789   361A      3.566970  
     362A      3.574616   363A      3.587916   364A      3.595808  
     365A      3.602057   366A      3.607556   367A      3.613822  
     368A      3.624495   369A      3.636885   370A      3.639943  
     371A      3.667194   372A      3.681547   373A      3.685406  
     374A      3.691410   375A      3.701844   376A      3.713857  
     377A      3.719938   378A      3.724380   379A      3.755952  
     380A      3.773866   381A      3.787879   382A      3.790579  
     383A      3.796057   384A      3.802431   385A      3.818602  
     386A      3.823450   387A      3.829295   388A      3.849789  
     389A      3.853816   390A      3.872952   391A      3.881969  
     392A      3.890895   393A      3.897631   394A      3.902655  
     395A      3.910416   396A      3.935394   397A      3.939006  
     398A      3.950973   399A      3.959189   400A      3.966046  
     401A      3.996108   402A      4.003220   403A      4.021818  
     404A      4.033853   405A      4.065178   406A      4.068255  
     407A      4.074206   408A      4.081509   409A      4.090724  
     410A      4.097665   411A      4.122329   412A      4.123612  
     413A      4.149351   414A      4.162797   415A      4.169997  
     416A      4.183560   417A      4.188912   418A      4.205195  
     419A      4.210657   420A      4.225133   421A      4.246876  
     422A      4.255182   423A      4.263891   424A      4.273817  
     425A      4.278852   426A      4.290360   427A      4.292978  
     428A      4.312336   429A      4.315197   430A      4.345139  
     431A      4.355665   432A      4.362615   433A      4.364609  
     434A      4.383253   435A      4.388193   436A      4.389041  
     437A      4.409724   438A      4.426539   439A      4.431686  
     440A      4.433641   441A      4.466054   442A      4.479326  
     443A      4.485041   444A      4.499561   445A      4.499715  
     446A      4.511789   447A      4.525931   448A      4.535055  
     449A      4.542201   450A      4.552846   451A      4.560731  
     452A      4.574020   453A      4.589499   454A      4.596607  
     455A      4.605356   456A      4.610759   457A      4.627042  
     458A      4.632567   459A      4.642085   460A      4.662745  
     461A      4.666992   462A      4.675324   463A      4.686421  
     464A      4.689207   465A      4.702608   466A      4.711464  
     467A      4.716980   468A      4.729359   469A      4.733173  
     470A      4.748882   471A      4.761719   472A      4.763695  
     473A      4.771846   474A      4.785669   475A      4.804605  
     476A      4.810303   477A      4.817322   478A      4.822489  
     479A      4.831682   480A      4.841395   481A      4.860388  
     482A      4.866610   483A      4.887250   484A      4.889312  
     485A      4.895107   486A      4.911261   487A      4.917997  
     488A      4.924973   489A      4.931696   490A      4.933778  
     491A      4.951229   492A      4.957097   493A      4.964972  
     494A      4.980578   495A      5.002210   496A      5.018820  
     497A      5.030592   498A      5.051780   499A      5.065350  
     500A      5.083346   501A      5.085761   502A      5.103551  
     503A      5.110319   504A      5.118590   505A      5.132184  
     506A      5.149371   507A      5.157305   508A      5.189169  
     509A      5.197257   510A      5.218557   511A      5.219982  
     512A      5.237507   513A      5.275438   514A      5.283132  
     515A      5.290233   516A      5.295792   517A      5.317002  
     518A      5.341689   519A      5.359384   520A      5.374051  
     521A      5.382095   522A      5.393777   523A      5.421671  
     524A      5.465015   525A      5.487243   526A      5.492634  
     527A      5.537094   528A      5.549094   529A      5.590875  
     530A      5.615622   531A      5.620781   532A      5.633766  
     533A      5.650884   534A      5.656970   535A      5.661928  
     536A      5.673912   537A      5.698243   538A      5.759199  
     539A      5.763255   540A      5.776706   541A      5.802052  
     542A      5.807615   543A      5.838092   544A      5.910175  
     545A      5.920415   546A      5.930002   547A      5.959796  
     548A      5.965304   549A      5.972468   550A      5.977320  
     551A      5.998102   552A      6.014818   553A      6.075440  
     554A      6.081021   555A      6.163785   556A      6.202886  
     557A      6.213780   558A      6.263473   559A      6.276778  
     560A      6.357559   561A      6.368626   562A      6.372525  
     563A      6.390560   564A      6.408604   565A      6.428633  
     566A      6.442392   567A      6.477160   568A      6.490149  
     569A      6.506530   570A      6.517015   571A      6.528860  
     572A      6.540828   573A      6.591846   574A      6.607488  
     575A      6.687333   576A      6.789211   577A      6.795479  
     578A      6.830980   579A      6.978358   580A      7.047387  
     581A      7.060683   582A      7.165764   583A      7.300660  
     584A      7.353383   585A      7.368457   586A      7.503023  
     587A      7.566468   588A      7.581030   589A      7.671613  
     590A      7.697972   591A      7.717081   592A      7.833604  
     593A      7.879110   594A      7.895966   595A      8.084036  
     596A      8.172123   597A      8.335625   598A      8.469032  
     599A      8.718727   600A      9.653223   601A      9.697453  
     602A      9.923574   603A     10.719258   604A     10.993423  
     605A     11.708068   606A     13.939261   607A     14.598411  
     608A     14.816729   609A     18.546333   610A     37.768545  
     611A     44.417759   612A     45.775479   613A     46.584149  
     614A     53.524955  

    Final Occupation by Irrep:
              A 
    DOCC [    19 ]

  @DF-RHF Final Energy:  -194.00325252606777

   => Energetics <=

    Nuclear Repulsion Energy =            154.1502221187166413
    One-Electron Energy =                -565.4462114732266400
    Two-Electron Energy =                 217.2927368284422016
    Total Energy =                       -194.0032525260677687

Computation Completed


Properties will be evaluated at   0.000000,   0.000000,   0.000000 [a0]

Properties computed using the SCF density matrix

  Nuclear Dipole Moment: [e a0]
     X:   112.0012      Y:    73.6588      Z:    -1.0115

  Electronic Dipole Moment: [e a0]
     X:  -111.7235      Y:   -73.8869      Z:     0.9877

  Dipole Moment: [e a0]
     X:     0.2777      Y:    -0.2281      Z:    -0.0239     Total:     0.3602

  Dipole Moment: [D]
     X:     0.7059      Y:    -0.5799      Z:    -0.0607     Total:     0.9156


*** tstop() called on r282 at Thu Sep  9 12:35:26 2021
Module time:
	user time   =      89.60 seconds =       1.49 minutes
	system time =       1.16 seconds =       0.02 minutes
	total time  =         91 seconds =       1.52 minutes
Total time:
	user time   =     238.57 seconds =       3.98 minutes
	system time =       3.62 seconds =       0.06 minutes
	total time  =        242 seconds =       4.03 minutes

  //>>>>>>>>>>>>>>>>>>>>>>>>>>>>>>>>>>>//
  //            Monomer B HF           //
  //<<<<<<<<<<<<<<<<<<<<<<<<<<<<<<<<<<<//


*** tstart() called on r282
*** at Thu Sep  9 12:35:26 2021

   => Loading Basis Set <=

    Name: JUN-CC-PVTZ
    Role: ORBITAL
    Keyword: BASIS
    atoms 1-5, 14-18  entry C          line   217 file /home/r08543048/miniconda3/share/psi4/basis/jun-cc-pvtz.gbs 
    atoms 6-13, 19-26 entry H          line    36 file /home/r08543048/miniconda3/share/psi4/basis/jun-cc-pvtz.gbs 


         ---------------------------------------------------------
                                   SCF
               by Justin Turney, Rob Parrish, Andy Simmonett
                          and Daniel G. A. Smith
                              RHF Reference
                        1 Threads,  20980 MiB Core
         ---------------------------------------------------------

  ==> Geometry <==

    Molecular point group: c1
    Full point group: C1

    Geometry (in Angstrom), charge = 0, multiplicity = 1:

       Center              X                  Y                   Z               Mass       
    ------------   -----------------  -----------------  -----------------  -----------------
      Gh(C)           3.368396077490    -0.439764913358     0.007759785688    12.000000000000
      Gh(C)           2.271006077490     0.482904086642     0.518046785688    12.000000000000
      Gh(C)           1.418845077490     1.016930086642    -0.637019214312    12.000000000000
      Gh(C)           0.398003077490     1.957931086642    -0.189994214312    12.000000000000
      Gh(C)          -0.431946922510     2.748465086642     0.220407785688    12.000000000000
      Gh(H)           4.038276077490     0.090771086642    -0.670386214312     1.007825032230
      Gh(H)           3.965282077490    -0.836321913358     0.828207785688     1.007825032230
      Gh(H)           2.936713077490    -1.282126913358    -0.533305214312     1.007825032230
      Gh(H)           1.624470077490    -0.053805913358     1.214309785688     1.007825032230
      Gh(H)           2.701821077490     1.325578086642     1.061598785688     1.007825032230
      Gh(H)           2.064233077490     1.512191086642    -1.367336214312     1.007825032230
      Gh(H)           0.944506077490     0.175344086642    -1.149018214312     1.007825032230
      Gh(H)          -1.152649922510     3.448121086642     0.565451785688     1.007825032230
         C           -3.368843922510     0.439254086642    -0.004578214312    12.000000000000
         C           -2.272339922510    -0.483474913358    -0.516663214312    12.000000000000
         C           -1.417865922510    -1.016975913358     0.636936785688    12.000000000000
         C           -0.397280922510    -1.957402913358     0.188113785688    12.000000000000
         C            0.432194077490    -2.747674913358    -0.223752214312    12.000000000000
         H           -2.936192922510     1.281926086642     0.535232785688     1.007825032230
         H           -3.967457922510     0.835341086642    -0.823994214312     1.007825032230
         H           -4.037267922510    -0.091073913358     0.675163785688     1.007825032230
         H           -2.704110922510    -1.326416913358    -1.059046214312     1.007825032230
         H           -1.627240922510     0.053005086642    -1.214429214312     1.007825032230
         H           -0.943172922510    -0.175131913358     1.148170785688     1.007825032230
         H           -2.061705922510    -1.512617913358     1.368359785688     1.007825032230
         H            1.152512077490    -3.447054913358    -0.570143214312     1.007825032230

  Running in c1 symmetry.

  Rotational constants: A =      0.04456  B =      0.02803  C =      0.01846 [cm^-1]
  Rotational constants: A =   1335.86602  B =    840.26231  C =    553.51936 [MHz]
  Nuclear repulsion =  154.150415761222376

  Charge       = 0
  Multiplicity = 1
  Electrons    = 38
  Nalpha       = 19
  Nbeta        = 19

  ==> Algorithm <==

  SCF Algorithm Type is DF.
  DIIS enabled.
  MOM disabled.
  Fractional occupation disabled.
  Guess Type is SAD.
  Energy threshold   = 1.00e-08
  Density threshold  = 1.00e-08
  Integral threshold = 0.00e+00

  ==> Primary Basis <==

  Basis Set: JUN-CC-PVTZ
    Blend: JUN-CC-PVTZ
    Number of shells: 226
    Number of basis function: 614
    Number of Cartesian functions: 690
    Spherical Harmonics?: true
    Max angular momentum: 3

   => Loading Basis Set <=

    Name: (JUN-CC-PVTZ AUX)
    Role: JKFIT
    Keyword: DF_BASIS_SCF
    atoms 1-5, 14-18  entry C          line   152 file /home/r08543048/miniconda3/share/psi4/basis/jun-cc-pvtz-jkfit.gbs 
    atoms 6-13, 19-26 entry H          line    70 file /home/r08543048/miniconda3/share/psi4/basis/jun-cc-pvtz-jkfit.gbs 

  ==> Pre-Iterations <==

   -------------------------------------------------------
    Irrep   Nso     Nmo     Nalpha   Nbeta   Ndocc  Nsocc
   -------------------------------------------------------
     A        614     614       0       0       0       0
   -------------------------------------------------------
    Total     614     614      19      19      19       0
   -------------------------------------------------------

  ==> Integral Setup <==

  ==> DiskDFJK: Density-Fitted J/K Matrices <==

    J tasked:                  Yes
    K tasked:                  Yes
    wK tasked:                  No
    OpenMP threads:              1
    Integrals threads:           1
    Memory [MiB]:            15735
    Algorithm:                Core
    Integral Cache:           LOAD
    Schwarz Cutoff:          1E-12
    Fitting Condition:       1E-10

   => Auxiliary Basis Set <=

  Basis Set: (JUN-CC-PVTZ AUX)
    Blend: JUN-CC-PVTZ-JKFIT
    Number of shells: 450
    Number of basis function: 1430
    Number of Cartesian functions: 1720
    Spherical Harmonics?: true
    Max angular momentum: 4

  Minimum eigenvalue in the overlap matrix is 1.4533342585E-05.
  Using Symmetric Orthogonalization.

  SCF Guess: Superposition of Atomic Densities via on-the-fly atomic UHF.

  ==> Iterations <==

                           Total Energy        Delta E     RMS |[F,P]|

   @DF-RHF iter SAD:  -193.02805770386198   -1.93028e+02   0.00000e+00 
   @DF-RHF iter   1:  -193.82528908985179   -7.97231e-01   8.75271e-04 DIIS
   @DF-RHF iter   2:  -193.97499715058308   -1.49708e-01   3.62459e-04 DIIS
   @DF-RHF iter   3:  -194.00082833718741   -2.58312e-02   8.36467e-05 DIIS
   @DF-RHF iter   4:  -194.00283273743497   -2.00440e-03   4.26589e-05 DIIS
   @DF-RHF iter   5:  -194.00323296868675   -4.00231e-04   8.16514e-06 DIIS
   @DF-RHF iter   6:  -194.00325100002431   -1.80313e-05   2.45399e-06 DIIS
   @DF-RHF iter   7:  -194.00325293162555   -1.93160e-06   5.41728e-07 DIIS
   @DF-RHF iter   8:  -194.00325315520490   -2.23579e-07   2.51986e-07 DIIS
   @DF-RHF iter   9:  -194.00325322978534   -7.45804e-08   1.32272e-07 DIIS
   @DF-RHF iter  10:  -194.00325325585462   -2.60693e-08   4.23918e-08 DIIS
   @DF-RHF iter  11:  -194.00325325789095   -2.03633e-09   9.98869e-09 DIIS
  Energy and wave function converged.


  ==> Post-Iterations <==

    Orbital Energies [Eh]
    ---------------------

    Doubly Occupied:                                                      

       1A    -11.250073     2A    -11.235780     3A    -11.229233  
       4A    -11.221626     5A    -11.218115     6A     -1.094048  
       7A     -1.016458     8A     -0.940281     9A     -0.823429  
      10A     -0.718480    11A     -0.649302    12A     -0.640759  
      13A     -0.579124    14A     -0.560080    15A     -0.513287  
      16A     -0.496653    17A     -0.486516    18A     -0.379129  
      19A     -0.377992  

    Virtual:                                                              

      20A      0.029992    21A      0.040532    22A      0.048882  
      23A      0.050449    24A      0.060435    25A      0.063558  
      26A      0.069751    27A      0.081154    28A      0.082980  
      29A      0.084585    30A      0.092733    31A      0.099831  
      32A      0.101409    33A      0.104358    34A      0.105629  
      35A      0.116863    36A      0.120467    37A      0.120954  
      38A      0.127363    39A      0.131341    40A      0.134998  
      41A      0.144124    42A      0.152042    43A      0.154125  
      44A      0.157210    45A      0.161587    46A      0.165587  
      47A      0.174885    48A      0.179212    49A      0.181432  
      50A      0.183871    51A      0.185601    52A      0.196639  
      53A      0.199396    54A      0.202136    55A      0.205754  
      56A      0.208505    57A      0.219571    58A      0.220573  
      59A      0.226882    60A      0.228664    61A      0.239657  
      62A      0.248137    63A      0.253384    64A      0.265777  
      65A      0.273354    66A      0.281414    67A      0.292164  
      68A      0.296648    69A      0.303113    70A      0.308299  
      71A      0.311688    72A      0.324043    73A      0.326405  
      74A      0.329730    75A      0.334083    76A      0.338949  
      77A      0.339498    78A      0.348094    79A      0.351950  
      80A      0.357209    81A      0.361533    82A      0.364094  
      83A      0.369911    84A      0.375313    85A      0.381471  
      86A      0.390020    87A      0.394179    88A      0.395756  
      89A      0.406810    90A      0.407506    91A      0.409875  
      92A      0.414982    93A      0.419227    94A      0.429255  
      95A      0.430837    96A      0.435364    97A      0.446377  
      98A      0.448478    99A      0.454423   100A      0.460706  
     101A      0.467462   102A      0.470548   103A      0.484659  
     104A      0.486535   105A      0.489110   106A      0.503051  
     107A      0.507687   108A      0.512569   109A      0.520285  
     110A      0.529797   111A      0.535497   112A      0.537740  
     113A      0.547049   114A      0.551750   115A      0.552929  
     116A      0.564946   117A      0.569094   118A      0.572655  
     119A      0.575023   120A      0.579816   121A      0.588161  
     122A      0.592203   123A      0.596968   124A      0.612316  
     125A      0.615104   126A      0.620494   127A      0.626281  
     128A      0.630403   129A      0.644822   130A      0.651611  
     131A      0.656091   132A      0.657681   133A      0.664080  
     134A      0.670787   135A      0.676949   136A      0.686121  
     137A      0.695095   138A      0.698592   139A      0.707976  
     140A      0.717805   141A      0.719619   142A      0.726686  
     143A      0.732937   144A      0.741261   145A      0.744193  
     146A      0.758376   147A      0.774802   148A      0.784608  
     149A      0.788484   150A      0.798513   151A      0.806249  
     152A      0.809669   153A      0.813906   154A      0.831750  
     155A      0.847912   156A      0.851706   157A      0.863234  
     158A      0.865529   159A      0.873581   160A      0.881927  
     161A      0.889099   162A      0.902925   163A      0.910458  
     164A      0.920309   165A      0.930381   166A      0.957812  
     167A      0.963053   168A      0.975056   169A      0.985303  
     170A      0.999202   171A      1.016843   172A      1.021189  
     173A      1.026353   174A      1.050782   175A      1.053251  
     176A      1.066171   177A      1.084932   178A      1.096013  
     179A      1.106190   180A      1.110785   181A      1.121772  
     182A      1.131632   183A      1.147185   184A      1.147788  
     185A      1.162023   186A      1.173170   187A      1.188222  
     188A      1.193743   189A      1.204890   190A      1.209364  
     191A      1.221444   192A      1.226856   193A      1.233603  
     194A      1.240761   195A      1.246098   196A      1.261657  
     197A      1.265380   198A      1.271105   199A      1.279803  
     200A      1.283430   201A      1.295594   202A      1.300577  
     203A      1.301459   204A      1.322055   205A      1.329471  
     206A      1.335576   207A      1.340968   208A      1.350629  
     209A      1.355795   210A      1.367630   211A      1.379050  
     212A      1.381229   213A      1.389987   214A      1.395651  
     215A      1.400362   216A      1.404694   217A      1.416527  
     218A      1.423668   219A      1.429582   220A      1.435149  
     221A      1.443308   222A      1.445767   223A      1.461223  
     224A      1.468156   225A      1.471834   226A      1.480155  
     227A      1.486966   228A      1.497885   229A      1.506196  
     230A      1.515472   231A      1.523345   232A      1.532550  
     233A      1.537100   234A      1.544578   235A      1.548732  
     236A      1.554522   237A      1.577307   238A      1.580393  
     239A      1.590328   240A      1.599690   241A      1.603281  
     242A      1.612658   243A      1.618594   244A      1.626098  
     245A      1.634085   246A      1.649368   247A      1.650924  
     248A      1.653793   249A      1.671490   250A      1.679227  
     251A      1.689801   252A      1.699571   253A      1.717138  
     254A      1.718447   255A      1.741870   256A      1.745047  
     257A      1.752782   258A      1.757183   259A      1.766440  
     260A      1.773437   261A      1.786866   262A      1.797176  
     263A      1.811332   264A      1.827204   265A      1.836795  
     266A      1.853529   267A      1.860100   268A      1.878705  
     269A      1.892632   270A      1.897433   271A      1.919005  
     272A      1.934723   273A      1.944344   274A      1.959643  
     275A      1.966327   276A      1.981318   277A      1.994861  
     278A      2.010012   279A      2.045788   280A      2.064293  
     281A      2.099192   282A      2.135737   283A      2.158116  
     284A      2.171006   285A      2.189869   286A      2.206708  
     287A      2.221953   288A      2.268314   289A      2.298643  
     290A      2.333438   291A      2.384413   292A      2.391338  
     293A      2.407074   294A      2.446128   295A      2.470042  
     296A      2.480535   297A      2.527348   298A      2.548864  
     299A      2.591271   300A      2.609329   301A      2.632715  
     302A      2.669467   303A      2.706721   304A      2.744860  
     305A      2.755419   306A      2.772843   307A      2.788993  
     308A      2.804484   309A      2.850972   310A      2.867031  
     311A      2.874134   312A      2.892870   313A      2.906489  
     314A      2.915133   315A      2.917076   316A      2.938551  
     317A      2.952480   318A      2.973798   319A      2.980190  
     320A      2.995972   321A      3.008314   322A      3.027242  
     323A      3.062192   324A      3.065977   325A      3.118979  
     326A      3.126332   327A      3.146659   328A      3.164255  
     329A      3.174368   330A      3.222872   331A      3.225768  
     332A      3.244920   333A      3.250618   334A      3.260750  
     335A      3.274810   336A      3.293290   337A      3.300753  
     338A      3.303495   339A      3.317557   340A      3.333850  
     341A      3.342747   342A      3.347714   343A      3.363337  
     344A      3.376500   345A      3.381307   346A      3.384642  
     347A      3.412322   348A      3.422016   349A      3.442482  
     350A      3.459609   351A      3.476705   352A      3.482029  
     353A      3.489706   354A      3.506314   355A      3.513061  
     356A      3.519182   357A      3.539651   358A      3.544161  
     359A      3.554705   360A      3.563863   361A      3.566984  
     362A      3.574650   363A      3.587930   364A      3.595807  
     365A      3.602071   366A      3.607578   367A      3.613827  
     368A      3.624537   369A      3.636981   370A      3.639923  
     371A      3.667116   372A      3.681412   373A      3.685467  
     374A      3.691417   375A      3.701875   376A      3.713826  
     377A      3.719959   378A      3.724332   379A      3.755959  
     380A      3.773797   381A      3.787882   382A      3.790566  
     383A      3.796050   384A      3.802436   385A      3.818614  
     386A      3.823489   387A      3.829260   388A      3.849760  
     389A      3.853723   390A      3.872996   391A      3.882081  
     392A      3.890832   393A      3.897727   394A      3.902622  
     395A      3.910479   396A      3.935349   397A      3.939048  
     398A      3.950922   399A      3.959174   400A      3.966057  
     401A      3.996163   402A      4.003259   403A      4.021778  
     404A      4.033753   405A      4.065170   406A      4.068266  
     407A      4.074184   408A      4.081610   409A      4.090718  
     410A      4.097526   411A      4.122233   412A      4.123612  
     413A      4.149421   414A      4.162825   415A      4.169994  
     416A      4.183520   417A      4.188906   418A      4.205154  
     419A      4.210865   420A      4.225064   421A      4.246825  
     422A      4.255176   423A      4.263888   424A      4.273795  
     425A      4.278834   426A      4.290370   427A      4.293005  
     428A      4.312323   429A      4.315235   430A      4.345066  
     431A      4.355786   432A      4.362585   433A      4.364607  
     434A      4.383272   435A      4.388203   436A      4.389005  
     437A      4.409586   438A      4.426514   439A      4.431655  
     440A      4.433731   441A      4.466007   442A      4.479307  
     443A      4.485130   444A      4.499497   445A      4.499692  
     446A      4.511779   447A      4.525952   448A      4.535106  
     449A      4.542149   450A      4.552907   451A      4.560734  
     452A      4.573993   453A      4.589513   454A      4.596589  
     455A      4.605378   456A      4.610797   457A      4.627141  
     458A      4.632532   459A      4.641938   460A      4.662784  
     461A      4.667042   462A      4.675325   463A      4.686324  
     464A      4.689133   465A      4.702524   466A      4.711379  
     467A      4.717137   468A      4.729444   469A      4.733185  
     470A      4.748858   471A      4.761696   472A      4.763740  
     473A      4.771819   474A      4.785670   475A      4.804567  
     476A      4.810294   477A      4.817208   478A      4.822499  
     479A      4.831540   480A      4.841364   481A      4.860485  
     482A      4.866475   483A      4.887238   484A      4.889390  
     485A      4.895129   486A      4.911275   487A      4.917910  
     488A      4.924937   489A      4.931713   490A      4.933759  
     491A      4.951251   492A      4.957081   493A      4.965052  
     494A      4.980567   495A      5.002249   496A      5.019005  
     497A      5.030626   498A      5.051872   499A      5.065386  
     500A      5.083439   501A      5.085809   502A      5.103598  
     503A      5.110165   504A      5.118515   505A      5.132305  
     506A      5.149323   507A      5.157361   508A      5.189058  
     509A      5.197392   510A      5.218522   511A      5.220014  
     512A      5.237571   513A      5.275404   514A      5.283077  
     515A      5.290195   516A      5.295841   517A      5.316886  
     518A      5.341698   519A      5.359454   520A      5.374093  
     521A      5.382086   522A      5.393839   523A      5.421575  
     524A      5.465036   525A      5.487273   526A      5.492589  
     527A      5.537146   528A      5.549093   529A      5.590896  
     530A      5.615619   531A      5.620810   532A      5.633732  
     533A      5.650862   534A      5.656904   535A      5.662076  
     536A      5.673937   537A      5.698244   538A      5.759181  
     539A      5.763241   540A      5.776708   541A      5.802057  
     542A      5.807642   543A      5.838174   544A      5.910199  
     545A      5.920200   546A      5.930095   547A      5.959868  
     548A      5.965313   549A      5.972421   550A      5.977227  
     551A      5.998083   552A      6.014827   553A      6.075485  
     554A      6.081051   555A      6.163780   556A      6.202846  
     557A      6.213846   558A      6.263583   559A      6.276804  
     560A      6.357489   561A      6.368634   562A      6.372624  
     563A      6.390608   564A      6.408581   565A      6.428665  
     566A      6.442367   567A      6.477242   568A      6.490109  
     569A      6.506565   570A      6.517036   571A      6.528803  
     572A      6.540809   573A      6.591749   574A      6.607540  
     575A      6.687321   576A      6.789298   577A      6.795482  
     578A      6.830984   579A      6.978424   580A      7.047307  
     581A      7.060674   582A      7.165708   583A      7.300705  
     584A      7.353417   585A      7.368393   586A      7.503017  
     587A      7.566479   588A      7.581134   589A      7.671617  
     590A      7.697947   591A      7.717145   592A      7.833624  
     593A      7.879136   594A      7.895992   595A      8.084090  
     596A      8.172143   597A      8.335615   598A      8.469042  
     599A      8.718778   600A      9.653214   601A      9.697515  
     602A      9.923637   603A     10.719640   604A     10.993386  
     605A     11.708067   606A     13.939115   607A     14.598254  
     608A     14.816963   609A     18.546492   610A     37.767543  
     611A     44.417946   612A     45.775709   613A     46.583804  
     614A     53.524653  

    Final Occupation by Irrep:
              A 
    DOCC [    19 ]

  @DF-RHF Final Energy:  -194.00325325789095

   => Energetics <=

    Nuclear Repulsion Energy =            154.1504157612223764
    One-Electron Energy =                -565.4465981909762604
    Two-Electron Energy =                 217.2929291718629656
    Total Energy =                       -194.0032532578909468

Computation Completed


Properties will be evaluated at   0.000000,   0.000000,   0.000000 [a0]

Properties computed using the SCF density matrix

  Nuclear Dipole Moment: [e a0]
     X:  -112.0030      Y:   -73.6609      Z:     1.0198

  Electronic Dipole Moment: [e a0]
     X:   111.7252      Y:    73.8888      Z:    -0.9955

  Dipole Moment: [e a0]
     X:    -0.2779      Y:     0.2279      Z:     0.0243     Total:     0.3602

  Dipole Moment: [D]
     X:    -0.7063      Y:     0.5793      Z:     0.0618     Total:     0.9156


*** tstop() called on r282 at Thu Sep  9 12:36:49 2021
Module time:
	user time   =      81.67 seconds =       1.36 minutes
	system time =       1.16 seconds =       0.02 minutes
	total time  =         83 seconds =       1.38 minutes
Total time:
	user time   =     320.24 seconds =       5.34 minutes
	system time =       4.78 seconds =       0.08 minutes
	total time  =        325 seconds =       5.42 minutes
  Constructing Basis Sets for SAPT...

   => Loading Basis Set <=

    Name: (JUN-CC-PVTZ AUX)
    Role: RIFIT
    Keyword: DF_BASIS_SAPT
    atoms 1-5, 14-18  entry C          line   132 file /home/r08543048/miniconda3/share/psi4/basis/jun-cc-pvtz-ri.gbs 
    atoms 6-13, 19-26 entry H          line    30 file /home/r08543048/miniconda3/share/psi4/basis/jun-cc-pvtz-ri.gbs 


  //>>>>>>>>>>>>>>>>>>>>>>>>>>>>>>>>>>>//
  //               SAPT0               //
  //<<<<<<<<<<<<<<<<<<<<<<<<<<<<<<<<<<<//


*** tstart() called on r282
*** at Thu Sep  9 12:36:49 2021

        SAPT0  
    Ed Hohenstein
     6 June 2009

      Orbital Information
  --------------------------
    NSO        =       614
    NMO        =       614
    NRI        =      1450
    NOCC A     =        19
    NOCC B     =        19
    FOCC A     =         5
    FOCC B     =         5
    NVIR A     =       595
    NVIR B     =       595

    Elst10,r            =    -0.006579506257 [Eh]
    Exch10              =     0.012438037741 [Eh]
    Exch10 (S^2)        =     0.012406227661 [Eh]

    Iter     Energy [mEh]          dE [mEh]         Residual      Time [s]
       1      -1.55270125       1.552701252       6.010228456             2
       2      -1.89416697       0.341465715       2.577394816             4
       3      -1.94520617       0.051039206       0.724883485             6
       4      -1.94178711      -0.003419059       0.297840695             8
       5      -1.93713365      -0.004653466       0.084417691            10
       6      -1.93710057      -0.000033073       0.034931821            12
       7      -1.93766517       0.000564596       0.016965468            14
       8      -1.93748515      -0.000180019       0.006554460            16
       9      -1.93744623      -0.000038917       0.001572142            18
      10      -1.93745884       0.000012603       0.000466010            21
      11      -1.93746077       0.000001937       0.000107559            23
      12      -1.93745980      -0.000000979       0.000024758            25
      13      -1.93745982       0.000000028       0.000006761            27
      14      -1.93745986       0.000000040       0.000001737            29
      15      -1.93745986      -0.000000005       0.000000503            31

    CHF Iterations converged


    Iter     Energy [mEh]          dE [mEh]         Residual      Time [s]
       1      -1.55409643       1.554096430       6.012450767             2
       2      -1.89649362       0.342397187       2.577057327             4
       3      -1.94740936       0.050915746       0.725075515             6
       4      -1.94395812      -0.003451244       0.297986252             8
       5      -1.93930925      -0.004648868       0.084409671            10
       6      -1.93927897      -0.000030279       0.034938550            12
       7      -1.93984306       0.000564088       0.016966195            14
       8      -1.93966270      -0.000180357       0.006551476            16
       9      -1.93962390      -0.000038805       0.001571773            18
      10      -1.93963653       0.000012635       0.000465786            20
      11      -1.93963846       0.000001927       0.000107599            22
      12      -1.93963748      -0.000000979       0.000024782            24
      13      -1.93963751       0.000000028       0.000006768            26
      14      -1.93963755       0.000000040       0.000001739            28
      15      -1.93963754      -0.000000005       0.000000502            30

    CHF Iterations converged

    Ind20,r (A<-B)      =    -0.001937459858 [Eh]
    Ind20,r (B<-A)      =    -0.001939637543 [Eh]
    Ind20,r             =    -0.003877097401 [Eh]
    Exch-Ind20,r (A<-B) =     0.001608343680 [Eh]
    Exch-Ind20,r (B<-A) =     0.001610700770 [Eh]
    Exch-Ind20,r        =     0.003219044450 [Eh]
    Disp20              =    -0.013956180584 [Eh]
    Disp20 (SS)         =    -0.006978090292 [Eh]
    Disp20 (OS)         =    -0.006978090292 [Eh]
    Exch-Disp20         =     0.001556709588 [Eh]
    Exch-Disp20 (SS)    =     0.001003009323 [Eh]
    Exch-Disp20 (OS)    =     0.000553700264 [Eh]

    SAPT Results 
  --------------------------------------------------------------------------------------------------------
    Electrostatics                 -6.57950626 [mEh]      -4.12870251 [kcal/mol]     -17.27449130 [kJ/mol]
      Elst10,r                     -6.57950626 [mEh]      -4.12870251 [kcal/mol]     -17.27449130 [kJ/mol]

    Exchange                       12.43803774 [mEh]       7.80498652 [kcal/mol]      32.65606359 [kJ/mol]
      Exch10                       12.43803774 [mEh]       7.80498652 [kcal/mol]      32.65606359 [kJ/mol]
      Exch10(S^2)                  12.40622766 [mEh]       7.78502539 [kcal/mol]      32.57254624 [kJ/mol]

    Induction                      -1.68621087 [mEh]      -1.05811330 [kcal/mol]      -4.42714604 [kJ/mol]
      Ind20,r                      -3.87709740 [mEh]      -2.43291535 [kcal/mol]     -10.17931782 [kJ/mol]
      Exch-Ind20,r                  3.21904445 [mEh]       2.01998089 [kcal/mol]       8.45160004 [kJ/mol]
      delta HF,r (2)               -1.02815792 [mEh]      -0.64517884 [kcal/mol]      -2.69942825 [kJ/mol]

    Dispersion                    -12.39947100 [mEh]      -7.78078552 [kcal/mol]     -32.55480661 [kJ/mol]
      Disp20                      -13.95618058 [mEh]      -8.75763553 [kcal/mol]     -36.64194707 [kJ/mol]
      Exch-Disp20                   1.55670959 [mEh]       0.97685001 [kcal/mol]       4.08714046 [kJ/mol]
      Disp20 (SS)                  -6.97809029 [mEh]      -4.37881777 [kcal/mol]     -18.32097354 [kJ/mol]
      Disp20 (OS)                  -6.97809029 [mEh]      -4.37881777 [kcal/mol]     -18.32097354 [kJ/mol]
      Exch-Disp20 (SS)              1.00300932 [mEh]       0.62939785 [kcal/mol]       2.63340062 [kJ/mol]
      Exch-Disp20 (OS)              0.55370026 [mEh]       0.34745216 [kcal/mol]       1.45373984 [kJ/mol]

  Total HF                          4.17232061 [mEh]       2.61817071 [kcal/mol]      10.95442625 [kJ/mol]
  Total SAPT0                      -8.22715039 [mEh]      -5.16261481 [kcal/mol]     -21.60038036 [kJ/mol]

  Special recipe for scaled SAPT0 (see Manual):
    Electrostatics sSAPT0          -6.57950626 [mEh]      -4.12870251 [kcal/mol]     -17.27449130 [kJ/mol]
    Exchange sSAPT0                12.43803774 [mEh]       7.80498652 [kcal/mol]      32.65606359 [kJ/mol]
    Induction sSAPT0               -1.66138604 [mEh]      -1.04253548 [kcal/mol]      -4.36196845 [kJ/mol]
    Dispersion sSAPT0             -12.38746586 [mEh]      -7.77325219 [kcal/mol]     -32.52328714 [kJ/mol]
  Total sSAPT0                     -8.19032042 [mEh]      -5.13950366 [kcal/mol]     -21.50368331 [kJ/mol]
  --------------------------------------------------------------------------------------------------------

*** tstop() called on r282 at Thu Sep  9 12:40:44 2021
Module time:
	user time   =     201.94 seconds =       3.37 minutes
	system time =      31.43 seconds =       0.52 minutes
	total time  =        235 seconds =       3.92 minutes
Total time:
	user time   =     522.36 seconds =       8.71 minutes
	system time =      36.21 seconds =       0.60 minutes
	total time  =        560 seconds =       9.33 minutes

    Psi4 stopped on: Thursday, 09 September 2021 12:40PM
    Psi4 wall time for execution: 0:09:20.09

*** Psi4 exiting successfully. Buy a developer a beer!
