
    -----------------------------------------------------------------------
          Psi4: An Open-Source Ab Initio Electronic Structure Package
                               Psi4 1.3.2 release

                         Git: Rev {HEAD} ecbda83 


    R. M. Parrish, L. A. Burns, D. G. A. Smith, A. C. Simmonett,
    A. E. DePrince III, E. G. Hohenstein, U. Bozkaya, A. Yu. Sokolov,
    R. Di Remigio, R. M. Richard, J. F. Gonthier, A. M. James,
    H. R. McAlexander, A. Kumar, M. Saitow, X. Wang, B. P. Pritchard,
    P. Verma, H. F. Schaefer III, K. Patkowski, R. A. King, E. F. Valeev,
    F. A. Evangelista, J. M. Turney, T. D. Crawford, and C. D. Sherrill,
    J. Chem. Theory Comput. 13(7) pp 3185--3197 (2017).
    (doi: 10.1021/acs.jctc.7b00174)


                         Additional Contributions by
    P. Kraus, H. Kruse, M. H. Lechner, M. C. Schieber, R. A. Shaw,
    A. Alenaizan, R. Galvelis, Z. L. Glick, S. Lehtola, and J. P. Misiewicz

    -----------------------------------------------------------------------


    Psi4 started on: Saturday, 11 September 2021 02:59AM

    Process ID: 57551
    Host:       r282
    PSIDATADIR: /home/r08543048/miniconda3/share/psi4
    Memory:     500.0 MiB
    Threads:    1
    
  ==> Input File <==

--------------------------------------------------------------------------
# Any line starting with the # character is a comment line
#! Sample  computation

memory 22 gb

molecule Dimer {
0 1
 C 1.692554    1.890323    0.551229
 C 1.696155    0.837820   -0.058850
 C 1.696094   -0.446302   -0.752608
 C 1.699847   -1.624845    0.223364
 H 1.689767    2.814274    1.074672
 H 0.817955   -0.498533   -1.399618
 H 2.570081   -0.498443   -1.404407
 H 1.690840   -2.568392   -0.320876
 H 2.587761   -1.595631    0.852561
 H 0.824648   -1.588564    0.869886
 
 
 








 --
0 1
 C -1.992465    0.675944   -1.075634
 C -2.051117   -0.552148   -0.174730
 C -1.838000   -0.190114    1.290278
 H -2.775040    1.386562   -0.805490
 H -1.033943    1.186638   -0.970086
 H -2.127307    0.414058   -2.125213
 H -1.293642   -1.275106   -0.487152
 H -3.015637   -1.050222   -0.294516
 H -1.870230   -1.070362    1.932692
 H -0.872619    0.298954    1.428790
 H -2.611044    0.500691    1.630465










units angstrom

no_reorient
symmetry c1
}

set globals{
  basis jun-cc-pvtz
}

energy('sapt0')


--------------------------------------------------------------------------

  Memory set to  20.489 GiB by Python driver.

  //>>>>>>>>>>>>>>>>>>>>>>>>>>>>>>>>>>>//
  //              Dimer HF             //
  //<<<<<<<<<<<<<<<<<<<<<<<<<<<<<<<<<<<//


*** tstart() called on r282
*** at Sat Sep 11 02:59:40 2021

   => Loading Basis Set <=

    Name: JUN-CC-PVTZ
    Role: ORBITAL
    Keyword: BASIS
    atoms 1-4, 11-13  entry C          line   217 file /home/r08543048/miniconda3/share/psi4/basis/jun-cc-pvtz.gbs 
    atoms 5-10, 14-21 entry H          line    36 file /home/r08543048/miniconda3/share/psi4/basis/jun-cc-pvtz.gbs 


         ---------------------------------------------------------
                                   SCF
               by Justin Turney, Rob Parrish, Andy Simmonett
                          and Daniel G. A. Smith
                              RHF Reference
                        1 Threads,  20980 MiB Core
         ---------------------------------------------------------

  ==> Geometry <==

    Molecular point group: c1
    Full point group: C1

    Geometry (in Angstrom), charge = 0, multiplicity = 1:

       Center              X                  Y                   Z               Mass       
    ------------   -----------------  -----------------  -----------------  -----------------
         C            1.637758042396     1.854482172324     0.551043973523    12.000000000000
         C            1.641359042396     0.801979172324    -0.059035026477    12.000000000000
         C            1.641298042396    -0.482142827676    -0.752793026477    12.000000000000
         C            1.645051042396    -1.660685827676     0.223178973523    12.000000000000
         H            1.634971042396     2.778433172324     1.074486973523     1.007825032230
         H            0.763159042396    -0.534373827676    -1.399803026477     1.007825032230
         H            2.515285042396    -0.534283827676    -1.404592026477     1.007825032230
         H            1.636044042396    -2.604232827676    -0.321061026477     1.007825032230
         H            2.532965042396    -1.631471827676     0.852375973523     1.007825032230
         H            0.769852042396    -1.624404827676     0.869700973523     1.007825032230
         C           -2.047260957604     0.640103172324    -1.075819026477    12.000000000000
         C           -2.105912957604    -0.587988827676    -0.174915026477    12.000000000000
         C           -1.892795957604    -0.225954827676     1.290092973523    12.000000000000
         H           -2.829835957604     1.350721172324    -0.805675026477     1.007825032230
         H           -1.088738957604     1.150797172324    -0.970271026477     1.007825032230
         H           -2.182102957604     0.378217172324    -2.125398026477     1.007825032230
         H           -1.348437957604    -1.310946827676    -0.487337026477     1.007825032230
         H           -3.070432957604    -1.086062827676    -0.294701026477     1.007825032230
         H           -1.925025957604    -1.106202827676     1.932506973523     1.007825032230
         H           -0.927414957604     0.263113172324     1.428604973523     1.007825032230
         H           -2.665839957604     0.464850172324     1.630279973523     1.007825032230

  Running in c1 symmetry.

  Rotational constants: A =      0.08890  B =      0.04218  C =      0.03703 [cm^-1]
  Rotational constants: A =   2665.30256  B =   1264.51974  C =   1110.11544 [MHz]
  Nuclear repulsion =  286.418247315754286

  Charge       = 0
  Multiplicity = 1
  Electrons    = 56
  Nalpha       = 28
  Nbeta        = 28

  ==> Algorithm <==

  SCF Algorithm Type is DF.
  DIIS enabled.
  MOM disabled.
  Fractional occupation disabled.
  Guess Type is SAD.
  Energy threshold   = 1.00e-08
  Density threshold  = 1.00e-08
  Integral threshold = 0.00e+00

  ==> Primary Basis <==

  Basis Set: JUN-CC-PVTZ
    Blend: JUN-CC-PVTZ
    Number of shells: 175
    Number of basis function: 469
    Number of Cartesian functions: 525
    Spherical Harmonics?: true
    Max angular momentum: 3

   => Loading Basis Set <=

    Name: (JUN-CC-PVTZ AUX)
    Role: JKFIT
    Keyword: DF_BASIS_SCF
    atoms 1-4, 11-13  entry C          line   152 file /home/r08543048/miniconda3/share/psi4/basis/jun-cc-pvtz-jkfit.gbs 
    atoms 5-10, 14-21 entry H          line    70 file /home/r08543048/miniconda3/share/psi4/basis/jun-cc-pvtz-jkfit.gbs 

  ==> Pre-Iterations <==

   -------------------------------------------------------
    Irrep   Nso     Nmo     Nalpha   Nbeta   Ndocc  Nsocc
   -------------------------------------------------------
     A        469     469       0       0       0       0
   -------------------------------------------------------
    Total     469     469      28      28      28       0
   -------------------------------------------------------

  ==> Integral Setup <==

  ==> DiskDFJK: Density-Fitted J/K Matrices <==

    J tasked:                  Yes
    K tasked:                  Yes
    wK tasked:                  No
    OpenMP threads:              1
    Integrals threads:           1
    Memory [MiB]:            15735
    Algorithm:                Core
    Integral Cache:           SAVE
    Schwarz Cutoff:          1E-12
    Fitting Condition:       1E-10

   => Auxiliary Basis Set <=

  Basis Set: (JUN-CC-PVTZ AUX)
    Blend: JUN-CC-PVTZ-JKFIT
    Number of shells: 343
    Number of basis function: 1085
    Number of Cartesian functions: 1302
    Spherical Harmonics?: true
    Max angular momentum: 4

  Minimum eigenvalue in the overlap matrix is 2.1247961280E-05.
  Using Symmetric Orthogonalization.

  SCF Guess: Superposition of Atomic Densities via on-the-fly atomic UHF.

  ==> Iterations <==

                           Total Energy        Delta E     RMS |[F,P]|

   @DF-RHF iter SAD:  -271.84093558310201   -2.71841e+02   0.00000e+00 
   @DF-RHF iter   1:  -272.96802413035630   -1.12709e+00   1.47454e-03 DIIS
   @DF-RHF iter   2:  -273.20701377888821   -2.38990e-01   6.58866e-04 DIIS
   @DF-RHF iter   3:  -273.25613334081220   -4.91196e-02   1.39214e-04 DIIS
   @DF-RHF iter   4:  -273.25953251555092   -3.39917e-03   6.83028e-05 DIIS
   @DF-RHF iter   5:  -273.26012419994368   -5.91684e-04   1.45870e-05 DIIS
   @DF-RHF iter   6:  -273.26015756413278   -3.33642e-05   3.54892e-06 DIIS
   @DF-RHF iter   7:  -273.26016006581278   -2.50168e-06   7.89366e-07 DIIS
   @DF-RHF iter   8:  -273.26016026530465   -1.99492e-07   3.20483e-07 DIIS
   @DF-RHF iter   9:  -273.26016032125722   -5.59526e-08   1.73252e-07 DIIS
   @DF-RHF iter  10:  -273.26016034708778   -2.58306e-08   6.54822e-08 DIIS
   @DF-RHF iter  11:  -273.26016035042790   -3.34012e-09   1.72604e-08 DIIS
   @DF-RHF iter  12:  -273.26016035059240   -1.64505e-10   4.82558e-09 DIIS
  Energy and wave function converged.


  ==> Post-Iterations <==

    Orbital Energies [Eh]
    ---------------------

    Doubly Occupied:                                                      

       1A    -11.253501     2A    -11.237503     3A    -11.224758  
       4A    -11.223396     5A    -11.213928     6A    -11.203592  
       7A    -11.203215     8A     -1.082762     9A     -1.051257  
      10A     -0.992468    11A     -0.921290    12A     -0.876524  
      13A     -0.797418    14A     -0.719199    15A     -0.643430  
      16A     -0.641157    17A     -0.612501    18A     -0.595707  
      19A     -0.553432    20A     -0.545647    21A     -0.530007  
      22A     -0.525393    23A     -0.512049    24A     -0.473104  
      25A     -0.471766    26A     -0.466370    27A     -0.381848  
      28A     -0.380746  

    Virtual:                                                              

      29A      0.048239    30A      0.051275    31A      0.053728  
      32A      0.060712    33A      0.071432    34A      0.072424  
      35A      0.082121    36A      0.088069    37A      0.089801  
      38A      0.106563    39A      0.115573    40A      0.116456  
      41A      0.117080    42A      0.122149    43A      0.123632  
      44A      0.135973    45A      0.142263    46A      0.152338  
      47A      0.155140    48A      0.164962    49A      0.169884  
      50A      0.177060    51A      0.186883    52A      0.191003  
      53A      0.196528    54A      0.202893    55A      0.207658  
      56A      0.213200    57A      0.217165    58A      0.233785  
      59A      0.265531    60A      0.270597    61A      0.273569  
      62A      0.278216    63A      0.287569    64A      0.294270  
      65A      0.295195    66A      0.308125    67A      0.310845  
      68A      0.317146    69A      0.326043    70A      0.328821  
      71A      0.334952    72A      0.345267    73A      0.347155  
      74A      0.348941    75A      0.355170    76A      0.363816  
      77A      0.369360    78A      0.372513    79A      0.380967  
      80A      0.384827    81A      0.389003    82A      0.398179  
      83A      0.406624    84A      0.410912    85A      0.420446  
      86A      0.425229    87A      0.430729    88A      0.435955  
      89A      0.443509    90A      0.451802    91A      0.459626  
      92A      0.475117    93A      0.480414    94A      0.488840  
      95A      0.495524    96A      0.501971    97A      0.513466  
      98A      0.517845    99A      0.526061   100A      0.532267  
     101A      0.535506   102A      0.549454   103A      0.555944  
     104A      0.567333   105A      0.571062   106A      0.576906  
     107A      0.584561   108A      0.595139   109A      0.608322  
     110A      0.619232   111A      0.639706   112A      0.651385  
     113A      0.659493   114A      0.666919   115A      0.685329  
     116A      0.686837   117A      0.701678   118A      0.728875  
     119A      0.729612   120A      0.750236   121A      0.754810  
     122A      0.766659   123A      0.779783   124A      0.790311  
     125A      0.794616   126A      0.800327   127A      0.807533  
     128A      0.823289   129A      0.834100   130A      0.837702  
     131A      0.842372   132A      0.846064   133A      0.853582  
     134A      0.859192   135A      0.877704   136A      0.885067  
     137A      0.892714   138A      0.896802   139A      0.911805  
     140A      0.920678   141A      0.928846   142A      0.941389  
     143A      0.947923   144A      0.961889   145A      0.972178  
     146A      0.986165   147A      0.992835   148A      1.003694  
     149A      1.007068   150A      1.024065   151A      1.039387  
     152A      1.055300   153A      1.072033   154A      1.085013  
     155A      1.093447   156A      1.108276   157A      1.119463  
     158A      1.129223   159A      1.142603   160A      1.159067  
     161A      1.167191   162A      1.175022   163A      1.200730  
     164A      1.213652   165A      1.223857   166A      1.231053  
     167A      1.242484   168A      1.250882   169A      1.255283  
     170A      1.266911   171A      1.283395   172A      1.318387  
     173A      1.323821   174A      1.336203   175A      1.343943  
     176A      1.354721   177A      1.378885   178A      1.393354  
     179A      1.405014   180A      1.427212   181A      1.430008  
     182A      1.438051   183A      1.442079   184A      1.463825  
     185A      1.468259   186A      1.470767   187A      1.486503  
     188A      1.497506   189A      1.507916   190A      1.511282  
     191A      1.536624   192A      1.546247   193A      1.553958  
     194A      1.556809   195A      1.575625   196A      1.586392  
     197A      1.590211   198A      1.599818   199A      1.618907  
     200A      1.626864   201A      1.642214   202A      1.650783  
     203A      1.656438   204A      1.663242   205A      1.680839  
     206A      1.698994   207A      1.718707   208A      1.730398  
     209A      1.742865   210A      1.750148   211A      1.764778  
     212A      1.787145   213A      1.802842   214A      1.814888  
     215A      1.831262   216A      1.840896   217A      1.874055  
     218A      1.876275   219A      1.889466   220A      1.909483  
     221A      1.919477   222A      1.962185   223A      1.962997  
     224A      1.986168   225A      1.991056   226A      2.003714  
     227A      2.096613   228A      2.123270   229A      2.147270  
     230A      2.393937   231A      2.559414   232A      2.640738  
     233A      2.672717   234A      2.701699   235A      2.740222  
     236A      2.747337   237A      2.762233   238A      2.772771  
     239A      2.796724   240A      2.807709   241A      2.835880  
     242A      2.842676   243A      2.846831   244A      2.854073  
     245A      2.874048   246A      2.889327   247A      2.897413  
     248A      2.902251   249A      2.925082   250A      2.931961  
     251A      2.936991   252A      2.952685   253A      2.963124  
     254A      2.976710   255A      2.988778   256A      3.003009  
     257A      3.006417   258A      3.009639   259A      3.039554  
     260A      3.043394   261A      3.097265   262A      3.106068  
     263A      3.106436   264A      3.133638   265A      3.138686  
     266A      3.155502   267A      3.173512   268A      3.178207  
     269A      3.200977   270A      3.210876   271A      3.221019  
     272A      3.231446   273A      3.237962   274A      3.254263  
     275A      3.258192   276A      3.276841   277A      3.284203  
     278A      3.299883   279A      3.309115   280A      3.322139  
     281A      3.329130   282A      3.333740   283A      3.348979  
     284A      3.365234   285A      3.375674   286A      3.379986  
     287A      3.387197   288A      3.391465   289A      3.409236  
     290A      3.422762   291A      3.434225   292A      3.443109  
     293A      3.444451   294A      3.451147   295A      3.465077  
     296A      3.477063   297A      3.487636   298A      3.496794  
     299A      3.499214   300A      3.507922   301A      3.520853  
     302A      3.533077   303A      3.536020   304A      3.542001  
     305A      3.546488   306A      3.562528   307A      3.568918  
     308A      3.575380   309A      3.578782   310A      3.593999  
     311A      3.617728   312A      3.621196   313A      3.639817  
     314A      3.662805   315A      3.678864   316A      3.684248  
     317A      3.707056   318A      3.711065   319A      3.726539  
     320A      3.732098   321A      3.746023   322A      3.758269  
     323A      3.786808   324A      3.796103   325A      3.816158  
     326A      3.828910   327A      3.830728   328A      3.838768  
     329A      3.853609   330A      3.878003   331A      3.889471  
     332A      3.909507   333A      3.909608   334A      3.936417  
     335A      3.953695   336A      3.971777   337A      3.981812  
     338A      4.006545   339A      4.036292   340A      4.044838  
     341A      4.073679   342A      4.083958   343A      4.097537  
     344A      4.121336   345A      4.125955   346A      4.147543  
     347A      4.182132   348A      4.196120   349A      4.206045  
     350A      4.222953   351A      4.226357   352A      4.237015  
     353A      4.241792   354A      4.260444   355A      4.292467  
     356A      4.299752   357A      4.309485   358A      4.316704  
     359A      4.324695   360A      4.333653   361A      4.344751  
     362A      4.345647   363A      4.366965   364A      4.377584  
     365A      4.381442   366A      4.391078   367A      4.407201  
     368A      4.434665   369A      4.453864   370A      4.466022  
     371A      4.476334   372A      4.493861   373A      4.503664  
     374A      4.511572   375A      4.524804   376A      4.530624  
     377A      4.545554   378A      4.548338   379A      4.550980  
     380A      4.557971   381A      4.568862   382A      4.588540  
     383A      4.614848   384A      4.625716   385A      4.641748  
     386A      4.655270   387A      4.675752   388A      4.700149  
     389A      4.703827   390A      4.712735   391A      4.744990  
     392A      4.770546   393A      4.794761   394A      4.825124  
     395A      4.842719   396A      4.848764   397A      4.860497  
     398A      4.883639   399A      4.899903   400A      4.939048  
     401A      4.988366   402A      5.003258   403A      5.013736  
     404A      5.032111   405A      5.097171   406A      5.137696  
     407A      5.171516   408A      5.188999   409A      5.204431  
     410A      5.259765   411A      5.265322   412A      5.278749  
     413A      5.283351   414A      5.291819   415A      5.292696  
     416A      5.303470   417A      5.326766   418A      5.344528  
     419A      5.365470   420A      5.377937   421A      5.398957  
     422A      5.447036   423A      5.448984   424A      5.483481  
     425A      5.520431   426A      5.542496   427A      5.585137  
     428A      5.609486   429A      5.621864   430A      5.701864  
     431A      5.721861   432A      5.734813   433A      5.736566  
     434A      5.750771   435A      5.754957   436A      5.768195  
     437A      5.782750   438A      5.795164   439A      5.802851  
     440A      5.825545   441A      5.829243   442A      5.865917  
     443A      5.918344   444A      5.932330   445A      5.934801  
     446A      5.938796   447A      5.970398   448A      5.998670  
     449A      6.088659   450A      6.106642   451A      6.353266  
     452A      6.368358   453A      6.429222   454A      6.465849  
     455A      6.482415   456A      6.511597   457A      6.535461  
     458A      6.552075   459A      6.561212   460A      6.571161  
     461A      6.609585   462A      6.752509   463A     10.342349  
     464A     13.828248   465A     14.445565   466A     14.487425  
     467A     14.575984   468A     14.774789   469A     18.462394  

    Final Occupation by Irrep:
              A 
    DOCC [    28 ]

  @DF-RHF Final Energy:  -273.26016035059240

   => Energetics <=

    Nuclear Repulsion Energy =            286.4182473157542859
    One-Electron Energy =                -934.6888804695533963
    Two-Electron Energy =                 375.0104728032066532
    Total Energy =                       -273.2601603505924004

Computation Completed


Properties will be evaluated at   0.000000,   0.000000,   0.000000 [a0]

Properties computed using the SCF density matrix

  Nuclear Dipole Moment: [e a0]
     X:    -5.7988      Y:    -3.7929      Z:    -0.0196

  Electronic Dipole Moment: [e a0]
     X:     5.8331      Y:     3.5165      Z:    -0.0787

  Dipole Moment: [e a0]
     X:     0.0343      Y:    -0.2764      Z:    -0.0983     Total:     0.2953

  Dipole Moment: [D]
     X:     0.0871      Y:    -0.7025      Z:    -0.2498     Total:     0.7507


*** tstop() called on r282 at Sat Sep 11 03:00:36 2021
Module time:
	user time   =      55.05 seconds =       0.92 minutes
	system time =       1.15 seconds =       0.02 minutes
	total time  =         56 seconds =       0.93 minutes
Total time:
	user time   =      55.05 seconds =       0.92 minutes
	system time =       1.15 seconds =       0.02 minutes
	total time  =         56 seconds =       0.93 minutes

  //>>>>>>>>>>>>>>>>>>>>>>>>>>>>>>>>>>>//
  //            Monomer A HF           //
  //<<<<<<<<<<<<<<<<<<<<<<<<<<<<<<<<<<<//


*** tstart() called on r282
*** at Sat Sep 11 03:00:36 2021

   => Loading Basis Set <=

    Name: JUN-CC-PVTZ
    Role: ORBITAL
    Keyword: BASIS
    atoms 1-4, 11-13  entry C          line   217 file /home/r08543048/miniconda3/share/psi4/basis/jun-cc-pvtz.gbs 
    atoms 5-10, 14-21 entry H          line    36 file /home/r08543048/miniconda3/share/psi4/basis/jun-cc-pvtz.gbs 


         ---------------------------------------------------------
                                   SCF
               by Justin Turney, Rob Parrish, Andy Simmonett
                          and Daniel G. A. Smith
                              RHF Reference
                        1 Threads,  20980 MiB Core
         ---------------------------------------------------------

  ==> Geometry <==

    Molecular point group: c1
    Full point group: C1

    Geometry (in Angstrom), charge = 0, multiplicity = 1:

       Center              X                  Y                   Z               Mass       
    ------------   -----------------  -----------------  -----------------  -----------------
         C            1.637758042396     1.854482172324     0.551043973523    12.000000000000
         C            1.641359042396     0.801979172324    -0.059035026477    12.000000000000
         C            1.641298042396    -0.482142827676    -0.752793026477    12.000000000000
         C            1.645051042396    -1.660685827676     0.223178973523    12.000000000000
         H            1.634971042396     2.778433172324     1.074486973523     1.007825032230
         H            0.763159042396    -0.534373827676    -1.399803026477     1.007825032230
         H            2.515285042396    -0.534283827676    -1.404592026477     1.007825032230
         H            1.636044042396    -2.604232827676    -0.321061026477     1.007825032230
         H            2.532965042396    -1.631471827676     0.852375973523     1.007825032230
         H            0.769852042396    -1.624404827676     0.869700973523     1.007825032230
      Gh(C)          -2.047260957604     0.640103172324    -1.075819026477    12.000000000000
      Gh(C)          -2.105912957604    -0.587988827676    -0.174915026477    12.000000000000
      Gh(C)          -1.892795957604    -0.225954827676     1.290092973523    12.000000000000
      Gh(H)          -2.829835957604     1.350721172324    -0.805675026477     1.007825032230
      Gh(H)          -1.088738957604     1.150797172324    -0.970271026477     1.007825032230
      Gh(H)          -2.182102957604     0.378217172324    -2.125398026477     1.007825032230
      Gh(H)          -1.348437957604    -1.310946827676    -0.487337026477     1.007825032230
      Gh(H)          -3.070432957604    -1.086062827676    -0.294701026477     1.007825032230
      Gh(H)          -1.925025957604    -1.106202827676     1.932506973523     1.007825032230
      Gh(H)          -0.927414957604     0.263113172324     1.428604973523     1.007825032230
      Gh(H)          -2.665839957604     0.464850172324     1.630279973523     1.007825032230

  Running in c1 symmetry.

  Rotational constants: A =      0.08890  B =      0.04218  C =      0.03703 [cm^-1]
  Rotational constants: A =   2665.30256  B =   1264.51974  C =   1110.11544 [MHz]
  Nuclear repulsion =  102.891972288863656

  Charge       = 0
  Multiplicity = 1
  Electrons    = 30
  Nalpha       = 15
  Nbeta        = 15

  ==> Algorithm <==

  SCF Algorithm Type is DF.
  DIIS enabled.
  MOM disabled.
  Fractional occupation disabled.
  Guess Type is SAD.
  Energy threshold   = 1.00e-08
  Density threshold  = 1.00e-08
  Integral threshold = 0.00e+00

  ==> Primary Basis <==

  Basis Set: JUN-CC-PVTZ
    Blend: JUN-CC-PVTZ
    Number of shells: 175
    Number of basis function: 469
    Number of Cartesian functions: 525
    Spherical Harmonics?: true
    Max angular momentum: 3

   => Loading Basis Set <=

    Name: (JUN-CC-PVTZ AUX)
    Role: JKFIT
    Keyword: DF_BASIS_SCF
    atoms 1-4, 11-13  entry C          line   152 file /home/r08543048/miniconda3/share/psi4/basis/jun-cc-pvtz-jkfit.gbs 
    atoms 5-10, 14-21 entry H          line    70 file /home/r08543048/miniconda3/share/psi4/basis/jun-cc-pvtz-jkfit.gbs 

  ==> Pre-Iterations <==

   -------------------------------------------------------
    Irrep   Nso     Nmo     Nalpha   Nbeta   Ndocc  Nsocc
   -------------------------------------------------------
     A        469     469       0       0       0       0
   -------------------------------------------------------
    Total     469     469      15      15      15       0
   -------------------------------------------------------

  ==> Integral Setup <==

  ==> DiskDFJK: Density-Fitted J/K Matrices <==

    J tasked:                  Yes
    K tasked:                  Yes
    wK tasked:                  No
    OpenMP threads:              1
    Integrals threads:           1
    Memory [MiB]:            15735
    Algorithm:                Core
    Integral Cache:           LOAD
    Schwarz Cutoff:          1E-12
    Fitting Condition:       1E-10

   => Auxiliary Basis Set <=

  Basis Set: (JUN-CC-PVTZ AUX)
    Blend: JUN-CC-PVTZ-JKFIT
    Number of shells: 343
    Number of basis function: 1085
    Number of Cartesian functions: 1302
    Spherical Harmonics?: true
    Max angular momentum: 4

  Minimum eigenvalue in the overlap matrix is 2.1247961280E-05.
  Using Symmetric Orthogonalization.

  SCF Guess: Superposition of Atomic Densities via on-the-fly atomic UHF.

  ==> Iterations <==

                           Total Energy        Delta E     RMS |[F,P]|

   @DF-RHF iter SAD:  -153.95498995301634   -1.53955e+02   0.00000e+00 
   @DF-RHF iter   1:  -154.82141851581082   -8.66429e-01   1.00211e-03 DIIS
   @DF-RHF iter   2:  -154.93443250249913   -1.13014e-01   4.08913e-04 DIIS
   @DF-RHF iter   3:  -154.95343130722884   -1.89988e-02   1.00702e-04 DIIS
   @DF-RHF iter   4:  -154.95496386964845   -1.53256e-03   5.44540e-05 DIIS
   @DF-RHF iter   5:  -154.95535457151698   -3.90702e-04   7.89071e-06 DIIS
   @DF-RHF iter   6:  -154.95536710159578   -1.25301e-05   2.09957e-06 DIIS
   @DF-RHF iter   7:  -154.95536800180551   -9.00210e-07   6.25433e-07 DIIS
   @DF-RHF iter   8:  -154.95536815926022   -1.57455e-07   2.91828e-07 DIIS
   @DF-RHF iter   9:  -154.95536821787582   -5.86156e-08   1.43406e-07 DIIS
   @DF-RHF iter  10:  -154.95536823663085   -1.87550e-08   3.99270e-08 DIIS
   @DF-RHF iter  11:  -154.95536823764451   -1.01366e-09   1.20221e-08 DIIS
   @DF-RHF iter  12:  -154.95536823769106   -4.65548e-11   3.16883e-09 DIIS
  Energy and wave function converged.


  ==> Post-Iterations <==

    Orbital Energies [Eh]
    ---------------------

    Doubly Occupied:                                                      

       1A    -11.253343     2A    -11.236192     3A    -11.224930  
       4A    -11.222128     5A     -1.081348     6A     -0.990946  
       7A     -0.875875     8A     -0.717736     9A     -0.642433  
      10A     -0.630259    11A     -0.552224    12A     -0.525353  
      13A     -0.515343    14A     -0.380246    15A     -0.379944  

    Virtual:                                                              

      16A      0.033948    17A      0.047690    18A      0.049306  
      19A      0.053768    20A      0.068821    21A      0.069222  
      22A      0.081074    23A      0.083925    24A      0.088413  
      25A      0.099466    26A      0.111717    27A      0.113055  
      28A      0.115958    29A      0.118204    30A      0.120455  
      31A      0.124389    32A      0.133549    33A      0.146708  
      34A      0.148793    35A      0.153273    36A      0.159954  
      37A      0.164818    38A      0.170740    39A      0.177372  
      40A      0.188759    41A      0.199032    42A      0.202868  
      43A      0.206399    44A      0.208789    45A      0.226607  
      46A      0.230674    47A      0.249291    48A      0.267840  
      49A      0.279686    50A      0.280651    51A      0.289362  
      52A      0.292336    53A      0.302650    54A      0.306258  
      55A      0.317379    56A      0.325769    57A      0.334100  
      58A      0.337403    59A      0.343113    60A      0.348139  
      61A      0.350568    62A      0.357745    63A      0.364592  
      64A      0.367800    65A      0.375868    66A      0.385191  
      67A      0.392378    68A      0.394953    69A      0.402463  
      70A      0.406785    71A      0.414783    72A      0.421955  
      73A      0.427802    74A      0.439449    75A      0.445831  
      76A      0.449055    77A      0.464042    78A      0.466871  
      79A      0.472707    80A      0.481075    81A      0.489064  
      82A      0.499669    83A      0.512469    84A      0.519357  
      85A      0.521188    86A      0.528024    87A      0.540135  
      88A      0.542334    89A      0.550710    90A      0.561917  
      91A      0.567781    92A      0.577452    93A      0.584613  
      94A      0.596158    95A      0.604013    96A      0.605698  
      97A      0.612284    98A      0.625026    99A      0.631662  
     100A      0.649364   101A      0.653055   102A      0.659465  
     103A      0.670351   104A      0.681753   105A      0.692031  
     106A      0.701174   107A      0.709501   108A      0.721782  
     109A      0.732785   110A      0.764430   111A      0.775942  
     112A      0.781194   113A      0.791289   114A      0.806785  
     115A      0.816612   116A      0.824989   117A      0.843254  
     118A      0.858212   119A      0.864012   120A      0.886583  
     121A      0.906658   122A      0.920944   123A      0.926809  
     124A      0.935947   125A      0.969056   126A      0.990092  
     127A      1.003697   128A      1.011957   129A      1.039294  
     130A      1.053519   131A      1.059465   132A      1.072378  
     133A      1.082713   134A      1.087725   135A      1.105127  
     136A      1.109851   137A      1.113949   138A      1.127207  
     139A      1.133874   140A      1.148731   141A      1.160173  
     142A      1.176761   143A      1.185484   144A      1.191035  
     145A      1.200402   146A      1.209253   147A      1.217040  
     148A      1.230358   149A      1.233238   150A      1.241198  
     151A      1.254497   152A      1.261858   153A      1.269553  
     154A      1.279570   155A      1.290988   156A      1.297726  
     157A      1.307111   158A      1.310171   159A      1.326222  
     160A      1.338830   161A      1.353865   162A      1.363874  
     163A      1.379383   164A      1.401674   165A      1.414271  
     166A      1.419431   167A      1.426361   168A      1.429965  
     169A      1.437339   170A      1.454331   171A      1.468665  
     172A      1.479144   173A      1.489643   174A      1.496177  
     175A      1.504650   176A      1.512913   177A      1.527241  
     178A      1.536969   179A      1.546872   180A      1.559253  
     181A      1.578936   182A      1.580754   183A      1.591135  
     184A      1.601161   185A      1.610673   186A      1.631373  
     187A      1.645836   188A      1.661658   189A      1.671866  
     190A      1.679255   191A      1.694979   192A      1.714712  
     193A      1.718890   194A      1.732078   195A      1.752684  
     196A      1.760078   197A      1.776201   198A      1.804726  
     199A      1.814203   200A      1.826637   201A      1.833855  
     202A      1.869313   203A      1.888554   204A      1.892676  
     205A      1.914849   206A      1.922895   207A      1.939244  
     208A      1.997721   209A      2.011791   210A      2.048208  
     211A      2.091322   212A      2.119937   213A      2.142592  
     214A      2.143841   215A      2.168785   216A      2.194912  
     217A      2.206948   218A      2.341809   219A      2.387819  
     220A      2.392777   221A      2.401447   222A      2.421568  
     223A      2.456947   224A      2.508982   225A      2.564656  
     226A      2.569319   227A      2.605661   228A      2.614870  
     229A      2.668066   230A      2.700957   231A      2.748905  
     232A      2.765963   233A      2.806475   234A      2.838794  
     235A      2.858433   236A      2.874839   237A      2.891596  
     238A      2.894762   239A      2.920108   240A      2.940136  
     241A      2.948944   242A      2.990394   243A      3.006063  
     244A      3.008096   245A      3.046113   246A      3.111359  
     247A      3.137339   248A      3.164451   249A      3.204528  
     250A      3.221457   251A      3.234357   252A      3.241499  
     253A      3.253780   254A      3.279907   255A      3.286652  
     256A      3.310348   257A      3.329220   258A      3.350843  
     259A      3.369470   260A      3.403840   261A      3.423424  
     262A      3.438703   263A      3.448735   264A      3.453372  
     265A      3.465026   266A      3.477503   267A      3.490901  
     268A      3.494491   269A      3.521912   270A      3.531577  
     271A      3.537325   272A      3.548124   273A      3.553246  
     274A      3.570082   275A      3.578429   276A      3.585633  
     277A      3.604977   278A      3.607390   279A      3.623627  
     280A      3.627892   281A      3.642440   282A      3.654012  
     283A      3.667733   284A      3.677648   285A      3.694455  
     286A      3.710832   287A      3.730907   288A      3.735143  
     289A      3.738747   290A      3.765385   291A      3.781430  
     292A      3.786803   293A      3.801775   294A      3.816061  
     295A      3.832238   296A      3.838442   297A      3.869247  
     298A      3.884717   299A      3.893546   300A      3.898553  
     301A      3.909005   302A      3.921850   303A      3.931918  
     304A      3.948749   305A      3.985501   306A      4.018431  
     307A      4.030604   308A      4.060181   309A      4.064895  
     310A      4.070502   311A      4.085323   312A      4.121556  
     313A      4.136804   314A      4.145323   315A      4.159822  
     316A      4.173271   317A      4.177158   318A      4.193975  
     319A      4.213350   320A      4.226565   321A      4.235008  
     322A      4.245438   323A      4.286183   324A      4.297121  
     325A      4.298611   326A      4.320149   327A      4.327749  
     328A      4.343649   329A      4.384352   330A      4.388009  
     331A      4.391362   332A      4.400027   333A      4.411009  
     334A      4.439287   335A      4.451274   336A      4.464297  
     337A      4.467644   338A      4.497885   339A      4.515278  
     340A      4.517572   341A      4.525954   342A      4.536781  
     343A      4.537884   344A      4.556470   345A      4.558935  
     346A      4.568204   347A      4.586818   348A      4.593625  
     349A      4.613923   350A      4.620599   351A      4.638594  
     352A      4.650984   353A      4.666812   354A      4.684067  
     355A      4.693281   356A      4.704938   357A      4.725274  
     358A      4.729435   359A      4.739941   360A      4.756101  
     361A      4.765744   362A      4.791748   363A      4.809960  
     364A      4.815062   365A      4.825770   366A      4.835089  
     367A      4.837801   368A      4.855362   369A      4.864974  
     370A      4.869812   371A      4.900321   372A      4.907366  
     373A      4.914822   374A      4.935866   375A      4.941588  
     376A      4.949596   377A      4.967839   378A      4.973474  
     379A      4.977962   380A      4.997563   381A      5.024783  
     382A      5.029880   383A      5.050853   384A      5.062383  
     385A      5.079954   386A      5.098141   387A      5.131919  
     388A      5.140537   389A      5.167515   390A      5.190785  
     391A      5.203915   392A      5.224452   393A      5.268566  
     394A      5.281275   395A      5.294165   396A      5.299099  
     397A      5.333374   398A      5.361412   399A      5.381968  
     400A      5.388715   401A      5.415182   402A      5.454764  
     403A      5.479150   404A      5.544791   405A      5.594798  
     406A      5.611812   407A      5.625078   408A      5.627466  
     409A      5.629473   410A      5.639307   411A      5.704073  
     412A      5.725823   413A      5.740935   414A      5.761059  
     415A      5.804442   416A      5.838004   417A      5.867389  
     418A      5.910923   419A      5.925379   420A      5.938885  
     421A      5.969485   422A      6.024097   423A      6.061419  
     424A      6.093709   425A      6.184566   426A      6.206667  
     427A      6.257590   428A      6.340543   429A      6.351582  
     430A      6.353106   431A      6.368597   432A      6.388739  
     433A      6.419046   434A      6.427683   435A      6.446420  
     436A      6.485021   437A      6.500105   438A      6.506592  
     439A      6.532985   440A      6.571549   441A      6.622096  
     442A      6.751993   443A      6.766192   444A      6.904638  
     445A      6.990442   446A      7.301679   447A      7.491997  
     448A      7.574379   449A      7.589898   450A      7.640718  
     451A      7.696651   452A      7.701055   453A      7.804898  
     454A      7.832568   455A      7.864169   456A      7.910605  
     457A      8.053565   458A      8.221470   459A      8.504844  
     460A      9.571751   461A      9.900469   462A      9.927652  
     463A     10.349262   464A     14.481413   465A     14.594032  
     466A     18.463066   467A     44.285419   468A     45.396022  
     469A     45.856284  

    Final Occupation by Irrep:
              A 
    DOCC [    15 ]

  @DF-RHF Final Energy:  -154.95536823769106

   => Energetics <=

    Nuclear Repulsion Energy =            102.8919722888636556
    One-Electron Energy =                -411.2380854445705154
    Two-Electron Energy =                 153.3907449180157982
    Total Energy =                       -154.9553682376910615

Computation Completed


Properties will be evaluated at   0.000000,   0.000000,   0.000000 [a0]

Properties computed using the SCF density matrix

  Nuclear Dipole Moment: [e a0]
     X:    93.0597      Y:    -2.0192      Z:    -1.0479

  Electronic Dipole Moment: [e a0]
     X:   -93.0605      Y:     1.7047      Z:     0.9309

  Dipole Moment: [e a0]
     X:    -0.0008      Y:    -0.3145      Z:    -0.1170     Total:     0.3356

  Dipole Moment: [D]
     X:    -0.0019      Y:    -0.7995      Z:    -0.2974     Total:     0.8530


*** tstop() called on r282 at Sat Sep 11 03:01:11 2021
Module time:
	user time   =      34.86 seconds =       0.58 minutes
	system time =       0.56 seconds =       0.01 minutes
	total time  =         35 seconds =       0.58 minutes
Total time:
	user time   =      89.91 seconds =       1.50 minutes
	system time =       1.71 seconds =       0.03 minutes
	total time  =         91 seconds =       1.52 minutes

  //>>>>>>>>>>>>>>>>>>>>>>>>>>>>>>>>>>>//
  //            Monomer B HF           //
  //<<<<<<<<<<<<<<<<<<<<<<<<<<<<<<<<<<<//


*** tstart() called on r282
*** at Sat Sep 11 03:01:11 2021

   => Loading Basis Set <=

    Name: JUN-CC-PVTZ
    Role: ORBITAL
    Keyword: BASIS
    atoms 1-4, 11-13  entry C          line   217 file /home/r08543048/miniconda3/share/psi4/basis/jun-cc-pvtz.gbs 
    atoms 5-10, 14-21 entry H          line    36 file /home/r08543048/miniconda3/share/psi4/basis/jun-cc-pvtz.gbs 


         ---------------------------------------------------------
                                   SCF
               by Justin Turney, Rob Parrish, Andy Simmonett
                          and Daniel G. A. Smith
                              RHF Reference
                        1 Threads,  20980 MiB Core
         ---------------------------------------------------------

  ==> Geometry <==

    Molecular point group: c1
    Full point group: C1

    Geometry (in Angstrom), charge = 0, multiplicity = 1:

       Center              X                  Y                   Z               Mass       
    ------------   -----------------  -----------------  -----------------  -----------------
      Gh(C)           1.637758042396     1.854482172324     0.551043973523    12.000000000000
      Gh(C)           1.641359042396     0.801979172324    -0.059035026477    12.000000000000
      Gh(C)           1.641298042396    -0.482142827676    -0.752793026477    12.000000000000
      Gh(C)           1.645051042396    -1.660685827676     0.223178973523    12.000000000000
      Gh(H)           1.634971042396     2.778433172324     1.074486973523     1.007825032230
      Gh(H)           0.763159042396    -0.534373827676    -1.399803026477     1.007825032230
      Gh(H)           2.515285042396    -0.534283827676    -1.404592026477     1.007825032230
      Gh(H)           1.636044042396    -2.604232827676    -0.321061026477     1.007825032230
      Gh(H)           2.532965042396    -1.631471827676     0.852375973523     1.007825032230
      Gh(H)           0.769852042396    -1.624404827676     0.869700973523     1.007825032230
         C           -2.047260957604     0.640103172324    -1.075819026477    12.000000000000
         C           -2.105912957604    -0.587988827676    -0.174915026477    12.000000000000
         C           -1.892795957604    -0.225954827676     1.290092973523    12.000000000000
         H           -2.829835957604     1.350721172324    -0.805675026477     1.007825032230
         H           -1.088738957604     1.150797172324    -0.970271026477     1.007825032230
         H           -2.182102957604     0.378217172324    -2.125398026477     1.007825032230
         H           -1.348437957604    -1.310946827676    -0.487337026477     1.007825032230
         H           -3.070432957604    -1.086062827676    -0.294701026477     1.007825032230
         H           -1.925025957604    -1.106202827676     1.932506973523     1.007825032230
         H           -0.927414957604     0.263113172324     1.428604973523     1.007825032230
         H           -2.665839957604     0.464850172324     1.630279973523     1.007825032230

  Running in c1 symmetry.

  Rotational constants: A =      0.08890  B =      0.04218  C =      0.03703 [cm^-1]
  Rotational constants: A =   2665.30256  B =   1264.51974  C =   1110.11544 [MHz]
  Nuclear repulsion =   82.819815347773968

  Charge       = 0
  Multiplicity = 1
  Electrons    = 26
  Nalpha       = 13
  Nbeta        = 13

  ==> Algorithm <==

  SCF Algorithm Type is DF.
  DIIS enabled.
  MOM disabled.
  Fractional occupation disabled.
  Guess Type is SAD.
  Energy threshold   = 1.00e-08
  Density threshold  = 1.00e-08
  Integral threshold = 0.00e+00

  ==> Primary Basis <==

  Basis Set: JUN-CC-PVTZ
    Blend: JUN-CC-PVTZ
    Number of shells: 175
    Number of basis function: 469
    Number of Cartesian functions: 525
    Spherical Harmonics?: true
    Max angular momentum: 3

   => Loading Basis Set <=

    Name: (JUN-CC-PVTZ AUX)
    Role: JKFIT
    Keyword: DF_BASIS_SCF
    atoms 1-4, 11-13  entry C          line   152 file /home/r08543048/miniconda3/share/psi4/basis/jun-cc-pvtz-jkfit.gbs 
    atoms 5-10, 14-21 entry H          line    70 file /home/r08543048/miniconda3/share/psi4/basis/jun-cc-pvtz-jkfit.gbs 

  ==> Pre-Iterations <==

   -------------------------------------------------------
    Irrep   Nso     Nmo     Nalpha   Nbeta   Ndocc  Nsocc
   -------------------------------------------------------
     A        469     469       0       0       0       0
   -------------------------------------------------------
    Total     469     469      13      13      13       0
   -------------------------------------------------------

  ==> Integral Setup <==

  ==> DiskDFJK: Density-Fitted J/K Matrices <==

    J tasked:                  Yes
    K tasked:                  Yes
    wK tasked:                  No
    OpenMP threads:              1
    Integrals threads:           1
    Memory [MiB]:            15735
    Algorithm:                Core
    Integral Cache:           LOAD
    Schwarz Cutoff:          1E-12
    Fitting Condition:       1E-10

   => Auxiliary Basis Set <=

  Basis Set: (JUN-CC-PVTZ AUX)
    Blend: JUN-CC-PVTZ-JKFIT
    Number of shells: 343
    Number of basis function: 1085
    Number of Cartesian functions: 1302
    Spherical Harmonics?: true
    Max angular momentum: 4

  Minimum eigenvalue in the overlap matrix is 2.1247961280E-05.
  Using Symmetric Orthogonalization.

  SCF Guess: Superposition of Atomic Densities via on-the-fly atomic UHF.

  ==> Iterations <==

                           Total Energy        Delta E     RMS |[F,P]|

   @DF-RHF iter SAD:  -117.72484180996636   -1.17725e+02   0.00000e+00 
   @DF-RHF iter   1:  -118.14643250026029   -4.21591e-01   1.09843e-03 DIIS
   @DF-RHF iter   2:  -118.27571790198867   -1.29285e-01   5.19774e-04 DIIS
   @DF-RHF iter   3:  -118.30612633567468   -3.04084e-02   8.73596e-05 DIIS
   @DF-RHF iter   4:  -118.30797796519383   -1.85163e-03   1.72391e-05 DIIS
   @DF-RHF iter   5:  -118.30803632409838   -5.83589e-05   4.84923e-06 DIIS
   @DF-RHF iter   6:  -118.30804095143449   -4.62734e-06   8.71148e-07 DIIS
   @DF-RHF iter   7:  -118.30804112336459   -1.71930e-07   1.64336e-07 DIIS
   @DF-RHF iter   8:  -118.30804113090230   -7.53771e-09   2.88876e-08 DIIS
   @DF-RHF iter   9:  -118.30804113113858   -2.36284e-10   5.70066e-09 DIIS
  Energy and wave function converged.


  ==> Post-Iterations <==

    Orbital Energies [Eh]
    ---------------------

    Doubly Occupied:                                                      

       1A    -11.215688     2A    -11.207991     3A    -11.207943  
       4A     -1.053969     5A     -0.924514     6A     -0.799837  
       7A     -0.624470     8A     -0.598532     9A     -0.549256  
      10A     -0.529947    11A     -0.476037    12A     -0.474661  
      13A     -0.467761  

    Virtual:                                                              

      14A      0.031825    15A      0.044045    16A      0.050003  
      17A      0.057098    18A      0.069823    19A      0.070506  
      20A      0.076455    21A      0.084494    22A      0.086958  
      23A      0.099559    24A      0.109332    25A      0.114364  
      26A      0.115233    27A      0.118530    28A      0.120617  
      29A      0.126233    30A      0.134718    31A      0.140374  
      32A      0.147781    33A      0.154916    34A      0.159393  
      35A      0.164992    36A      0.168902    37A      0.175661  
      38A      0.179866    39A      0.197026    40A      0.206545  
      41A      0.208122    42A      0.231909    43A      0.240828  
      44A      0.263445    45A      0.264273    46A      0.277878  
      47A      0.289041    48A      0.295809    49A      0.299573  
      50A      0.306393    51A      0.310617    52A      0.314037  
      53A      0.324052    54A      0.329399    55A      0.334600  
      56A      0.338290    57A      0.344701    58A      0.347195  
      59A      0.352164    60A      0.355768    61A      0.368699  
      62A      0.369697    63A      0.376616    64A      0.380843  
      65A      0.385850    66A      0.390548    67A      0.407705  
      68A      0.410783    69A      0.415413    70A      0.420221  
      71A      0.425577    72A      0.432763    73A      0.435821  
      74A      0.448825    75A      0.452923    76A      0.462986  
      77A      0.475134    78A      0.493945    79A      0.499169  
      80A      0.514287    81A      0.519375    82A      0.528006  
      83A      0.529124    84A      0.541584    85A      0.552034  
      86A      0.557878    87A      0.569750    88A      0.573305  
      89A      0.582971    90A      0.584653    91A      0.592775  
      92A      0.602516    93A      0.619498    94A      0.624048  
      95A      0.634588    96A      0.637501    97A      0.653544  
      98A      0.658944    99A      0.672815   100A      0.677716  
     101A      0.686354   102A      0.690594   103A      0.702957  
     104A      0.718616   105A      0.732707   106A      0.733832  
     107A      0.752135   108A      0.765002   109A      0.769403  
     110A      0.782427   111A      0.790579   112A      0.797666  
     113A      0.808157   114A      0.816707   115A      0.824168  
     116A      0.832954   117A      0.844118   118A      0.854194  
     119A      0.868206   120A      0.889177   121A      0.893157  
     122A      0.916983   123A      0.925545   124A      0.943779  
     125A      0.953428   126A      0.983973   127A      0.995771  
     128A      0.998427   129A      1.017938   130A      1.061357  
     131A      1.089441   132A      1.106201   133A      1.112322  
     134A      1.140372   135A      1.151223   136A      1.166683  
     137A      1.172009   138A      1.173922   139A      1.190103  
     140A      1.200605   141A      1.219562   142A      1.227389  
     143A      1.242620   144A      1.251690   145A      1.257302  
     146A      1.268783   147A      1.280612   148A      1.298807  
     149A      1.306008   150A      1.311793   151A      1.322652  
     152A      1.335706   153A      1.336705   154A      1.343309  
     155A      1.347724   156A      1.358193   157A      1.370897  
     158A      1.379861   159A      1.385196   160A      1.398606  
     161A      1.414442   162A      1.415382   163A      1.442148  
     164A      1.443369   165A      1.452952   166A      1.454315  
     167A      1.461540   168A      1.466117   169A      1.472703  
     170A      1.491839   171A      1.501485   172A      1.514883  
     173A      1.529114   174A      1.539662   175A      1.548072  
     176A      1.553671   177A      1.565145   178A      1.576814  
     179A      1.585685   180A      1.590316   181A      1.602925  
     182A      1.609846   183A      1.619219   184A      1.639561  
     185A      1.644190   186A      1.664914   187A      1.680416  
     188A      1.683528   189A      1.695721   190A      1.700275  
     191A      1.710847   192A      1.720965   193A      1.749887  
     194A      1.763801   195A      1.775410   196A      1.788658  
     197A      1.795435   198A      1.821813   199A      1.823669  
     200A      1.841336   201A      1.849839   202A      1.873996  
     203A      1.881693   204A      1.911160   205A      1.918755  
     206A      1.955360   207A      1.965021   208A      1.984461  
     209A      1.994430   210A      2.002891   211A      2.054548  
     212A      2.069445   213A      2.100937   214A      2.203087  
     215A      2.209136   216A      2.220386   217A      2.321156  
     218A      2.337975   219A      2.360581   220A      2.420775  
     221A      2.507964   222A      2.533159   223A      2.537692  
     224A      2.614858   225A      2.667308   226A      2.747158  
     227A      2.764567   228A      2.786940   229A      2.832982  
     230A      2.846058   231A      2.888641   232A      2.926823  
     233A      2.930807   234A      2.934442   235A      2.958482  
     236A      2.970131   237A      3.022660   238A      3.030340  
     239A      3.092984   240A      3.099569   241A      3.130441  
     242A      3.158355   243A      3.167165   244A      3.203286  
     245A      3.226446   246A      3.249466   247A      3.254241  
     248A      3.283406   249A      3.303811   250A      3.319283  
     251A      3.326200   252A      3.345335   253A      3.347841  
     254A      3.368308   255A      3.372184   256A      3.381928  
     257A      3.391239   258A      3.423281   259A      3.448180  
     260A      3.481406   261A      3.490764   262A      3.495318  
     263A      3.514840   264A      3.522793   265A      3.532343  
     266A      3.541654   267A      3.560863   268A      3.583541  
     269A      3.593225   270A      3.608428   271A      3.615290  
     272A      3.619479   273A      3.635441   274A      3.640053  
     275A      3.661475   276A      3.665532   277A      3.683576  
     278A      3.695855   279A      3.722138   280A      3.727951  
     281A      3.751789   282A      3.753113   283A      3.780532  
     284A      3.798085   285A      3.809442   286A      3.818819  
     287A      3.828363   288A      3.833316   289A      3.843598  
     290A      3.854912   291A      3.872034   292A      3.888063  
     293A      3.909701   294A      3.927686   295A      3.938880  
     296A      3.952452   297A      3.959435   298A      3.963056  
     299A      3.966013   300A      3.984038   301A      3.999329  
     302A      4.024126   303A      4.040000   304A      4.075325  
     305A      4.083217   306A      4.099581   307A      4.116508  
     308A      4.136710   309A      4.158275   310A      4.168230  
     311A      4.190401   312A      4.202055   313A      4.207809  
     314A      4.217507   315A      4.236748   316A      4.238071  
     317A      4.249476   318A      4.272620   319A      4.276644  
     320A      4.304579   321A      4.321641   322A      4.333602  
     323A      4.339759   324A      4.351128   325A      4.365406  
     326A      4.373068   327A      4.379710   328A      4.400262  
     329A      4.401777   330A      4.430133   331A      4.449608  
     332A      4.469842   333A      4.485141   334A      4.494940  
     335A      4.503491   336A      4.505165   337A      4.523961  
     338A      4.528046   339A      4.541004   340A      4.550949  
     341A      4.553383   342A      4.556174   343A      4.573959  
     344A      4.593038   345A      4.614413   346A      4.628149  
     347A      4.650724   348A      4.660178   349A      4.670475  
     350A      4.678350   351A      4.691642   352A      4.694960  
     353A      4.702881   354A      4.715880   355A      4.726660  
     356A      4.745619   357A      4.751988   358A      4.765975  
     359A      4.778967   360A      4.789445   361A      4.816618  
     362A      4.828414   363A      4.831846   364A      4.844129  
     365A      4.845050   366A      4.859344   367A      4.881807  
     368A      4.890684   369A      4.893715   370A      4.915764  
     371A      4.917595   372A      4.926119   373A      4.936918  
     374A      4.976573   375A      4.987316   376A      4.995611  
     377A      4.997584   378A      5.016580   379A      5.029086  
     380A      5.070217   381A      5.077243   382A      5.119626  
     383A      5.130259   384A      5.139710   385A      5.163623  
     386A      5.185677   387A      5.197108   388A      5.215301  
     389A      5.223630   390A      5.263115   391A      5.280943  
     392A      5.290491   393A      5.299330   394A      5.328434  
     395A      5.336777   396A      5.344279   397A      5.361559  
     398A      5.396043   399A      5.438416   400A      5.461338  
     401A      5.483450   402A      5.517592   403A      5.582906  
     404A      5.600290   405A      5.607134   406A      5.650139  
     407A      5.722912   408A      5.734877   409A      5.752161  
     410A      5.765819   411A      5.775212   412A      5.781911  
     413A      5.789601   414A      5.811818   415A      5.823844  
     416A      5.865214   417A      5.912956   418A      5.928962  
     419A      5.932222   420A      5.936425   421A      5.966451  
     422A      5.988493   423A      6.029393   424A      6.057042  
     425A      6.104509   426A      6.137245   427A      6.284846  
     428A      6.301767   429A      6.339439   430A      6.362796  
     431A      6.406724   432A      6.416154   433A      6.420793  
     434A      6.463703   435A      6.471222   436A      6.508664  
     437A      6.537770   438A      6.551402   439A      6.562523  
     440A      6.591762   441A      6.770549   442A      6.906788  
     443A      6.976566   444A      7.027774   445A      7.120517  
     446A      7.300351   447A      7.337207   448A      7.384315  
     449A      7.478794   450A      7.561594   451A      7.661306  
     452A      7.715496   453A      7.849380   454A      7.885535  
     455A      7.981349   456A      8.036238   457A      8.289138  
     458A      8.520312   459A      9.611501   460A      9.902040  
     461A     10.968767   462A     11.671790   463A     13.854712  
     464A     14.477378   465A     14.701987   466A     36.969977  
     467A     45.474385   468A     46.001085   469A     53.362603  

    Final Occupation by Irrep:
              A 
    DOCC [    13 ]

  @DF-RHF Final Energy:  -118.30804113113858

   => Energetics <=

    Nuclear Repulsion Energy =             82.8198153477739680
    One-Electron Energy =                -321.9945015102022126
    Two-Electron Energy =                 120.8666450312896785
    Total Energy =                       -118.3080411311385802

Computation Completed


Properties will be evaluated at   0.000000,   0.000000,   0.000000 [a0]

Properties computed using the SCF density matrix

  Nuclear Dipole Moment: [e a0]
     X:   -98.8585      Y:    -1.7736      Z:     1.0283

  Electronic Dipole Moment: [e a0]
     X:    98.8516      Y:     1.7435      Z:    -1.0389

  Dipole Moment: [e a0]
     X:    -0.0069      Y:    -0.0301      Z:    -0.0106     Total:     0.0326

  Dipole Moment: [D]
     X:    -0.0175      Y:    -0.0765      Z:    -0.0269     Total:     0.0830


*** tstop() called on r282 at Sat Sep 11 03:01:37 2021
Module time:
	user time   =      25.21 seconds =       0.42 minutes
	system time =       0.48 seconds =       0.01 minutes
	total time  =         26 seconds =       0.43 minutes
Total time:
	user time   =     115.12 seconds =       1.92 minutes
	system time =       2.19 seconds =       0.04 minutes
	total time  =        117 seconds =       1.95 minutes
  Constructing Basis Sets for SAPT...

   => Loading Basis Set <=

    Name: (JUN-CC-PVTZ AUX)
    Role: RIFIT
    Keyword: DF_BASIS_SAPT
    atoms 1-4, 11-13  entry C          line   132 file /home/r08543048/miniconda3/share/psi4/basis/jun-cc-pvtz-ri.gbs 
    atoms 5-10, 14-21 entry H          line    30 file /home/r08543048/miniconda3/share/psi4/basis/jun-cc-pvtz-ri.gbs 


  //>>>>>>>>>>>>>>>>>>>>>>>>>>>>>>>>>>>//
  //               SAPT0               //
  //<<<<<<<<<<<<<<<<<<<<<<<<<<<<<<<<<<<//


*** tstart() called on r282
*** at Sat Sep 11 03:01:37 2021

        SAPT0  
    Ed Hohenstein
     6 June 2009

      Orbital Information
  --------------------------
    NSO        =       469
    NMO        =       469
    NRI        =      1099
    NOCC A     =        15
    NOCC B     =        13
    FOCC A     =         0
    FOCC B     =         0
    NVIR A     =       454
    NVIR B     =       456

    Elst10,r            =    -0.002643847129 [Eh]
    Exch10              =     0.006681785118 [Eh]
    Exch10 (S^2)        =     0.006669912391 [Eh]

    Iter     Energy [mEh]          dE [mEh]         Residual      Time [s]
       1      -0.51071662       0.510716621       2.932414492             1
       2      -0.62892237       0.118205754       0.647892294             2
       3      -0.62927120       0.000348830       0.266341170             3
       4      -0.62738483      -0.001886375       0.095852027             4
       5      -0.62705762      -0.000327213       0.027270242             5
       6      -0.62731985       0.000262232       0.011586194             6
       7      -0.62728311      -0.000036736       0.006479136             6
       8      -0.62726012      -0.000022994       0.001712556             7
       9      -0.62726869       0.000008573       0.000374157             8
      10      -0.62726867      -0.000000017       0.000112505             9
      11      -0.62726832      -0.000000354       0.000027855            10
      12      -0.62726833       0.000000007       0.000006913            11
      13      -0.62726835       0.000000019       0.000001851            12
      14      -0.62726835      -0.000000001       0.000000591            13

    CHF Iterations converged


    Iter     Energy [mEh]          dE [mEh]         Residual      Time [s]
       1      -0.63793298       0.637932981       3.573307313             0
       2      -0.75978851       0.121855532       0.955940169             1
       3      -0.76827239       0.008483881       0.221736100             2
       4      -0.76591571      -0.002356689       0.071342928             2
       5      -0.76553349      -0.000382216       0.013312093             3
       6      -0.76567149       0.000138001       0.002990056             4
       7      -0.76567319       0.000001701       0.000821670             5
       8      -0.76566826      -0.000004928       0.000175211             5
       9      -0.76566850       0.000000236       0.000034213             6
      10      -0.76566861       0.000000112       0.000007154             7
      11      -0.76566860      -0.000000013       0.000002162             8
      12      -0.76566859      -0.000000008       0.000000440             8

    CHF Iterations converged

    Ind20,r (A<-B)      =    -0.000627268346 [Eh]
    Ind20,r (B<-A)      =    -0.000765668591 [Eh]
    Ind20,r             =    -0.001392936937 [Eh]
    Exch-Ind20,r (A<-B) =     0.000544368342 [Eh]
    Exch-Ind20,r (B<-A) =     0.000529127561 [Eh]
    Exch-Ind20,r        =     0.001073495903 [Eh]
    Disp20              =    -0.008196919477 [Eh]
    Disp20 (SS)         =    -0.004098459739 [Eh]
    Disp20 (OS)         =    -0.004098459739 [Eh]
    Exch-Disp20         =     0.000754275088 [Eh]
    Exch-Disp20 (SS)    =     0.000496593255 [Eh]
    Exch-Disp20 (OS)    =     0.000257681832 [Eh]

    SAPT Results 
  --------------------------------------------------------------------------------------------------------
    Electrostatics                 -2.64384713 [mEh]      -1.65903912 [kcal/mol]      -6.94141968 [kJ/mol]
      Elst10,r                     -2.64384713 [mEh]      -1.65903912 [kcal/mol]      -6.94141968 [kJ/mol]

    Exchange                        6.68178512 [mEh]       4.19288346 [kcal/mol]      17.54302441 [kJ/mol]
      Exch10                        6.68178512 [mEh]       4.19288346 [kcal/mol]      17.54302441 [kJ/mol]
      Exch10(S^2)                   6.66991239 [mEh]       4.18543321 [kcal/mol]      17.51185257 [kJ/mol]

    Induction                      -0.78891975 [mEh]      -0.49505462 [kcal/mol]      -2.07130852 [kJ/mol]
      Ind20,r                      -1.39293694 [mEh]      -0.87408112 [kcal/mol]      -3.65715542 [kJ/mol]
      Exch-Ind20,r                  1.07349590 [mEh]       0.67362885 [kcal/mol]       2.81846310 [kJ/mol]
      delta HF,r (2)               -0.46947872 [mEh]      -0.29460234 [kcal/mol]      -1.23261620 [kJ/mol]

    Dispersion                     -7.44264439 [mEh]      -4.67032986 [kcal/mol]     -19.54066015 [kJ/mol]
      Disp20                       -8.19691948 [mEh]      -5.14364463 [kcal/mol]     -21.52100912 [kJ/mol]
      Exch-Disp20                   0.75427509 [mEh]       0.47331476 [kcal/mol]       1.98034897 [kJ/mol]
      Disp20 (SS)                  -4.09845974 [mEh]      -2.57182231 [kcal/mol]     -10.76050456 [kJ/mol]
      Disp20 (OS)                  -4.09845974 [mEh]      -2.57182231 [kcal/mol]     -10.76050456 [kJ/mol]
      Exch-Disp20 (SS)              0.49659326 [mEh]       0.31161697 [kcal/mol]       1.30380541 [kJ/mol]
      Exch-Disp20 (OS)              0.25768183 [mEh]       0.16169779 [kcal/mol]       0.67654356 [kJ/mol]

  Total HF                          3.24901824 [mEh]       2.03878972 [kcal/mol]       8.53029621 [kJ/mol]
  Total SAPT0                      -4.19362615 [mEh]      -2.63154014 [kcal/mol]     -11.01036395 [kJ/mol]

  Special recipe for scaled SAPT0 (see Manual):
    Electrostatics sSAPT0          -2.64384713 [mEh]      -1.65903912 [kcal/mol]      -6.94141968 [kJ/mol]
    Exchange sSAPT0                 6.68178512 [mEh]       4.19288346 [kcal/mol]      17.54302441 [kJ/mol]
    Induction sSAPT0               -0.78317694 [mEh]      -0.49145095 [kcal/mol]      -2.05623076 [kJ/mol]
    Dispersion sSAPT0              -7.43860929 [mEh]      -4.66779780 [kcal/mol]     -19.53006600 [kJ/mol]
  Total sSAPT0                     -4.18384824 [mEh]      -2.62540441 [kcal/mol]     -10.98469204 [kJ/mol]
  --------------------------------------------------------------------------------------------------------

*** tstop() called on r282 at Sat Sep 11 03:03:07 2021
Module time:
	user time   =      77.15 seconds =       1.29 minutes
	system time =      13.00 seconds =       0.22 minutes
	total time  =         90 seconds =       1.50 minutes
Total time:
	user time   =     192.40 seconds =       3.21 minutes
	system time =      15.20 seconds =       0.25 minutes
	total time  =        207 seconds =       3.45 minutes

    Psi4 stopped on: Saturday, 11 September 2021 03:03AM
    Psi4 wall time for execution: 0:03:28.00

*** Psi4 exiting successfully. Buy a developer a beer!
