
    -----------------------------------------------------------------------
          Psi4: An Open-Source Ab Initio Electronic Structure Package
                               Psi4 1.3.2 release

                         Git: Rev {HEAD} ecbda83 


    R. M. Parrish, L. A. Burns, D. G. A. Smith, A. C. Simmonett,
    A. E. DePrince III, E. G. Hohenstein, U. Bozkaya, A. Yu. Sokolov,
    R. Di Remigio, R. M. Richard, J. F. Gonthier, A. M. James,
    H. R. McAlexander, A. Kumar, M. Saitow, X. Wang, B. P. Pritchard,
    P. Verma, H. F. Schaefer III, K. Patkowski, R. A. King, E. F. Valeev,
    F. A. Evangelista, J. M. Turney, T. D. Crawford, and C. D. Sherrill,
    J. Chem. Theory Comput. 13(7) pp 3185--3197 (2017).
    (doi: 10.1021/acs.jctc.7b00174)


                         Additional Contributions by
    P. Kraus, H. Kruse, M. H. Lechner, M. C. Schieber, R. A. Shaw,
    A. Alenaizan, R. Galvelis, Z. L. Glick, S. Lehtola, and J. P. Misiewicz

    -----------------------------------------------------------------------


    Psi4 started on: Saturday, 11 September 2021 02:56AM

    Process ID: 57547
    Host:       r282
    PSIDATADIR: /home/r08543048/miniconda3/share/psi4
    Memory:     500.0 MiB
    Threads:    1
    
  ==> Input File <==

--------------------------------------------------------------------------
# Any line starting with the # character is a comment line
#! Sample  computation

memory 22 gb

molecule Dimer {
0 1
 C 2.222532   -0.985469    0.240678
 C 1.911048    0.412380   -0.031741
 C 1.649480    1.577655   -0.257294
 H 2.177234   -1.574525   -0.674184
 H 3.222440   -1.081029    0.661366
 H 1.510003   -1.405557    0.949635
 H 1.425755    2.596865   -0.452908
 
 
 
 
 
 








 --
0 1
 C -1.262547   -1.255763   -0.587270
 C -1.580683   -0.312342    0.566129
 C -2.114279    1.024390    0.067420
 H -2.155486   -1.450192   -1.183442
 H -0.512794   -0.813137   -1.244852
 H -0.882112   -2.214929   -0.234752
 H -0.680203   -0.139830    1.159043
 H -2.312275   -0.776940    1.230759
 H -2.336569    1.702430    0.891148
 H -1.380118    1.507071   -0.578882
 H -3.029171    0.884667   -0.510463










units angstrom

no_reorient
symmetry c1
}

set globals{
  basis jun-cc-pvtz
}

energy('sapt0')


--------------------------------------------------------------------------

  Memory set to  20.489 GiB by Python driver.

  //>>>>>>>>>>>>>>>>>>>>>>>>>>>>>>>>>>>//
  //              Dimer HF             //
  //<<<<<<<<<<<<<<<<<<<<<<<<<<<<<<<<<<<//


*** tstart() called on r282
*** at Sat Sep 11 02:56:54 2021

   => Loading Basis Set <=

    Name: JUN-CC-PVTZ
    Role: ORBITAL
    Keyword: BASIS
    atoms 1-3, 8-10  entry C          line   217 file /home/r08543048/miniconda3/share/psi4/basis/jun-cc-pvtz.gbs 
    atoms 4-7, 11-18 entry H          line    36 file /home/r08543048/miniconda3/share/psi4/basis/jun-cc-pvtz.gbs 


         ---------------------------------------------------------
                                   SCF
               by Justin Turney, Rob Parrish, Andy Simmonett
                          and Daniel G. A. Smith
                              RHF Reference
                        1 Threads,  20980 MiB Core
         ---------------------------------------------------------

  ==> Geometry <==

    Molecular point group: c1
    Full point group: C1

    Geometry (in Angstrom), charge = 0, multiplicity = 1:

       Center              X                  Y                   Z               Mass       
    ------------   -----------------  -----------------  -----------------  -----------------
         C            2.164090706677    -1.018092875737     0.240825102673    12.000000000000
         C            1.852606706677     0.379756124263    -0.031593897327    12.000000000000
         C            1.591038706677     1.545031124263    -0.257146897327    12.000000000000
         H            2.118792706677    -1.607148875737    -0.674036897327     1.007825032230
         H            3.163998706677    -1.113652875737     0.661513102673     1.007825032230
         H            1.451561706677    -1.438180875737     0.949782102673     1.007825032230
         H            1.367313706677     2.564241124263    -0.452760897327     1.007825032230
         C           -1.320988293323    -1.288386875737    -0.587122897327    12.000000000000
         C           -1.639124293323    -0.344965875737     0.566276102673    12.000000000000
         C           -2.172720293323     0.991766124263     0.067567102673    12.000000000000
         H           -2.213927293323    -1.482815875737    -1.183294897327     1.007825032230
         H           -0.571235293323    -0.845760875737    -1.244704897327     1.007825032230
         H           -0.940553293323    -2.247552875737    -0.234604897327     1.007825032230
         H           -0.738644293323    -0.172453875737     1.159190102673     1.007825032230
         H           -2.370716293323    -0.809563875737     1.230906102673     1.007825032230
         H           -2.395010293323     1.669806124263     0.891295102673     1.007825032230
         H           -1.438559293323     1.474447124263    -0.578734897327     1.007825032230
         H           -3.087612293323     0.852043124263    -0.510315897327     1.007825032230

  Running in c1 symmetry.

  Rotational constants: A =      0.13862  B =      0.05524  C =      0.04333 [cm^-1]
  Rotational constants: A =   4155.76192  B =   1656.13723  C =   1299.00706 [MHz]
  Nuclear repulsion =  217.807301980702164

  Charge       = 0
  Multiplicity = 1
  Electrons    = 48
  Nalpha       = 24
  Nbeta        = 24

  ==> Algorithm <==

  SCF Algorithm Type is DF.
  DIIS enabled.
  MOM disabled.
  Fractional occupation disabled.
  Guess Type is SAD.
  Energy threshold   = 1.00e-08
  Density threshold  = 1.00e-08
  Integral threshold = 0.00e+00

  ==> Primary Basis <==

  Basis Set: JUN-CC-PVTZ
    Blend: JUN-CC-PVTZ
    Number of shells: 150
    Number of basis function: 402
    Number of Cartesian functions: 450
    Spherical Harmonics?: true
    Max angular momentum: 3

   => Loading Basis Set <=

    Name: (JUN-CC-PVTZ AUX)
    Role: JKFIT
    Keyword: DF_BASIS_SCF
    atoms 1-3, 8-10  entry C          line   152 file /home/r08543048/miniconda3/share/psi4/basis/jun-cc-pvtz-jkfit.gbs 
    atoms 4-7, 11-18 entry H          line    70 file /home/r08543048/miniconda3/share/psi4/basis/jun-cc-pvtz-jkfit.gbs 

  ==> Pre-Iterations <==

   -------------------------------------------------------
    Irrep   Nso     Nmo     Nalpha   Nbeta   Ndocc  Nsocc
   -------------------------------------------------------
     A        402     402       0       0       0       0
   -------------------------------------------------------
    Total     402     402      24      24      24       0
   -------------------------------------------------------

  ==> Integral Setup <==

  ==> DiskDFJK: Density-Fitted J/K Matrices <==

    J tasked:                  Yes
    K tasked:                  Yes
    wK tasked:                  No
    OpenMP threads:              1
    Integrals threads:           1
    Memory [MiB]:            15735
    Algorithm:                Core
    Integral Cache:           SAVE
    Schwarz Cutoff:          1E-12
    Fitting Condition:       1E-10

   => Auxiliary Basis Set <=

  Basis Set: (JUN-CC-PVTZ AUX)
    Blend: JUN-CC-PVTZ-JKFIT
    Number of shells: 294
    Number of basis function: 930
    Number of Cartesian functions: 1116
    Spherical Harmonics?: true
    Max angular momentum: 4

  Minimum eigenvalue in the overlap matrix is 2.1977995606E-05.
  Using Symmetric Orthogonalization.

  SCF Guess: Superposition of Atomic Densities via on-the-fly atomic UHF.

  ==> Iterations <==

                           Total Energy        Delta E     RMS |[F,P]|

   @DF-RHF iter SAD:  -232.77782720228069   -2.32778e+02   0.00000e+00 
   @DF-RHF iter   1:  -233.95552563145361   -1.17770e+00   1.61577e-03 DIIS
   @DF-RHF iter   2:  -234.16722452610122   -2.11699e-01   7.11279e-04 DIIS
   @DF-RHF iter   3:  -234.20957517980696   -4.23507e-02   1.37441e-04 DIIS
   @DF-RHF iter   4:  -234.21245626689011   -2.88109e-03   5.17077e-05 DIIS
   @DF-RHF iter   5:  -234.21272485681590   -2.68590e-04   1.62761e-05 DIIS
   @DF-RHF iter   6:  -234.21275040338693   -2.55466e-05   4.20333e-06 DIIS
   @DF-RHF iter   7:  -234.21275254141693   -2.13803e-06   6.98905e-07 DIIS
   @DF-RHF iter   8:  -234.21275261467031   -7.32534e-08   1.66611e-07 DIIS
   @DF-RHF iter   9:  -234.21275261924103   -4.57072e-09   4.93748e-08 DIIS
   @DF-RHF iter  10:  -234.21275261981231   -5.71276e-10   1.76058e-08 DIIS
   @DF-RHF iter  11:  -234.21275261992622   -1.13914e-10   8.69456e-09 DIIS
  Energy and wave function converged.


  ==> Post-Iterations <==

    Orbital Energies [Eh]
    ---------------------

    Doubly Occupied:                                                      

       1A    -11.250893     2A    -11.240514     3A    -11.223666  
       4A    -11.210374     5A    -11.204350     6A    -11.202237  
       7A     -1.059392     8A     -1.048940     9A     -0.958376  
      10A     -0.920345    11A     -0.795381    12A     -0.721181  
      13A     -0.624943    14A     -0.623681    15A     -0.597760  
      16A     -0.594555    17A     -0.588559    18A     -0.544520  
      19A     -0.525491    20A     -0.471240    21A     -0.470593  
      22A     -0.463946    23A     -0.383426    24A     -0.383211  

    Virtual:                                                              

      25A      0.047751    26A      0.052804    27A      0.060018  
      28A      0.061973    29A      0.071520    30A      0.083445  
      31A      0.089914    32A      0.093302    33A      0.094718  
      34A      0.111542    35A      0.115228    36A      0.118822  
      37A      0.130218    38A      0.132617    39A      0.134973  
      40A      0.142603    41A      0.153119    42A      0.159265  
      43A      0.164673    44A      0.180382    45A      0.192047  
      46A      0.198722    47A      0.200950    48A      0.206118  
      49A      0.216873    50A      0.225452    51A      0.261909  
      52A      0.264950    53A      0.276003    54A      0.280721  
      55A      0.294148    56A      0.296876    57A      0.301964  
      58A      0.307334    59A      0.314275    60A      0.324331  
      61A      0.330259    62A      0.334788    63A      0.337457  
      64A      0.340627    65A      0.352057    66A      0.353948  
      67A      0.359835    68A      0.367851    69A      0.379201  
      70A      0.387742    71A      0.393266    72A      0.398971  
      73A      0.404761    74A      0.417585    75A      0.428763  
      76A      0.435455    77A      0.443084    78A      0.451527  
      79A      0.460952    80A      0.467611    81A      0.470014  
      82A      0.483451    83A      0.492107    84A      0.503744  
      85A      0.513392    86A      0.528016    87A      0.533577  
      88A      0.535236    89A      0.541033    90A      0.558104  
      91A      0.563662    92A      0.564852    93A      0.588210  
      94A      0.591894    95A      0.607829    96A      0.640458  
      97A      0.647107    98A      0.679156    99A      0.684850  
     100A      0.690547   101A      0.706645   102A      0.716345  
     103A      0.731740   104A      0.736038   105A      0.761180  
     106A      0.778120   107A      0.779032   108A      0.789421  
     109A      0.793711   110A      0.807615   111A      0.809023  
     112A      0.815778   113A      0.823770   114A      0.836830  
     115A      0.846605   116A      0.859353   117A      0.884150  
     118A      0.891698   119A      0.901079   120A      0.904894  
     121A      0.912068   122A      0.922156   123A      0.935055  
     124A      0.943638   125A      0.957599   126A      0.983285  
     127A      0.988991   128A      1.018179   129A      1.023169  
     130A      1.040396   131A      1.043464   132A      1.064909  
     133A      1.074508   134A      1.090409   135A      1.107431  
     136A      1.121225   137A      1.138222   138A      1.148270  
     139A      1.153348   140A      1.169941   141A      1.187197  
     142A      1.205822   143A      1.219635   144A      1.233695  
     145A      1.257059   146A      1.258505   147A      1.270362  
     148A      1.294592   149A      1.300485   150A      1.334864  
     151A      1.340324   152A      1.353923   153A      1.361090  
     154A      1.366600   155A      1.383838   156A      1.402616  
     157A      1.426974   158A      1.434448   159A      1.452860  
     160A      1.456987   161A      1.471733   162A      1.483115  
     163A      1.507226   164A      1.513747   165A      1.523427  
     166A      1.529150   167A      1.546212   168A      1.563051  
     169A      1.579332   170A      1.586833   171A      1.596593  
     172A      1.614414   173A      1.619425   174A      1.635932  
     175A      1.644587   176A      1.659922   177A      1.662975  
     178A      1.679321   179A      1.717688   180A      1.723758  
     181A      1.750866   182A      1.768626   183A      1.790491  
     184A      1.803286   185A      1.820096   186A      1.842044  
     187A      1.846785   188A      1.875974   189A      1.877683  
     190A      1.950925   191A      1.954513   192A      1.965690  
     193A      1.986540   194A      2.036643   195A      2.065559  
     196A      2.088791   197A      2.345321   198A      2.528840  
     199A      2.592051   200A      2.616018   201A      2.681494  
     202A      2.739393   203A      2.750836   204A      2.760454  
     205A      2.777451   206A      2.787991   207A      2.812645  
     208A      2.821212   209A      2.835693   210A      2.850810  
     211A      2.865106   212A      2.878222   213A      2.899008  
     214A      2.913896   215A      2.922171   216A      2.946631  
     217A      2.949417   218A      2.968657   219A      2.986878  
     220A      2.995727   221A      3.009424   222A      3.028091  
     223A      3.049644   224A      3.081241   225A      3.092357  
     226A      3.096371   227A      3.103220   228A      3.121139  
     229A      3.138367   230A      3.153347   231A      3.172801  
     232A      3.179857   233A      3.207209   234A      3.222986  
     235A      3.229586   236A      3.242041   237A      3.269444  
     238A      3.274984   239A      3.283272   240A      3.289407  
     241A      3.303917   242A      3.308851   243A      3.313668  
     244A      3.345089   245A      3.357228   246A      3.372436  
     247A      3.376998   248A      3.386861   249A      3.398737  
     250A      3.405421   251A      3.420927   252A      3.431086  
     253A      3.440468   254A      3.448191   255A      3.452281  
     256A      3.474873   257A      3.483073   258A      3.496835  
     259A      3.510755   260A      3.517474   261A      3.523203  
     262A      3.526483   263A      3.544079   264A      3.546157  
     265A      3.581756   266A      3.593493   267A      3.597650  
     268A      3.606796   269A      3.613046   270A      3.635911  
     271A      3.648634   272A      3.685848   273A      3.704552  
     274A      3.717343   275A      3.727633   276A      3.733268  
     277A      3.742189   278A      3.754579   279A      3.768998  
     280A      3.777601   281A      3.788172   282A      3.808361  
     283A      3.827003   284A      3.852618   285A      3.861166  
     286A      3.878145   287A      3.935329   288A      3.941140  
     289A      3.952838   290A      3.959176   291A      3.976620  
     292A      3.980607   293A      3.999074   294A      4.055546  
     295A      4.074944   296A      4.090215   297A      4.125117  
     298A      4.133259   299A      4.155568   300A      4.194046  
     301A      4.207479   302A      4.221607   303A      4.232552  
     304A      4.240718   305A      4.254208   306A      4.270003  
     307A      4.305399   308A      4.321292   309A      4.326759  
     310A      4.340956   311A      4.346197   312A      4.356993  
     313A      4.369061   314A      4.379897   315A      4.381207  
     316A      4.406401   317A      4.429735   318A      4.441535  
     319A      4.469523   320A      4.483972   321A      4.485979  
     322A      4.492922   323A      4.518471   324A      4.523203  
     325A      4.540392   326A      4.555842   327A      4.557305  
     328A      4.559895   329A      4.604062   330A      4.615381  
     331A      4.623474   332A      4.664362   333A      4.674161  
     334A      4.695533   335A      4.711443   336A      4.752538  
     337A      4.766262   338A      4.773323   339A      4.816676  
     340A      4.829212   341A      4.843284   342A      4.883004  
     343A      4.924678   344A      5.000427   345A      5.001845  
     346A      5.036569   347A      5.138056   348A      5.142036  
     349A      5.149897   350A      5.161228   351A      5.175724  
     352A      5.203738   353A      5.262902   354A      5.278753  
     355A      5.285973   356A      5.295636   357A      5.336317  
     358A      5.381399   359A      5.400740   360A      5.416089  
     361A      5.441306   362A      5.474202   363A      5.521466  
     364A      5.553202   365A      5.565083   366A      5.589265  
     367A      5.601086   368A      5.607586   369A      5.614833  
     370A      5.660064   371A      5.723654   372A      5.725733  
     373A      5.746240   374A      5.755282   375A      5.761123  
     376A      5.782276   377A      5.797100   378A      5.807253  
     379A      5.828293   380A      5.927010   381A      5.934864  
     382A      5.962652   383A      5.984948   384A      6.049553  
     385A      6.105819   386A      6.332659   387A      6.337156  
     388A      6.356739   389A      6.431386   390A      6.434200  
     391A      6.484493   392A      6.518227   393A      6.523612  
     394A      6.556753   395A      6.592266   396A      6.724132  
     397A     10.078431   398A     13.825388   399A     14.449796  
     400A     14.687729   401A     15.025868   402A     18.445048  

    Final Occupation by Irrep:
              A 
    DOCC [    24 ]

  @DF-RHF Final Energy:  -234.21275261992622

   => Energetics <=

    Nuclear Repulsion Energy =            217.8073019807021637
    One-Electron Energy =                -745.8249607589218613
    Two-Electron Energy =                 293.8049061582934769
    Total Energy =                       -234.2127526199262206

Computation Completed


Properties will be evaluated at   0.000000,   0.000000,   0.000000 [a0]

Properties computed using the SCF density matrix

  Nuclear Dipole Moment: [e a0]
     X:    -5.3010      Y:    -2.9592      Z:     0.0133

  Electronic Dipole Moment: [e a0]
     X:     5.4111      Y:     2.6879      Z:     0.0652

  Dipole Moment: [e a0]
     X:     0.1101      Y:    -0.2713      Z:     0.0785     Total:     0.3031

  Dipole Moment: [D]
     X:     0.2799      Y:    -0.6895      Z:     0.1995     Total:     0.7705


*** tstop() called on r282 at Sat Sep 11 02:57:23 2021
Module time:
	user time   =      27.39 seconds =       0.46 minutes
	system time =       0.74 seconds =       0.01 minutes
	total time  =         29 seconds =       0.48 minutes
Total time:
	user time   =      27.39 seconds =       0.46 minutes
	system time =       0.74 seconds =       0.01 minutes
	total time  =         29 seconds =       0.48 minutes

  //>>>>>>>>>>>>>>>>>>>>>>>>>>>>>>>>>>>//
  //            Monomer A HF           //
  //<<<<<<<<<<<<<<<<<<<<<<<<<<<<<<<<<<<//


*** tstart() called on r282
*** at Sat Sep 11 02:57:23 2021

   => Loading Basis Set <=

    Name: JUN-CC-PVTZ
    Role: ORBITAL
    Keyword: BASIS
    atoms 1-3, 8-10  entry C          line   217 file /home/r08543048/miniconda3/share/psi4/basis/jun-cc-pvtz.gbs 
    atoms 4-7, 11-18 entry H          line    36 file /home/r08543048/miniconda3/share/psi4/basis/jun-cc-pvtz.gbs 


         ---------------------------------------------------------
                                   SCF
               by Justin Turney, Rob Parrish, Andy Simmonett
                          and Daniel G. A. Smith
                              RHF Reference
                        1 Threads,  20980 MiB Core
         ---------------------------------------------------------

  ==> Geometry <==

    Molecular point group: c1
    Full point group: C1

    Geometry (in Angstrom), charge = 0, multiplicity = 1:

       Center              X                  Y                   Z               Mass       
    ------------   -----------------  -----------------  -----------------  -----------------
         C            2.164090706677    -1.018092875737     0.240825102673    12.000000000000
         C            1.852606706677     0.379756124263    -0.031593897327    12.000000000000
         C            1.591038706677     1.545031124263    -0.257146897327    12.000000000000
         H            2.118792706677    -1.607148875737    -0.674036897327     1.007825032230
         H            3.163998706677    -1.113652875737     0.661513102673     1.007825032230
         H            1.451561706677    -1.438180875737     0.949782102673     1.007825032230
         H            1.367313706677     2.564241124263    -0.452760897327     1.007825032230
      Gh(C)          -1.320988293323    -1.288386875737    -0.587122897327    12.000000000000
      Gh(C)          -1.639124293323    -0.344965875737     0.566276102673    12.000000000000
      Gh(C)          -2.172720293323     0.991766124263     0.067567102673    12.000000000000
      Gh(H)          -2.213927293323    -1.482815875737    -1.183294897327     1.007825032230
      Gh(H)          -0.571235293323    -0.845760875737    -1.244704897327     1.007825032230
      Gh(H)          -0.940553293323    -2.247552875737    -0.234604897327     1.007825032230
      Gh(H)          -0.738644293323    -0.172453875737     1.159190102673     1.007825032230
      Gh(H)          -2.370716293323    -0.809563875737     1.230906102673     1.007825032230
      Gh(H)          -2.395010293323     1.669806124263     0.891295102673     1.007825032230
      Gh(H)          -1.438559293323     1.474447124263    -0.578734897327     1.007825032230
      Gh(H)          -3.087612293323     0.852043124263    -0.510315897327     1.007825032230

  Running in c1 symmetry.

  Rotational constants: A =      0.13862  B =      0.05524  C =      0.04333 [cm^-1]
  Rotational constants: A =   4155.76192  B =   1656.13723  C =   1299.00706 [MHz]
  Nuclear repulsion =   58.604108014599262

  Charge       = 0
  Multiplicity = 1
  Electrons    = 22
  Nalpha       = 11
  Nbeta        = 11

  ==> Algorithm <==

  SCF Algorithm Type is DF.
  DIIS enabled.
  MOM disabled.
  Fractional occupation disabled.
  Guess Type is SAD.
  Energy threshold   = 1.00e-08
  Density threshold  = 1.00e-08
  Integral threshold = 0.00e+00

  ==> Primary Basis <==

  Basis Set: JUN-CC-PVTZ
    Blend: JUN-CC-PVTZ
    Number of shells: 150
    Number of basis function: 402
    Number of Cartesian functions: 450
    Spherical Harmonics?: true
    Max angular momentum: 3

   => Loading Basis Set <=

    Name: (JUN-CC-PVTZ AUX)
    Role: JKFIT
    Keyword: DF_BASIS_SCF
    atoms 1-3, 8-10  entry C          line   152 file /home/r08543048/miniconda3/share/psi4/basis/jun-cc-pvtz-jkfit.gbs 
    atoms 4-7, 11-18 entry H          line    70 file /home/r08543048/miniconda3/share/psi4/basis/jun-cc-pvtz-jkfit.gbs 

  ==> Pre-Iterations <==

   -------------------------------------------------------
    Irrep   Nso     Nmo     Nalpha   Nbeta   Ndocc  Nsocc
   -------------------------------------------------------
     A        402     402       0       0       0       0
   -------------------------------------------------------
    Total     402     402      11      11      11       0
   -------------------------------------------------------

  ==> Integral Setup <==

  ==> DiskDFJK: Density-Fitted J/K Matrices <==

    J tasked:                  Yes
    K tasked:                  Yes
    wK tasked:                  No
    OpenMP threads:              1
    Integrals threads:           1
    Memory [MiB]:            15735
    Algorithm:                Core
    Integral Cache:           LOAD
    Schwarz Cutoff:          1E-12
    Fitting Condition:       1E-10

   => Auxiliary Basis Set <=

  Basis Set: (JUN-CC-PVTZ AUX)
    Blend: JUN-CC-PVTZ-JKFIT
    Number of shells: 294
    Number of basis function: 930
    Number of Cartesian functions: 1116
    Spherical Harmonics?: true
    Max angular momentum: 4

  Minimum eigenvalue in the overlap matrix is 2.1977995606E-05.
  Using Symmetric Orthogonalization.

  SCF Guess: Superposition of Atomic Densities via on-the-fly atomic UHF.

  ==> Iterations <==

                           Total Energy        Delta E     RMS |[F,P]|

   @DF-RHF iter SAD:  -114.91705505029419   -1.14917e+02   0.00000e+00 
   @DF-RHF iter   1:  -115.81205599825898   -8.95001e-01   9.92022e-04 DIIS
   @DF-RHF iter   2:  -115.89525718756991   -8.32012e-02   3.63725e-04 DIIS
   @DF-RHF iter   3:  -115.90656263733663   -1.13054e-02   8.11296e-05 DIIS
   @DF-RHF iter   4:  -115.90744791482150   -8.85277e-04   4.55035e-05 DIIS
   @DF-RHF iter   5:  -115.90764226265874   -1.94348e-04   7.31072e-06 DIIS
   @DF-RHF iter   6:  -115.90764953378219   -7.27112e-06   1.42074e-06 DIIS
   @DF-RHF iter   7:  -115.90764978870483   -2.54923e-07   4.16744e-07 DIIS
   @DF-RHF iter   8:  -115.90764981155191   -2.28471e-08   7.03202e-08 DIIS
   @DF-RHF iter   9:  -115.90764981267650   -1.12459e-09   1.20783e-08 DIIS
   @DF-RHF iter  10:  -115.90764981270945   -3.29550e-11   1.21826e-09 DIIS
  Energy and wave function converged.


  ==> Post-Iterations <==

    Orbital Energies [Eh]
    ---------------------

    Doubly Occupied:                                                      

       1A    -11.250839     2A    -11.239813     3A    -11.222998  
       4A     -1.057262     5A     -0.957291     6A     -0.719847  
       7A     -0.623336     8A     -0.594213     9A     -0.593535  
      10A     -0.382354    11A     -0.382258  

    Virtual:                                                              

      12A      0.034637    13A      0.045627    14A      0.054955  
      15A      0.056471    16A      0.067592    17A      0.080737  
      18A      0.087674    19A      0.088885    20A      0.092617  
      21A      0.106709    22A      0.112379    23A      0.115388  
      24A      0.121886    25A      0.126621    26A      0.135774  
      27A      0.139864    28A      0.142689    29A      0.152913  
      30A      0.155392    31A      0.162134    32A      0.166206  
      33A      0.173629    34A      0.200842    35A      0.202212  
      36A      0.208803    37A      0.215195    38A      0.227091  
      39A      0.247320    40A      0.270467    41A      0.276779  
      42A      0.287085    43A      0.295689    44A      0.299035  
      45A      0.304705    46A      0.314443    47A      0.318943  
      48A      0.321552    49A      0.332998    50A      0.336385  
      51A      0.346384    52A      0.353574    53A      0.356813  
      54A      0.369914    55A      0.370157    56A      0.382696  
      57A      0.387643    58A      0.392108    59A      0.412680  
      60A      0.416555    61A      0.419394    62A      0.434308  
      63A      0.435083    64A      0.458059    65A      0.466487  
      66A      0.468686    67A      0.474327    68A      0.478621  
      69A      0.484665    70A      0.498423    71A      0.508390  
      72A      0.512341    73A      0.523832    74A      0.534883  
      75A      0.549465    76A      0.551158    77A      0.571062  
      78A      0.577340    79A      0.578875    80A      0.592544  
      81A      0.601945    82A      0.608068    83A      0.611253  
      84A      0.623133    85A      0.633401    86A      0.647772  
      87A      0.663043    88A      0.676297    89A      0.685114  
      90A      0.697463    91A      0.701925    92A      0.713353  
      93A      0.729994    94A      0.756676    95A      0.763837  
      96A      0.782284    97A      0.792677    98A      0.818085  
      99A      0.836433   100A      0.846348   101A      0.885955  
     102A      0.905715   103A      0.923271   104A      0.933969  
     105A      0.957088   106A      0.985038   107A      1.010291  
     108A      1.025316   109A      1.043191   110A      1.053010  
     111A      1.068749   112A      1.079413   113A      1.085247  
     114A      1.093028   115A      1.109089   116A      1.113666  
     117A      1.130695   118A      1.138540   119A      1.156444  
     120A      1.159398   121A      1.173526   122A      1.182353  
     123A      1.196235   124A      1.206171   125A      1.219642  
     126A      1.224939   127A      1.234827   128A      1.256188  
     129A      1.263600   130A      1.279697   131A      1.285386  
     132A      1.292355   133A      1.306090   134A      1.311360  
     135A      1.320611   136A      1.329613   137A      1.345091  
     138A      1.355393   139A      1.364742   140A      1.375540  
     141A      1.380072   142A      1.410850   143A      1.420258  
     144A      1.437694   145A      1.442033   146A      1.458578  
     147A      1.469476   148A      1.482272   149A      1.496762  
     150A      1.511191   151A      1.523080   152A      1.527172  
     153A      1.546972   154A      1.561949   155A      1.567678  
     156A      1.580611   157A      1.590412   158A      1.599388  
     159A      1.605981   160A      1.634894   161A      1.643466  
     162A      1.654905   163A      1.683544   164A      1.710366  
     165A      1.729437   166A      1.734371   167A      1.768579  
     168A      1.778074   169A      1.789825   170A      1.814345  
     171A      1.841309   172A      1.861490   173A      1.888246  
     174A      1.896152   175A      1.929327   176A      2.003891  
     177A      2.036453   178A      2.046566   179A      2.071538  
     180A      2.080298   181A      2.136096   182A      2.169274  
     183A      2.184656   184A      2.203990   185A      2.337166  
     186A      2.347227   187A      2.365780   188A      2.389714  
     189A      2.421509   190A      2.458019   191A      2.495029  
     192A      2.533729   193A      2.556333   194A      2.593124  
     195A      2.599057   196A      2.603495   197A      2.646198  
     198A      2.713690   199A      2.779003   200A      2.807187  
     201A      2.859290   202A      2.880264   203A      2.882950  
     204A      2.901493   205A      2.939360   206A      3.000709  
     207A      3.008683   208A      3.030987   209A      3.093435  
     210A      3.104132   211A      3.124394   212A      3.142363  
     213A      3.206627   214A      3.228162   215A      3.249279  
     216A      3.279391   217A      3.285128   218A      3.299297  
     219A      3.353942   220A      3.370034   221A      3.399921  
     222A      3.428421   223A      3.442476   224A      3.449606  
     225A      3.456833   226A      3.474003   227A      3.509944  
     228A      3.529949   229A      3.535859   230A      3.555159  
     231A      3.568674   232A      3.573289   233A      3.579355  
     234A      3.596261   235A      3.600316   236A      3.611977  
     237A      3.619839   238A      3.634450   239A      3.648523  
     240A      3.652150   241A      3.707117   242A      3.722845  
     243A      3.727294   244A      3.732703   245A      3.739822  
     246A      3.757076   247A      3.764396   248A      3.772778  
     249A      3.791706   250A      3.801619   251A      3.824096  
     252A      3.842526   253A      3.867754   254A      3.898650  
     255A      3.911134   256A      3.932002   257A      3.947552  
     258A      3.953265   259A      3.982845   260A      3.990056  
     261A      4.042795   262A      4.056601   263A      4.062053  
     264A      4.086971   265A      4.111833   266A      4.131525  
     267A      4.134142   268A      4.150954   269A      4.185732  
     270A      4.189182   271A      4.218026   272A      4.233927  
     273A      4.244828   274A      4.253910   275A      4.321309  
     276A      4.331968   277A      4.339233   278A      4.351918  
     279A      4.366339   280A      4.373111   281A      4.390089  
     282A      4.411474   283A      4.440061   284A      4.458527  
     285A      4.469415   286A      4.485438   287A      4.492574  
     288A      4.509246   289A      4.524063   290A      4.528977  
     291A      4.546434   292A      4.554986   293A      4.576504  
     294A      4.599006   295A      4.612465   296A      4.618103  
     297A      4.626619   298A      4.635315   299A      4.652428  
     300A      4.672777   301A      4.695041   302A      4.706731  
     303A      4.726272   304A      4.746982   305A      4.761049  
     306A      4.765464   307A      4.773434   308A      4.806576  
     309A      4.820630   310A      4.824219   311A      4.831635  
     312A      4.848039   313A      4.857264   314A      4.866478  
     315A      4.898675   316A      4.910174   317A      4.925280  
     318A      4.937231   319A      4.941947   320A      4.949917  
     321A      4.958299   322A      4.973235   323A      4.994421  
     324A      5.005400   325A      5.043065   326A      5.044412  
     327A      5.061837   328A      5.129455   329A      5.132912  
     330A      5.147638   331A      5.151128   332A      5.162791  
     333A      5.176331   334A      5.204438   335A      5.245776  
     336A      5.284567   337A      5.378664   338A      5.383621  
     339A      5.408291   340A      5.442687   341A      5.482262  
     342A      5.552592   343A      5.569126   344A      5.590028  
     345A      5.601937   346A      5.608979   347A      5.618296  
     348A      5.627457   349A      5.631797   350A      5.636426  
     351A      5.662524   352A      5.729304   353A      5.743281  
     354A      5.832816   355A      5.915250   356A      5.960605  
     357A      6.026509   358A      6.048016   359A      6.052665  
     360A      6.192006   361A      6.196413   362A      6.261065  
     363A      6.331412   364A      6.336599   365A      6.346554  
     366A      6.349754   367A      6.358185   368A      6.378070  
     369A      6.418409   370A      6.431054   371A      6.438243  
     372A      6.452256   373A      6.488907   374A      6.514434  
     375A      6.621591   376A      6.725599   377A      6.775029  
     378A      6.903303   379A      6.994270   380A      7.308691  
     381A      7.484892   382A      7.560840   383A      7.596751  
     384A      7.626781   385A      7.681510   386A      7.697929  
     387A      7.805153   388A      7.835371   389A      7.865181  
     390A      7.916051   391A      8.045822   392A      8.203958  
     393A      8.500913   394A      9.559517   395A      9.875612  
     396A      9.918631   397A     10.101845   398A     15.007621  
     399A     18.446092   400A     44.280470   401A     45.344532  
     402A     45.834730  

    Final Occupation by Irrep:
              A 
    DOCC [    11 ]

  @DF-RHF Final Energy:  -115.90764981270945

   => Energetics <=

    Nuclear Repulsion Energy =             58.6041080145992623
    One-Electron Energy =                -270.9760202270485934
    Two-Electron Energy =                  96.4642623997398800
    Total Energy =                       -115.9076498127094510

Computation Completed


Properties will be evaluated at   0.000000,   0.000000,   0.000000 [a0]

Properties computed using the SCF density matrix

  Nuclear Dipole Moment: [e a0]
     X:    78.8924      Y:     7.2668      Z:     0.3723

  Electronic Dipole Moment: [e a0]
     X:   -78.8220      Y:    -7.5770      Z:    -0.3108

  Dipole Moment: [e a0]
     X:     0.0704      Y:    -0.3102      Z:     0.0615     Total:     0.3240

  Dipole Moment: [D]
     X:     0.1789      Y:    -0.7886      Z:     0.1562     Total:     0.8236


*** tstop() called on r282 at Sat Sep 11 02:57:37 2021
Module time:
	user time   =      13.94 seconds =       0.23 minutes
	system time =       0.27 seconds =       0.00 minutes
	total time  =         14 seconds =       0.23 minutes
Total time:
	user time   =      41.33 seconds =       0.69 minutes
	system time =       1.01 seconds =       0.02 minutes
	total time  =         43 seconds =       0.72 minutes

  //>>>>>>>>>>>>>>>>>>>>>>>>>>>>>>>>>>>//
  //            Monomer B HF           //
  //<<<<<<<<<<<<<<<<<<<<<<<<<<<<<<<<<<<//


*** tstart() called on r282
*** at Sat Sep 11 02:57:37 2021

   => Loading Basis Set <=

    Name: JUN-CC-PVTZ
    Role: ORBITAL
    Keyword: BASIS
    atoms 1-3, 8-10  entry C          line   217 file /home/r08543048/miniconda3/share/psi4/basis/jun-cc-pvtz.gbs 
    atoms 4-7, 11-18 entry H          line    36 file /home/r08543048/miniconda3/share/psi4/basis/jun-cc-pvtz.gbs 


         ---------------------------------------------------------
                                   SCF
               by Justin Turney, Rob Parrish, Andy Simmonett
                          and Daniel G. A. Smith
                              RHF Reference
                        1 Threads,  20980 MiB Core
         ---------------------------------------------------------

  ==> Geometry <==

    Molecular point group: c1
    Full point group: C1

    Geometry (in Angstrom), charge = 0, multiplicity = 1:

       Center              X                  Y                   Z               Mass       
    ------------   -----------------  -----------------  -----------------  -----------------
      Gh(C)           2.164090706677    -1.018092875737     0.240825102673    12.000000000000
      Gh(C)           1.852606706677     0.379756124263    -0.031593897327    12.000000000000
      Gh(C)           1.591038706677     1.545031124263    -0.257146897327    12.000000000000
      Gh(H)           2.118792706677    -1.607148875737    -0.674036897327     1.007825032230
      Gh(H)           3.163998706677    -1.113652875737     0.661513102673     1.007825032230
      Gh(H)           1.451561706677    -1.438180875737     0.949782102673     1.007825032230
      Gh(H)           1.367313706677     2.564241124263    -0.452760897327     1.007825032230
         C           -1.320988293323    -1.288386875737    -0.587122897327    12.000000000000
         C           -1.639124293323    -0.344965875737     0.566276102673    12.000000000000
         C           -2.172720293323     0.991766124263     0.067567102673    12.000000000000
         H           -2.213927293323    -1.482815875737    -1.183294897327     1.007825032230
         H           -0.571235293323    -0.845760875737    -1.244704897327     1.007825032230
         H           -0.940553293323    -2.247552875737    -0.234604897327     1.007825032230
         H           -0.738644293323    -0.172453875737     1.159190102673     1.007825032230
         H           -2.370716293323    -0.809563875737     1.230906102673     1.007825032230
         H           -2.395010293323     1.669806124263     0.891295102673     1.007825032230
         H           -1.438559293323     1.474447124263    -0.578734897327     1.007825032230
         H           -3.087612293323     0.852043124263    -0.510315897327     1.007825032230

  Running in c1 symmetry.

  Rotational constants: A =      0.13862  B =      0.05524  C =      0.04333 [cm^-1]
  Rotational constants: A =   4155.76192  B =   1656.13723  C =   1299.00706 [MHz]
  Nuclear repulsion =   82.868019518950064

  Charge       = 0
  Multiplicity = 1
  Electrons    = 26
  Nalpha       = 13
  Nbeta        = 13

  ==> Algorithm <==

  SCF Algorithm Type is DF.
  DIIS enabled.
  MOM disabled.
  Fractional occupation disabled.
  Guess Type is SAD.
  Energy threshold   = 1.00e-08
  Density threshold  = 1.00e-08
  Integral threshold = 0.00e+00

  ==> Primary Basis <==

  Basis Set: JUN-CC-PVTZ
    Blend: JUN-CC-PVTZ
    Number of shells: 150
    Number of basis function: 402
    Number of Cartesian functions: 450
    Spherical Harmonics?: true
    Max angular momentum: 3

   => Loading Basis Set <=

    Name: (JUN-CC-PVTZ AUX)
    Role: JKFIT
    Keyword: DF_BASIS_SCF
    atoms 1-3, 8-10  entry C          line   152 file /home/r08543048/miniconda3/share/psi4/basis/jun-cc-pvtz-jkfit.gbs 
    atoms 4-7, 11-18 entry H          line    70 file /home/r08543048/miniconda3/share/psi4/basis/jun-cc-pvtz-jkfit.gbs 

  ==> Pre-Iterations <==

   -------------------------------------------------------
    Irrep   Nso     Nmo     Nalpha   Nbeta   Ndocc  Nsocc
   -------------------------------------------------------
     A        402     402       0       0       0       0
   -------------------------------------------------------
    Total     402     402      13      13      13       0
   -------------------------------------------------------

  ==> Integral Setup <==

  ==> DiskDFJK: Density-Fitted J/K Matrices <==

    J tasked:                  Yes
    K tasked:                  Yes
    wK tasked:                  No
    OpenMP threads:              1
    Integrals threads:           1
    Memory [MiB]:            15735
    Algorithm:                Core
    Integral Cache:           LOAD
    Schwarz Cutoff:          1E-12
    Fitting Condition:       1E-10

   => Auxiliary Basis Set <=

  Basis Set: (JUN-CC-PVTZ AUX)
    Blend: JUN-CC-PVTZ-JKFIT
    Number of shells: 294
    Number of basis function: 930
    Number of Cartesian functions: 1116
    Spherical Harmonics?: true
    Max angular momentum: 4

  Minimum eigenvalue in the overlap matrix is 2.1977995606E-05.
  Using Symmetric Orthogonalization.

  SCF Guess: Superposition of Atomic Densities via on-the-fly atomic UHF.

  ==> Iterations <==

                           Total Energy        Delta E     RMS |[F,P]|

   @DF-RHF iter SAD:  -117.72924664568798   -1.17729e+02   0.00000e+00 
   @DF-RHF iter   1:  -118.14613100627112   -4.16884e-01   1.28301e-03 DIIS
   @DF-RHF iter   2:  -118.27561599241356   -1.29485e-01   6.07218e-04 DIIS
   @DF-RHF iter   3:  -118.30609864246341   -3.04827e-02   1.01961e-04 DIIS
   @DF-RHF iter   4:  -118.30795061057572   -1.85197e-03   2.00559e-05 DIIS
   @DF-RHF iter   5:  -118.30800876922100   -5.81586e-05   5.64990e-06 DIIS
   @DF-RHF iter   6:  -118.30801338338124   -4.61416e-06   1.01734e-06 DIIS
   @DF-RHF iter   7:  -118.30801355561420   -1.72233e-07   1.91627e-07 DIIS
   @DF-RHF iter   8:  -118.30801356315986   -7.54567e-09   3.35957e-08 DIIS
   @DF-RHF iter   9:  -118.30801356339751   -2.37648e-10   6.63461e-09 DIIS
  Energy and wave function converged.


  ==> Post-Iterations <==

    Orbital Energies [Eh]
    ---------------------

    Doubly Occupied:                                                      

       1A    -11.215443     2A    -11.207903     3A    -11.207662  
       4A     -1.054432     5A     -0.924431     6A     -0.799531  
       7A     -0.625601     8A     -0.598483     9A     -0.548710  
      10A     -0.530330    11A     -0.475274    12A     -0.474527  
      13A     -0.468624  

    Virtual:                                                              

      14A      0.037038    15A      0.046826    16A      0.056285  
      17A      0.057751    18A      0.069239    19A      0.078154  
      20A      0.084483    21A      0.090701    22A      0.091643  
      23A      0.107749    24A      0.112062    25A      0.114508  
      26A      0.118191    27A      0.129941    28A      0.133438  
      29A      0.141239    30A      0.150175    31A      0.158927  
      32A      0.159975    33A      0.162975    34A      0.178502  
      35A      0.194513    36A      0.196924    37A      0.202024  
      38A      0.212910    39A      0.244162    40A      0.257521  
      41A      0.262116    42A      0.272953    43A      0.282650  
      44A      0.293743    45A      0.310700    46A      0.311470  
      47A      0.315627    48A      0.321940    49A      0.329049  
      50A      0.331482    51A      0.336058    52A      0.346843  
      53A      0.352092    54A      0.358964    55A      0.361942  
      56A      0.368889    57A      0.380787    58A      0.381967  
      59A      0.386397    60A      0.400396    61A      0.402531  
      62A      0.410577    63A      0.422919    64A      0.424808  
      65A      0.429224    66A      0.439142    67A      0.441316  
      68A      0.458081    69A      0.476951    70A      0.478224  
      71A      0.494300    72A      0.508264    73A      0.513541  
      74A      0.531812    75A      0.533981    76A      0.540746  
      77A      0.543736    78A      0.558147    79A      0.564160  
      80A      0.586524    81A      0.590225    82A      0.593799  
      83A      0.603098    84A      0.610020    85A      0.650590  
      86A      0.652274    87A      0.666445    88A      0.674620  
      89A      0.677924    90A      0.681095    91A      0.696312  
      92A      0.712566    93A      0.728042    94A      0.748985  
      95A      0.767737    96A      0.776754    97A      0.778455  
      98A      0.783780    99A      0.797504   100A      0.804246  
     101A      0.814318   102A      0.819818   103A      0.823574  
     104A      0.848424   105A      0.874176   106A      0.891929  
     107A      0.895124   108A      0.913245   109A      0.926187  
     110A      0.943184   111A      0.979761   112A      0.987364  
     113A      1.005759   114A      1.020245   115A      1.050464  
     116A      1.095208   117A      1.108332   118A      1.129126  
     119A      1.130283   120A      1.152131   121A      1.159988  
     122A      1.168012   123A      1.177111   124A      1.203195  
     125A      1.220948   126A      1.242487   127A      1.247321  
     128A      1.261328   129A      1.269384   130A      1.281580  
     131A      1.297645   132A      1.307682   133A      1.316944  
     134A      1.323471   135A      1.329852   136A      1.344593  
     137A      1.356405   138A      1.359299   139A      1.379518  
     140A      1.395243   141A      1.398419   142A      1.408759  
     143A      1.415221   144A      1.429682   145A      1.432958  
     146A      1.437826   147A      1.452635   148A      1.467692  
     149A      1.484840   150A      1.490942   151A      1.510410  
     152A      1.521873   153A      1.531011   154A      1.549332  
     155A      1.551132   156A      1.566178   157A      1.578483  
     158A      1.584074   159A      1.616278   160A      1.622631  
     161A      1.634183   162A      1.643170   163A      1.648462  
     164A      1.664674   165A      1.676155   166A      1.682622  
     167A      1.693229   168A      1.721688   169A      1.726720  
     170A      1.739446   171A      1.756432   172A      1.769029  
     173A      1.798174   174A      1.811896   175A      1.820930  
     176A      1.843659   177A      1.852303   178A      1.860566  
     179A      1.873532   180A      1.952852   181A      1.957198  
     182A      1.967661   183A      1.992277   184A      2.066811  
     185A      2.105905   186A      2.109085   187A      2.272160  
     188A      2.277594   189A      2.306803   190A      2.331457  
     191A      2.496043   192A      2.506813   193A      2.570396  
     194A      2.744066   195A      2.753978   196A      2.786176  
     197A      2.813416   198A      2.839272   199A      2.870719  
     200A      2.897611   201A      2.906670   202A      2.932504  
     203A      2.935187   204A      2.963113   205A      2.985799  
     206A      3.033041   207A      3.085516   208A      3.096666  
     209A      3.128342   210A      3.152280   211A      3.156532  
     212A      3.175171   213A      3.203483   214A      3.243982  
     215A      3.246249   216A      3.270605   217A      3.292646  
     218A      3.314179   219A      3.323655   220A      3.332766  
     221A      3.355690   222A      3.361558   223A      3.372158  
     224A      3.384170   225A      3.394343   226A      3.425621  
     227A      3.455530   228A      3.473063   229A      3.486611  
     230A      3.490227   231A      3.501533   232A      3.516206  
     233A      3.535443   234A      3.545290   235A      3.580333  
     236A      3.588467   237A      3.594159   238A      3.613140  
     239A      3.623531   240A      3.649088   241A      3.668311  
     242A      3.673658   243A      3.683470   244A      3.713329  
     245A      3.719493   246A      3.728998   247A      3.750076  
     248A      3.761680   249A      3.793632   250A      3.805222  
     251A      3.808113   252A      3.815192   253A      3.840321  
     254A      3.849138   255A      3.875020   256A      3.887956  
     257A      3.916788   258A      3.930200   259A      3.939212  
     260A      3.950271   261A      3.955777   262A      3.969465  
     263A      3.987267   264A      4.010484   265A      4.014035  
     266A      4.046354   267A      4.071920   268A      4.102204  
     269A      4.116492   270A      4.127455   271A      4.152035  
     272A      4.171929   273A      4.199025   274A      4.206466  
     275A      4.217452   276A      4.230004   277A      4.243649  
     278A      4.259816   279A      4.260451   280A      4.268330  
     281A      4.304640   282A      4.313513   283A      4.320526  
     284A      4.336411   285A      4.347120   286A      4.360654  
     287A      4.369873   288A      4.380617   289A      4.421491  
     290A      4.429216   291A      4.434911   292A      4.458901  
     293A      4.482832   294A      4.496397   295A      4.498730  
     296A      4.515374   297A      4.533618   298A      4.545245  
     299A      4.551067   300A      4.559413   301A      4.571313  
     302A      4.580565   303A      4.605939   304A      4.630982  
     305A      4.669051   306A      4.675474   307A      4.683566  
     308A      4.694292   309A      4.703141   310A      4.714786  
     311A      4.732322   312A      4.744349   313A      4.757143  
     314A      4.794187   315A      4.814901   316A      4.822643  
     317A      4.838487   318A      4.850821   319A      4.871144  
     320A      4.882238   321A      4.893400   322A      4.913374  
     323A      4.929829   324A      4.933478   325A      4.945161  
     326A      4.973125   327A      4.996171   328A      5.000376  
     329A      5.033996   330A      5.056976   331A      5.096362  
     332A      5.123294   333A      5.139243   334A      5.146366  
     335A      5.149228   336A      5.172714   337A      5.181878  
     338A      5.201138   339A      5.264946   340A      5.276254  
     341A      5.283192   342A      5.293694   343A      5.339646  
     344A      5.396257   345A      5.412310   346A      5.463281  
     347A      5.470402   348A      5.518639   349A      5.587784  
     350A      5.609675   351A      5.722714   352A      5.737466  
     353A      5.748472   354A      5.758831   355A      5.764092  
     356A      5.781249   357A      5.792282   358A      5.804184  
     359A      5.823554   360A      5.860302   361A      5.894483  
     362A      5.924242   363A      5.930411   364A      5.958607  
     365A      5.978160   366A      5.985776   367A      6.101040  
     368A      6.126225   369A      6.155759   370A      6.167844  
     371A      6.338706   372A      6.352216   373A      6.374682  
     374A      6.395541   375A      6.424601   376A      6.474149  
     377A      6.513835   378A      6.523543   379A      6.552254  
     380A      6.584906   381A      6.678212   382A      6.950742  
     383A      6.987771   384A      7.091392   385A      7.305850  
     386A      7.323721   387A      7.375292   388A      7.536656  
     389A      7.572384   390A      7.864337   391A      7.875912  
     392A      8.018157   393A      8.237339   394A      9.811555  
     395A     10.939260   396A     11.647486   397A     13.822988  
     398A     14.452748   399A     14.695966   400A     36.408414  
     401A     46.703421   402A     53.298917  

    Final Occupation by Irrep:
              A 
    DOCC [    13 ]

  @DF-RHF Final Energy:  -118.30801356339751

   => Energetics <=

    Nuclear Repulsion Energy =             82.8680195189500637
    One-Electron Energy =                -322.0901631410330310
    Two-Electron Energy =                 120.9141300586854584
    Total Energy =                       -118.3080135633975090

Computation Completed


Properties will be evaluated at   0.000000,   0.000000,   0.000000 [a0]

Properties computed using the SCF density matrix

  Nuclear Dipole Moment: [e a0]
     X:   -84.1935      Y:   -10.2260      Z:    -0.3589

  Electronic Dipole Moment: [e a0]
     X:    84.1977      Y:    10.2188      Z:     0.3907

  Dipole Moment: [e a0]
     X:     0.0043      Y:    -0.0072      Z:     0.0317     Total:     0.0328

  Dipole Moment: [D]
     X:     0.0109      Y:    -0.0183      Z:     0.0806     Total:     0.0834


*** tstop() called on r282 at Sat Sep 11 02:57:50 2021
Module time:
	user time   =      12.80 seconds =       0.21 minutes
	system time =       0.34 seconds =       0.01 minutes
	total time  =         13 seconds =       0.22 minutes
Total time:
	user time   =      54.13 seconds =       0.90 minutes
	system time =       1.35 seconds =       0.02 minutes
	total time  =         56 seconds =       0.93 minutes
  Constructing Basis Sets for SAPT...

   => Loading Basis Set <=

    Name: (JUN-CC-PVTZ AUX)
    Role: RIFIT
    Keyword: DF_BASIS_SAPT
    atoms 1-3, 8-10  entry C          line   132 file /home/r08543048/miniconda3/share/psi4/basis/jun-cc-pvtz-ri.gbs 
    atoms 4-7, 11-18 entry H          line    30 file /home/r08543048/miniconda3/share/psi4/basis/jun-cc-pvtz-ri.gbs 


  //>>>>>>>>>>>>>>>>>>>>>>>>>>>>>>>>>>>//
  //               SAPT0               //
  //<<<<<<<<<<<<<<<<<<<<<<<<<<<<<<<<<<<//


*** tstart() called on r282
*** at Sat Sep 11 02:57:51 2021

        SAPT0  
    Ed Hohenstein
     6 June 2009

      Orbital Information
  --------------------------
    NSO        =       402
    NMO        =       402
    NRI        =       942
    NOCC A     =        11
    NOCC B     =        13
    FOCC A     =         0
    FOCC B     =         0
    NVIR A     =       391
    NVIR B     =       389

    Elst10,r            =    -0.002343740472 [Eh]
    Exch10              =     0.005908179146 [Eh]
    Exch10 (S^2)        =     0.005894057805 [Eh]

    Iter     Energy [mEh]          dE [mEh]         Residual      Time [s]
       1      -0.72050984       0.720509842       3.559101395             0
       2      -0.91332019       0.192810352       0.736014722             1
       3      -0.91098166      -0.002338536       0.299269535             1
       4      -0.90864634      -0.002335319       0.099035269             2
       5      -0.90857529      -0.000071045       0.030027400             2
       6      -0.90886891       0.000293618       0.008567795             3
       7      -0.90884531      -0.000023600       0.005670607             3
       8      -0.90882344      -0.000021868       0.002069665             4
       9      -0.90883322       0.000009777       0.000564693             4
      10      -0.90883400       0.000000782       0.000137517             5
      11      -0.90883330      -0.000000698       0.000027585             5
      12      -0.90883339       0.000000085       0.000005019             6
      13      -0.90883339       0.000000001       0.000001079             6
      14      -0.90883339      -0.000000003       0.000000232             7

    CHF Iterations converged


    Iter     Energy [mEh]          dE [mEh]         Residual      Time [s]
       1      -0.53665494       0.536654940       3.612062304             0
       2      -0.59756331       0.060908371       1.209060983             1
       3      -0.61996307       0.022399756       0.220735865             1
       4      -0.61986350      -0.000099563       0.062311996             2
       5      -0.61914569      -0.000717816       0.011069228             2
       6      -0.61921091       0.000065221       0.003204943             3
       7      -0.61922475       0.000013840       0.000702123             3
       8      -0.61922233      -0.000002420       0.000181739             4
       9      -0.61922179      -0.000000543       0.000040085             4
      10      -0.61922193       0.000000143       0.000010569             5
      11      -0.61922195       0.000000025       0.000002537             5
      12      -0.61922195      -0.000000007       0.000000546             6

    CHF Iterations converged

    Ind20,r (A<-B)      =    -0.000908833387 [Eh]
    Ind20,r (B<-A)      =    -0.000619221947 [Eh]
    Ind20,r             =    -0.001528055334 [Eh]
    Exch-Ind20,r (A<-B) =     0.000876275468 [Eh]
    Exch-Ind20,r (B<-A) =     0.000432071717 [Eh]
    Exch-Ind20,r        =     0.001308347184 [Eh]
    Disp20              =    -0.007210936090 [Eh]
    Disp20 (SS)         =    -0.003605468045 [Eh]
    Disp20 (OS)         =    -0.003605468045 [Eh]
    Exch-Disp20         =     0.000724760874 [Eh]
    Exch-Disp20 (SS)    =     0.000467956671 [Eh]
    Exch-Disp20 (OS)    =     0.000256804204 [Eh]

    SAPT Results 
  --------------------------------------------------------------------------------------------------------
    Electrostatics                 -2.34374047 [mEh]      -1.47071935 [kcal/mol]      -6.15348976 [kJ/mol]
      Elst10,r                     -2.34374047 [mEh]      -1.47071935 [kcal/mol]      -6.15348976 [kJ/mol]

    Exchange                        5.90817915 [mEh]       3.70743839 [kcal/mol]      15.51192221 [kJ/mol]
      Exch10                        5.90817915 [mEh]       3.70743839 [kcal/mol]      15.51192221 [kJ/mol]
      Exch10(S^2)                   5.89405780 [mEh]       3.69857711 [kcal/mol]      15.47484663 [kJ/mol]

    Induction                      -0.65368249 [mEh]      -0.41019196 [kcal/mol]      -1.71624315 [kJ/mol]
      Ind20,r                      -1.52805533 [mEh]      -0.95886920 [kcal/mol]      -4.01190873 [kJ/mol]
      Exch-Ind20,r                  1.30834718 [mEh]       0.82100025 [kcal/mol]       3.43506506 [kJ/mol]
      delta HF,r (2)               -0.43397434 [mEh]      -0.27232301 [kcal/mol]      -1.13939948 [kJ/mol]

    Dispersion                     -6.48617522 [mEh]      -4.07013640 [kcal/mol]     -17.02945068 [kJ/mol]
      Disp20                       -7.21093609 [mEh]      -4.52493071 [kcal/mol]     -18.93231009 [kJ/mol]
      Exch-Disp20                   0.72476087 [mEh]       0.45479431 [kcal/mol]       1.90285941 [kJ/mol]
      Disp20 (SS)                  -3.60546804 [mEh]      -2.26246536 [kcal/mol]      -9.46615505 [kJ/mol]
      Disp20 (OS)                  -3.60546804 [mEh]      -2.26246536 [kcal/mol]      -9.46615505 [kJ/mol]
      Exch-Disp20 (SS)              0.46795667 [mEh]       0.29364724 [kcal/mol]       1.22862007 [kJ/mol]
      Exch-Disp20 (OS)              0.25680420 [mEh]       0.16114707 [kcal/mol]       0.67423934 [kJ/mol]

  Total HF                          2.91075618 [mEh]       1.82652708 [kcal/mol]       7.64218930 [kJ/mol]
  Total SAPT0                      -3.57541903 [mEh]      -2.24360932 [kcal/mol]      -9.38726138 [kJ/mol]

  Special recipe for scaled SAPT0 (see Manual):
    Electrostatics sSAPT0          -2.34374047 [mEh]      -1.47071935 [kcal/mol]      -6.15348976 [kJ/mol]
    Exchange sSAPT0                 5.90817915 [mEh]       3.70743839 [kcal/mol]      15.51192221 [kJ/mol]
    Induction sSAPT0               -0.64425609 [mEh]      -0.40427680 [kcal/mol]      -1.69149414 [kJ/mol]
    Dispersion sSAPT0              -6.48095345 [mEh]      -4.06685969 [kcal/mol]     -17.01574093 [kJ/mol]
  Total sSAPT0                     -3.56077086 [mEh]      -2.23441745 [kcal/mol]      -9.34880262 [kJ/mol]
  --------------------------------------------------------------------------------------------------------

*** tstop() called on r282 at Sat Sep 11 02:58:44 2021
Module time:
	user time   =      44.43 seconds =       0.74 minutes
	system time =       8.36 seconds =       0.14 minutes
	total time  =         53 seconds =       0.88 minutes
Total time:
	user time   =      98.68 seconds =       1.64 minutes
	system time =       9.71 seconds =       0.16 minutes
	total time  =        110 seconds =       1.83 minutes

    Psi4 stopped on: Saturday, 11 September 2021 02:58AM
    Psi4 wall time for execution: 0:01:49.99

*** Psi4 exiting successfully. Buy a developer a beer!
