
    -----------------------------------------------------------------------
          Psi4: An Open-Source Ab Initio Electronic Structure Package
                               Psi4 1.3.2 release

                         Git: Rev {HEAD} ecbda83 


    R. M. Parrish, L. A. Burns, D. G. A. Smith, A. C. Simmonett,
    A. E. DePrince III, E. G. Hohenstein, U. Bozkaya, A. Yu. Sokolov,
    R. Di Remigio, R. M. Richard, J. F. Gonthier, A. M. James,
    H. R. McAlexander, A. Kumar, M. Saitow, X. Wang, B. P. Pritchard,
    P. Verma, H. F. Schaefer III, K. Patkowski, R. A. King, E. F. Valeev,
    F. A. Evangelista, J. M. Turney, T. D. Crawford, and C. D. Sherrill,
    J. Chem. Theory Comput. 13(7) pp 3185--3197 (2017).
    (doi: 10.1021/acs.jctc.7b00174)


                         Additional Contributions by
    P. Kraus, H. Kruse, M. H. Lechner, M. C. Schieber, R. A. Shaw,
    A. Alenaizan, R. Galvelis, Z. L. Glick, S. Lehtola, and J. P. Misiewicz

    -----------------------------------------------------------------------


    Psi4 started on: Thursday, 09 September 2021 09:39AM

    Process ID: 53710
    Host:       r282
    PSIDATADIR: /home/r08543048/miniconda3/share/psi4
    Memory:     500.0 MiB
    Threads:    1
    
  ==> Input File <==

--------------------------------------------------------------------------
# Any line starting with the # character is a comment line
#! Sample  computation

memory 22 gb

molecule Dimer {
 
0 1                               
 C    2.66526000    0.61925200   -0.83041400
 C    1.56765400   -0.13427800   -1.57829400
 H    3.59898000    0.02404800   -0.84123600
 H    2.87423600    1.52544300   -1.42795800
 O    1.16833800   -1.37469900   -0.95143300
 H    0.64690900    0.46898900   -1.60462500
 H    1.87771700   -0.33140500   -2.62016100
 H    1.96002400   -1.92020800   -0.83800600
 C    2.30959300    1.01603400    0.61556500
 H    2.89241100    1.91318100    0.88543000
 H    1.24484500    1.30512600    0.66275700
 C    2.59365600   -0.07794700    1.65504300
 H    3.65635900   -0.37399400    1.62305200
 H    2.37613800    0.28401600    2.67196200
 H    1.97653900   -0.97178900    1.48744000












 
 --
0 1
 C    -2.61475600   -0.54435800   -0.56371400
 C    -2.07040000   -1.32433100    0.63757000
 H    -1.84924500   -0.53568800   -1.36282200
 H    -3.47426700   -1.11576700   -0.96142700
 O    -0.79861600   -0.85859400    1.10970700
 H    -2.76237200   -1.22458800    1.49082300
 H    -2.01046700   -2.39938000    0.38294500
 H    -0.13729600   -1.09532500    0.43400100
 C    -3.07644800    0.88834500   -0.25152400
 H    -3.62426600    1.27911200   -1.12729800
 H    -3.80649300    0.85039400    0.57784600
 C    -1.94614200    1.86405200    0.10544500
 H    -1.21049500    1.92009800   -0.71538000
 H    -2.34345200    2.87946700    0.26651400
 H    -1.41408500    1.54399600    1.01189000


















 
 
 
units angstrom

no_reorient
symmetry c1
}

set globals{
  basis jun-cc-pVTZ
  scf_type DF 
  freeze_core True
}

energy('sapt0')


--------------------------------------------------------------------------

  Memory set to  20.489 GiB by Python driver.

  //>>>>>>>>>>>>>>>>>>>>>>>>>>>>>>>>>>>//
  //              Dimer HF             //
  //<<<<<<<<<<<<<<<<<<<<<<<<<<<<<<<<<<<//


*** tstart() called on r282
*** at Thu Sep  9 09:39:43 2021

   => Loading Basis Set <=

    Name: JUN-CC-PVTZ
    Role: ORBITAL
    Keyword: BASIS
    atoms 1-2, 9, 12, 16-17, 24, 27                          entry C          line   217 file /home/r08543048/miniconda3/share/psi4/basis/jun-cc-pvtz.gbs 
    atoms 3-4, 6-8, 10-11, 13-15, 18-19, 21-23, 25-26, 28-30 entry H          line    36 file /home/r08543048/miniconda3/share/psi4/basis/jun-cc-pvtz.gbs 
    atoms 5, 20                                              entry O          line   305 file /home/r08543048/miniconda3/share/psi4/basis/jun-cc-pvtz.gbs 


         ---------------------------------------------------------
                                   SCF
               by Justin Turney, Rob Parrish, Andy Simmonett
                          and Daniel G. A. Smith
                              RHF Reference
                        1 Threads,  20980 MiB Core
         ---------------------------------------------------------

  ==> Geometry <==

    Molecular point group: c1
    Full point group: C1

    Geometry (in Angstrom), charge = 0, multiplicity = 1:

       Center              X                  Y                   Z               Mass       
    ------------   -----------------  -----------------  -----------------  -----------------
         C            2.668431951362     0.646136739048    -0.830437063930    12.000000000000
         C            1.570825951362    -0.107393260952    -1.578317063930    12.000000000000
         H            3.602151951362     0.050932739048    -0.841259063930     1.007825032230
         H            2.877407951362     1.552327739048    -1.427981063930     1.007825032230
         O            1.171509951362    -1.347814260952    -0.951456063930    15.994914619570
         H            0.650080951362     0.495873739048    -1.604648063930     1.007825032230
         H            1.880888951362    -0.304520260952    -2.620184063930     1.007825032230
         H            1.963195951362    -1.893323260952    -0.838029063930     1.007825032230
         C            2.312764951362     1.042918739048     0.615541936070    12.000000000000
         H            2.895582951362     1.940065739048     0.885406936070     1.007825032230
         H            1.248016951362     1.332010739048     0.662733936070     1.007825032230
         C            2.596827951362    -0.051062260952     1.655019936070    12.000000000000
         H            3.659530951362    -0.347109260952     1.623028936070     1.007825032230
         H            2.379309951362     0.310900739048     2.671938936070     1.007825032230
         H            1.979710951362    -0.944904260952     1.487416936070     1.007825032230
         C           -2.611584048638    -0.517473260952    -0.563737063930    12.000000000000
         C           -2.067228048638    -1.297446260952     0.637546936070    12.000000000000
         H           -1.846073048638    -0.508803260952    -1.362845063930     1.007825032230
         H           -3.471095048638    -1.088882260952    -0.961450063930     1.007825032230
         O           -0.795444048638    -0.831709260952     1.109683936070    15.994914619570
         H           -2.759200048638    -1.197703260952     1.490799936070     1.007825032230
         H           -2.007295048638    -2.372495260952     0.382921936070     1.007825032230
         H           -0.134124048638    -1.068440260952     0.433977936070     1.007825032230
         C           -3.073276048638     0.915229739048    -0.251547063930    12.000000000000
         H           -3.621094048638     1.305996739048    -1.127321063930     1.007825032230
         H           -3.803321048638     0.877278739048     0.577822936070     1.007825032230
         C           -1.942970048638     1.890936739048     0.105421936070    12.000000000000
         H           -1.207323048638     1.946982739048    -0.715403063930     1.007825032230
         H           -2.340280048638     2.906351739048     0.266490936070     1.007825032230
         H           -1.410913048638     1.570880739048     1.011866936070     1.007825032230

  Running in c1 symmetry.

  Rotational constants: A =      0.05123  B =      0.01949  C =      0.01904 [cm^-1]
  Rotational constants: A =   1535.82516  B =    584.36220  C =    570.71816 [MHz]
  Nuclear repulsion =  588.246217579647691

  Charge       = 0
  Multiplicity = 1
  Electrons    = 84
  Nalpha       = 42
  Nbeta        = 42

  ==> Algorithm <==

  SCF Algorithm Type is DF.
  DIIS enabled.
  MOM disabled.
  Fractional occupation disabled.
  Guess Type is SAD.
  Energy threshold   = 1.00e-08
  Density threshold  = 1.00e-08
  Integral threshold = 0.00e+00

  ==> Primary Basis <==

  Basis Set: JUN-CC-PVTZ
    Blend: JUN-CC-PVTZ
    Number of shells: 250
    Number of basis function: 670
    Number of Cartesian functions: 750
    Spherical Harmonics?: true
    Max angular momentum: 3

   => Loading Basis Set <=

    Name: (JUN-CC-PVTZ AUX)
    Role: JKFIT
    Keyword: DF_BASIS_SCF
    atoms 1-2, 9, 12, 16-17, 24, 27                          entry C          line   152 file /home/r08543048/miniconda3/share/psi4/basis/jun-cc-pvtz-jkfit.gbs 
    atoms 3-4, 6-8, 10-11, 13-15, 18-19, 21-23, 25-26, 28-30 entry H          line    70 file /home/r08543048/miniconda3/share/psi4/basis/jun-cc-pvtz-jkfit.gbs 
    atoms 5, 20                                              entry O          line   272 file /home/r08543048/miniconda3/share/psi4/basis/jun-cc-pvtz-jkfit.gbs 

  ==> Pre-Iterations <==

   -------------------------------------------------------
    Irrep   Nso     Nmo     Nalpha   Nbeta   Ndocc  Nsocc
   -------------------------------------------------------
     A        670     670       0       0       0       0
   -------------------------------------------------------
    Total     670     670      42      42      42       0
   -------------------------------------------------------

  ==> Integral Setup <==

  ==> DiskDFJK: Density-Fitted J/K Matrices <==

    J tasked:                  Yes
    K tasked:                  Yes
    wK tasked:                  No
    OpenMP threads:              1
    Integrals threads:           1
    Memory [MiB]:            15735
    Algorithm:                Core
    Integral Cache:           SAVE
    Schwarz Cutoff:          1E-12
    Fitting Condition:       1E-10

   => Auxiliary Basis Set <=

  Basis Set: (JUN-CC-PVTZ AUX)
    Blend: JUN-CC-PVTZ-JKFIT
    Number of shells: 490
    Number of basis function: 1550
    Number of Cartesian functions: 1860
    Spherical Harmonics?: true
    Max angular momentum: 4

  Minimum eigenvalue in the overlap matrix is 3.3566039394E-05.
  Using Symmetric Orthogonalization.

  SCF Guess: Superposition of Atomic Densities via on-the-fly atomic UHF.

  ==> Iterations <==

                           Total Energy        Delta E     RMS |[F,P]|

   @DF-RHF iter SAD:  -463.05558648974625   -4.63056e+02   0.00000e+00 
   @DF-RHF iter   1:  -464.03364204922650   -9.78056e-01   1.29448e-03 DIIS
   @DF-RHF iter   2:  -464.37508399814294   -3.41442e-01   6.75651e-04 DIIS
   @DF-RHF iter   3:  -464.46486096734958   -8.97770e-02   1.20675e-04 DIIS
   @DF-RHF iter   4:  -464.47036318761610   -5.50222e-03   3.74151e-05 DIIS
   @DF-RHF iter   5:  -464.47074067569866   -3.77488e-04   1.03085e-05 DIIS
   @DF-RHF iter   6:  -464.47077382021672   -3.31445e-05   2.43823e-06 DIIS
   @DF-RHF iter   7:  -464.47077643238305   -2.61217e-06   5.76967e-07 DIIS
   @DF-RHF iter   8:  -464.47077658994942   -1.57566e-07   1.83069e-07 DIIS
   @DF-RHF iter   9:  -464.47077660625519   -1.63058e-08   5.23010e-08 DIIS
   @DF-RHF iter  10:  -464.47077660771004   -1.45485e-09   1.47173e-08 DIIS
   @DF-RHF iter  11:  -464.47077660779939   -8.93579e-11   5.39188e-09 DIIS
  Energy and wave function converged.


  ==> Post-Iterations <==

    Orbital Energies [Eh]
    ---------------------

    Doubly Occupied:                                                      

       1A    -20.575721     2A    -20.527265     3A    -11.288118  
       4A    -11.260706     5A    -11.232492     6A    -11.222154  
       7A    -11.214534     8A    -11.213426     9A    -11.210011  
      10A    -11.202282    11A     -1.370718    12A     -1.326411  
      13A     -1.067746    14A     -1.052959    15A     -0.976657  
      16A     -0.956967    17A     -0.868329    18A     -0.851033  
      19A     -0.795569    20A     -0.774522    21A     -0.690908  
      22A     -0.659607    23A     -0.645990    24A     -0.635219  
      25A     -0.619993    26A     -0.606018    27A     -0.578431  
      28A     -0.570921    29A     -0.565800    30A     -0.545717  
      31A     -0.541571    32A     -0.520452    33A     -0.507309  
      34A     -0.502839    35A     -0.492311    36A     -0.479896  
      37A     -0.475149    38A     -0.466658    39A     -0.459085  
      40A     -0.445571    41A     -0.438435    42A     -0.407875  

    Virtual:                                                              

      43A      0.047867    44A      0.053270    45A      0.056006  
      46A      0.058844    47A      0.067312    48A      0.069193  
      49A      0.072823    50A      0.080001    51A      0.084596  
      52A      0.094775    53A      0.103735    54A      0.105775  
      55A      0.106144    56A      0.108811    57A      0.120958  
      58A      0.131406    59A      0.137714    60A      0.139650  
      61A      0.140998    62A      0.142162    63A      0.145470  
      64A      0.150643    65A      0.165332    66A      0.170829  
      67A      0.178461    68A      0.179512    69A      0.190739  
      70A      0.201144    71A      0.202934    72A      0.208056  
      73A      0.216042    74A      0.224767    75A      0.229893  
      76A      0.234995    77A      0.236927    78A      0.250040  
      79A      0.252566    80A      0.266424    81A      0.268111  
      82A      0.275423    83A      0.281613    84A      0.285004  
      85A      0.289278    86A      0.296229    87A      0.305185  
      88A      0.306675    89A      0.314680    90A      0.320278  
      91A      0.322381    92A      0.327235    93A      0.329461  
      94A      0.333344    95A      0.339654    96A      0.341984  
      97A      0.342573    98A      0.354385    99A      0.361106  
     100A      0.362049   101A      0.363531   102A      0.364614  
     103A      0.368808   104A      0.373413   105A      0.382953  
     106A      0.387824   107A      0.390527   108A      0.394990  
     109A      0.400319   110A      0.409845   111A      0.414808  
     112A      0.420137   113A      0.420775   114A      0.431358  
     115A      0.440909   116A      0.443439   117A      0.447243  
     118A      0.452563   119A      0.459407   120A      0.469659  
     121A      0.474118   122A      0.475012   123A      0.485007  
     124A      0.496010   125A      0.501724   126A      0.510187  
     127A      0.514430   128A      0.519541   129A      0.529088  
     130A      0.533020   131A      0.537615   132A      0.541440  
     133A      0.547337   134A      0.550071   135A      0.555582  
     136A      0.557982   137A      0.565148   138A      0.569586  
     139A      0.576293   140A      0.581536   141A      0.592317  
     142A      0.597537   143A      0.608281   144A      0.608589  
     145A      0.616754   146A      0.621548   147A      0.631888  
     148A      0.638411   149A      0.641577   150A      0.654456  
     151A      0.663278   152A      0.671011   153A      0.681999  
     154A      0.688414   155A      0.690832   156A      0.697346  
     157A      0.706792   158A      0.715543   159A      0.717613  
     160A      0.727182   161A      0.735056   162A      0.739254  
     163A      0.752171   164A      0.760292   165A      0.765278  
     166A      0.774935   167A      0.779382   168A      0.785578  
     169A      0.792123   170A      0.800208   171A      0.802133  
     172A      0.806441   173A      0.814470   174A      0.820386  
     175A      0.831400   176A      0.834354   177A      0.836579  
     178A      0.852101   179A      0.855111   180A      0.863964  
     181A      0.866843   182A      0.870800   183A      0.875956  
     184A      0.884122   185A      0.889453   186A      0.891614  
     187A      0.894834   188A      0.910560   189A      0.915135  
     190A      0.920697   191A      0.926894   192A      0.941398  
     193A      0.947858   194A      0.957427   195A      0.966349  
     196A      0.973422   197A      0.976894   198A      0.987340  
     199A      0.996592   200A      1.001729   201A      1.014160  
     202A      1.025127   203A      1.031546   204A      1.044961  
     205A      1.052181   206A      1.062467   207A      1.082888  
     208A      1.094266   209A      1.109156   210A      1.118587  
     211A      1.129135   212A      1.133838   213A      1.153517  
     214A      1.158459   215A      1.171451   216A      1.180649  
     217A      1.188895   218A      1.198899   219A      1.211358  
     220A      1.222529   221A      1.228541   222A      1.244750  
     223A      1.253731   224A      1.262683   225A      1.266614  
     226A      1.280720   227A      1.291216   228A      1.293858  
     229A      1.301566   230A      1.319824   231A      1.330450  
     232A      1.338352   233A      1.349005   234A      1.356658  
     235A      1.363743   236A      1.374584   237A      1.378321  
     238A      1.383172   239A      1.401210   240A      1.405535  
     241A      1.410133   242A      1.421692   243A      1.423350  
     244A      1.439497   245A      1.448577   246A      1.460033  
     247A      1.463400   248A      1.465288   249A      1.473388  
     250A      1.488389   251A      1.491538   252A      1.496288  
     253A      1.511755   254A      1.516825   255A      1.523179  
     256A      1.525433   257A      1.532251   258A      1.536922  
     259A      1.548205   260A      1.557308   261A      1.567683  
     262A      1.571604   263A      1.578085   264A      1.584070  
     265A      1.592684   266A      1.593877   267A      1.600733  
     268A      1.607813   269A      1.608914   270A      1.634362  
     271A      1.637570   272A      1.639461   273A      1.644668  
     274A      1.658167   275A      1.669942   276A      1.675298  
     277A      1.682003   278A      1.693356   279A      1.697472  
     280A      1.706576   281A      1.710266   282A      1.720312  
     283A      1.724723   284A      1.727666   285A      1.735237  
     286A      1.744928   287A      1.755705   288A      1.762051  
     289A      1.775643   290A      1.784786   291A      1.798213  
     292A      1.802988   293A      1.811608   294A      1.822307  
     295A      1.831141   296A      1.845611   297A      1.856775  
     298A      1.859874   299A      1.878844   300A      1.884904  
     301A      1.895833   302A      1.905241   303A      1.917428  
     304A      1.922322   305A      1.935480   306A      1.959430  
     307A      1.964792   308A      1.975203   309A      1.977983  
     310A      1.990377   311A      2.006255   312A      2.010318  
     313A      2.049518   314A      2.070129   315A      2.097511  
     316A      2.112018   317A      2.141125   318A      2.226654  
     319A      2.294924   320A      2.362047   321A      2.412041  
     322A      2.438796   323A      2.454933   324A      2.463969  
     325A      2.506917   326A      2.513641   327A      2.585600  
     328A      2.613857   329A      2.668650   330A      2.690021  
     331A      2.779017   332A      2.801451   333A      2.804550  
     334A      2.813407   335A      2.824011   336A      2.835959  
     337A      2.845841   338A      2.865098   339A      2.878492  
     340A      2.879113   341A      2.894590   342A      2.907242  
     343A      2.919672   344A      2.928857   345A      2.940587  
     346A      2.951425   347A      2.967426   348A      2.979818  
     349A      2.986023   350A      3.002471   351A      3.011773  
     352A      3.024997   353A      3.042317   354A      3.049240  
     355A      3.062092   356A      3.063716   357A      3.076656  
     358A      3.084324   359A      3.090211   360A      3.106438  
     361A      3.113422   362A      3.121768   363A      3.132261  
     364A      3.145480   365A      3.154016   366A      3.167589  
     367A      3.186229   368A      3.197426   369A      3.204113  
     370A      3.209090   371A      3.219111   372A      3.231659  
     373A      3.246258   374A      3.256635   375A      3.262541  
     376A      3.277727   377A      3.292634   378A      3.301072  
     379A      3.311368   380A      3.326156   381A      3.335924  
     382A      3.342291   383A      3.358315   384A      3.376779  
     385A      3.382625   386A      3.400706   387A      3.404552  
     388A      3.412657   389A      3.419958   390A      3.422618  
     391A      3.426068   392A      3.439476   393A      3.443698  
     394A      3.448057   395A      3.457489   396A      3.463232  
     397A      3.470244   398A      3.476717   399A      3.482702  
     400A      3.486222   401A      3.491136   402A      3.497453  
     403A      3.502681   404A      3.508528   405A      3.517271  
     406A      3.526811   407A      3.527732   408A      3.531771  
     409A      3.538143   410A      3.543643   411A      3.554863  
     412A      3.562449   413A      3.571466   414A      3.575422  
     415A      3.583849   416A      3.591831   417A      3.599077  
     418A      3.606096   419A      3.614268   420A      3.619243  
     421A      3.630350   422A      3.642011   423A      3.650747  
     424A      3.672915   425A      3.682921   426A      3.687585  
     427A      3.703111   428A      3.716825   429A      3.730360  
     430A      3.750981   431A      3.755822   432A      3.759932  
     433A      3.766796   434A      3.771097   435A      3.781251  
     436A      3.795254   437A      3.804762   438A      3.806885  
     439A      3.816178   440A      3.818283   441A      3.830596  
     442A      3.842318   443A      3.856277   444A      3.867467  
     445A      3.871709   446A      3.876343   447A      3.898688  
     448A      3.909232   449A      3.915255   450A      3.918800  
     451A      3.929948   452A      3.945315   453A      3.947169  
     454A      3.949973   455A      3.964095   456A      3.971113  
     457A      3.983077   458A      3.989748   459A      4.000716  
     460A      4.015914   461A      4.020744   462A      4.031916  
     463A      4.071538   464A      4.086245   465A      4.100040  
     466A      4.109866   467A      4.112638   468A      4.120996  
     469A      4.146841   470A      4.153572   471A      4.167274  
     472A      4.185593   473A      4.191274   474A      4.196553  
     475A      4.211639   476A      4.230803   477A      4.234032  
     478A      4.239976   479A      4.246161   480A      4.259847  
     481A      4.264802   482A      4.270108   483A      4.281197  
     484A      4.286378   485A      4.290295   486A      4.307485  
     487A      4.322524   488A      4.327333   489A      4.336402  
     490A      4.349005   491A      4.366221   492A      4.368062  
     493A      4.381087   494A      4.395448   495A      4.396905  
     496A      4.402253   497A      4.407769   498A      4.413033  
     499A      4.425217   500A      4.430187   501A      4.436825  
     502A      4.438945   503A      4.455613   504A      4.458267  
     505A      4.463973   506A      4.476434   507A      4.486264  
     508A      4.491138   509A      4.507274   510A      4.510927  
     511A      4.512376   512A      4.522435   513A      4.530131  
     514A      4.533578   515A      4.558581   516A      4.559372  
     517A      4.562570   518A      4.569669   519A      4.579586  
     520A      4.583470   521A      4.595115   522A      4.598267  
     523A      4.612350   524A      4.627035   525A      4.628550  
     526A      4.639859   527A      4.650818   528A      4.659619  
     529A      4.665931   530A      4.685345   531A      4.688399  
     532A      4.704070   533A      4.719682   534A      4.740059  
     535A      4.756220   536A      4.762295   537A      4.776569  
     538A      4.783782   539A      4.803993   540A      4.812452  
     541A      4.828147   542A      4.829600   543A      4.836391  
     544A      4.848290   545A      4.851736   546A      4.861781  
     547A      4.890215   548A      4.899266   549A      4.918722  
     550A      4.927253   551A      4.949626   552A      4.963332  
     553A      5.009905   554A      5.022934   555A      5.039839  
     556A      5.052629   557A      5.058950   558A      5.068235  
     559A      5.080004   560A      5.087214   561A      5.117352  
     562A      5.131152   563A      5.146392   564A      5.159821  
     565A      5.182363   566A      5.183841   567A      5.199787  
     568A      5.216039   569A      5.225324   570A      5.228286  
     571A      5.244153   572A      5.266073   573A      5.271768  
     574A      5.282091   575A      5.283323   576A      5.303973  
     577A      5.309441   578A      5.330937   579A      5.335211  
     580A      5.347869   581A      5.360885   582A      5.367938  
     583A      5.387061   584A      5.408496   585A      5.412577  
     586A      5.422907   587A      5.458997   588A      5.472157  
     589A      5.484698   590A      5.488461   591A      5.512135  
     592A      5.526268   593A      5.532318   594A      5.557432  
     595A      5.571033   596A      5.599742   597A      5.609453  
     598A      5.620338   599A      5.626895   600A      5.635029  
     601A      5.717758   602A      5.726237   603A      5.732279  
     604A      5.741577   605A      5.752694   606A      5.762948  
     607A      5.778208   608A      5.783380   609A      5.793537  
     610A      5.805883   611A      5.825692   612A      5.827610  
     613A      5.846339   614A      5.856723   615A      5.888300  
     616A      5.895367   617A      5.901975   618A      5.914367  
     619A      5.928463   620A      5.954587   621A      5.986197  
     622A      5.998942   623A      6.038318   624A      6.052026  
     625A      6.106743   626A      6.136331   627A      6.191338  
     628A      6.192384   629A      6.259832   630A      6.333920  
     631A      6.397504   632A      6.455772   633A      6.506968  
     634A      6.519064   635A      6.521496   636A      6.529268  
     637A      6.545374   638A      6.567899   639A      6.574334  
     640A      6.595314   641A      6.637444   642A      6.650247  
     643A      6.906740   644A      6.975447   645A      7.040380  
     646A      7.085148   647A      7.197428   648A      7.238346  
     649A      7.327041   650A      7.395337   651A      7.415405  
     652A      7.470409   653A      7.534963   654A      7.583133  
     655A      7.638024   656A      7.760507   657A      7.862622  
     658A      7.951400   659A      8.190933   660A      8.264562  
     661A     13.364434   662A     13.412012   663A     13.570421  
     664A     13.613307   665A     13.891450   666A     13.942394  
     667A     14.080189   668A     14.126032   669A     14.409894  
     670A     14.526331  

    Final Occupation by Irrep:
              A 
    DOCC [    42 ]

  @DF-RHF Final Energy:  -464.47077660779939

   => Energetics <=

    Nuclear Repulsion Energy =            588.2462175796476913
    One-Electron Energy =               -1799.7472340801798509
    Two-Electron Energy =                 747.0302398927327658
    Total Energy =                       -464.4707766077993938

Computation Completed


Properties will be evaluated at   0.000000,   0.000000,   0.000000 [a0]

Properties computed using the SCF density matrix

  Nuclear Dipole Moment: [e a0]
     X:     0.5035      Y:     4.2676      Z:    -0.0037

  Electronic Dipole Moment: [e a0]
     X:     0.1899      Y:    -4.3255      Z:    -0.8084

  Dipole Moment: [e a0]
     X:     0.6934      Y:    -0.0579      Z:    -0.8121     Total:     1.0694

  Dipole Moment: [D]
     X:     1.7625      Y:    -0.1471      Z:    -2.0641     Total:     2.7182


*** tstop() called on r282 at Thu Sep  9 09:43:03 2021
Module time:
	user time   =     196.24 seconds =       3.27 minutes
	system time =       4.42 seconds =       0.07 minutes
	total time  =        200 seconds =       3.33 minutes
Total time:
	user time   =     196.24 seconds =       3.27 minutes
	system time =       4.42 seconds =       0.07 minutes
	total time  =        200 seconds =       3.33 minutes

  //>>>>>>>>>>>>>>>>>>>>>>>>>>>>>>>>>>>//
  //            Monomer A HF           //
  //<<<<<<<<<<<<<<<<<<<<<<<<<<<<<<<<<<<//


*** tstart() called on r282
*** at Thu Sep  9 09:43:03 2021

   => Loading Basis Set <=

    Name: JUN-CC-PVTZ
    Role: ORBITAL
    Keyword: BASIS
    atoms 1-2, 9, 12, 16-17, 24, 27                          entry C          line   217 file /home/r08543048/miniconda3/share/psi4/basis/jun-cc-pvtz.gbs 
    atoms 3-4, 6-8, 10-11, 13-15, 18-19, 21-23, 25-26, 28-30 entry H          line    36 file /home/r08543048/miniconda3/share/psi4/basis/jun-cc-pvtz.gbs 
    atoms 5, 20                                              entry O          line   305 file /home/r08543048/miniconda3/share/psi4/basis/jun-cc-pvtz.gbs 


         ---------------------------------------------------------
                                   SCF
               by Justin Turney, Rob Parrish, Andy Simmonett
                          and Daniel G. A. Smith
                              RHF Reference
                        1 Threads,  20980 MiB Core
         ---------------------------------------------------------

  ==> Geometry <==

    Molecular point group: c1
    Full point group: C1

    Geometry (in Angstrom), charge = 0, multiplicity = 1:

       Center              X                  Y                   Z               Mass       
    ------------   -----------------  -----------------  -----------------  -----------------
         C            2.668431951362     0.646136739048    -0.830437063930    12.000000000000
         C            1.570825951362    -0.107393260952    -1.578317063930    12.000000000000
         H            3.602151951362     0.050932739048    -0.841259063930     1.007825032230
         H            2.877407951362     1.552327739048    -1.427981063930     1.007825032230
         O            1.171509951362    -1.347814260952    -0.951456063930    15.994914619570
         H            0.650080951362     0.495873739048    -1.604648063930     1.007825032230
         H            1.880888951362    -0.304520260952    -2.620184063930     1.007825032230
         H            1.963195951362    -1.893323260952    -0.838029063930     1.007825032230
         C            2.312764951362     1.042918739048     0.615541936070    12.000000000000
         H            2.895582951362     1.940065739048     0.885406936070     1.007825032230
         H            1.248016951362     1.332010739048     0.662733936070     1.007825032230
         C            2.596827951362    -0.051062260952     1.655019936070    12.000000000000
         H            3.659530951362    -0.347109260952     1.623028936070     1.007825032230
         H            2.379309951362     0.310900739048     2.671938936070     1.007825032230
         H            1.979710951362    -0.944904260952     1.487416936070     1.007825032230
      Gh(C)          -2.611584048638    -0.517473260952    -0.563737063930    12.000000000000
      Gh(C)          -2.067228048638    -1.297446260952     0.637546936070    12.000000000000
      Gh(H)          -1.846073048638    -0.508803260952    -1.362845063930     1.007825032230
      Gh(H)          -3.471095048638    -1.088882260952    -0.961450063930     1.007825032230
      Gh(O)          -0.795444048638    -0.831709260952     1.109683936070    15.994914619570
      Gh(H)          -2.759200048638    -1.197703260952     1.490799936070     1.007825032230
      Gh(H)          -2.007295048638    -2.372495260952     0.382921936070     1.007825032230
      Gh(H)          -0.134124048638    -1.068440260952     0.433977936070     1.007825032230
      Gh(C)          -3.073276048638     0.915229739048    -0.251547063930    12.000000000000
      Gh(H)          -3.621094048638     1.305996739048    -1.127321063930     1.007825032230
      Gh(H)          -3.803321048638     0.877278739048     0.577822936070     1.007825032230
      Gh(C)          -1.942970048638     1.890936739048     0.105421936070    12.000000000000
      Gh(H)          -1.207323048638     1.946982739048    -0.715403063930     1.007825032230
      Gh(H)          -2.340280048638     2.906351739048     0.266490936070     1.007825032230
      Gh(H)          -1.410913048638     1.570880739048     1.011866936070     1.007825032230

  Running in c1 symmetry.

  Rotational constants: A =      0.05123  B =      0.01949  C =      0.01904 [cm^-1]
  Rotational constants: A =   1535.82516  B =    584.36220  C =    570.71816 [MHz]
  Nuclear repulsion =  190.357146514390280

  Charge       = 0
  Multiplicity = 1
  Electrons    = 42
  Nalpha       = 21
  Nbeta        = 21

  ==> Algorithm <==

  SCF Algorithm Type is DF.
  DIIS enabled.
  MOM disabled.
  Fractional occupation disabled.
  Guess Type is SAD.
  Energy threshold   = 1.00e-08
  Density threshold  = 1.00e-08
  Integral threshold = 0.00e+00

  ==> Primary Basis <==

  Basis Set: JUN-CC-PVTZ
    Blend: JUN-CC-PVTZ
    Number of shells: 250
    Number of basis function: 670
    Number of Cartesian functions: 750
    Spherical Harmonics?: true
    Max angular momentum: 3

   => Loading Basis Set <=

    Name: (JUN-CC-PVTZ AUX)
    Role: JKFIT
    Keyword: DF_BASIS_SCF
    atoms 1-2, 9, 12, 16-17, 24, 27                          entry C          line   152 file /home/r08543048/miniconda3/share/psi4/basis/jun-cc-pvtz-jkfit.gbs 
    atoms 3-4, 6-8, 10-11, 13-15, 18-19, 21-23, 25-26, 28-30 entry H          line    70 file /home/r08543048/miniconda3/share/psi4/basis/jun-cc-pvtz-jkfit.gbs 
    atoms 5, 20                                              entry O          line   272 file /home/r08543048/miniconda3/share/psi4/basis/jun-cc-pvtz-jkfit.gbs 

  ==> Pre-Iterations <==

   -------------------------------------------------------
    Irrep   Nso     Nmo     Nalpha   Nbeta   Ndocc  Nsocc
   -------------------------------------------------------
     A        670     670       0       0       0       0
   -------------------------------------------------------
    Total     670     670      21      21      21       0
   -------------------------------------------------------

  ==> Integral Setup <==

  ==> DiskDFJK: Density-Fitted J/K Matrices <==

    J tasked:                  Yes
    K tasked:                  Yes
    wK tasked:                  No
    OpenMP threads:              1
    Integrals threads:           1
    Memory [MiB]:            15735
    Algorithm:                Core
    Integral Cache:           LOAD
    Schwarz Cutoff:          1E-12
    Fitting Condition:       1E-10

   => Auxiliary Basis Set <=

  Basis Set: (JUN-CC-PVTZ AUX)
    Blend: JUN-CC-PVTZ-JKFIT
    Number of shells: 490
    Number of basis function: 1550
    Number of Cartesian functions: 1860
    Spherical Harmonics?: true
    Max angular momentum: 4

  Minimum eigenvalue in the overlap matrix is 3.3566039394E-05.
  Using Symmetric Orthogonalization.

  SCF Guess: Superposition of Atomic Densities via on-the-fly atomic UHF.

  ==> Iterations <==

                           Total Energy        Delta E     RMS |[F,P]|

   @DF-RHF iter SAD:  -231.42714360884128   -2.31427e+02   0.00000e+00 
   @DF-RHF iter   1:  -232.01030403654494   -5.83160e-01   9.29365e-04 DIIS
   @DF-RHF iter   2:  -232.18350629062800   -1.73202e-01   4.94862e-04 DIIS
   @DF-RHF iter   3:  -232.23022159088134   -4.67153e-02   8.61040e-05 DIIS
   @DF-RHF iter   4:  -232.23295360859066   -2.73202e-03   2.99418e-05 DIIS
   @DF-RHF iter   5:  -232.23318431719559   -2.30709e-04   7.37196e-06 DIIS
   @DF-RHF iter   6:  -232.23320215370700   -1.78365e-05   1.69824e-06 DIIS
   @DF-RHF iter   7:  -232.23320350333648   -1.34963e-06   4.21225e-07 DIIS
   @DF-RHF iter   8:  -232.23320359005027   -8.67138e-08   1.36083e-07 DIIS
   @DF-RHF iter   9:  -232.23320359927777   -9.22751e-09   3.73032e-08 DIIS
   @DF-RHF iter  10:  -232.23320360008003   -8.02260e-10   8.52535e-09 DIIS
  Energy and wave function converged.


  ==> Post-Iterations <==

    Orbital Energies [Eh]
    ---------------------

    Doubly Occupied:                                                      

       1A    -20.554235     2A    -11.276927     3A    -11.227698  
       4A    -11.223806     5A    -11.212122     6A     -1.347121  
       7A     -1.064496     8A     -0.972166     9A     -0.862183  
      10A     -0.790806    11A     -0.666501    12A     -0.638153  
      13A     -0.625475    14A     -0.575545    15A     -0.562932  
      16A     -0.534810    17A     -0.497741    18A     -0.494257  
      19A     -0.474496    20A     -0.462189    21A     -0.428229  

    Virtual:                                                              

      22A      0.034994    23A      0.047484    24A      0.050898  
      25A      0.052437    26A      0.063869    27A      0.066024  
      28A      0.069000    29A      0.079474    30A      0.080839  
      31A      0.091210    32A      0.096935    33A      0.101553  
      34A      0.103426    35A      0.105912    36A      0.112090  
      37A      0.119814    38A      0.134454    39A      0.134898  
      40A      0.137428    41A      0.141239    42A      0.142679  
      43A      0.145260    44A      0.147335    45A      0.156356  
      46A      0.166010    47A      0.170424    48A      0.173778  
      49A      0.180202    50A      0.182394    51A      0.198259  
      52A      0.209801    53A      0.213143    54A      0.215308  
      55A      0.215678    56A      0.224343    57A      0.236966  
      58A      0.244488    59A      0.248774    60A      0.253852  
      61A      0.263184    62A      0.268491    63A      0.279106  
      64A      0.284817    65A      0.287982    66A      0.299347  
      67A      0.302075    68A      0.309399    69A      0.313034  
      70A      0.315808    71A      0.323783    72A      0.327017  
      73A      0.331629    74A      0.337743    75A      0.343750  
      76A      0.347936    77A      0.350533    78A      0.357393  
      79A      0.359461    80A      0.362477    81A      0.368239  
      82A      0.378006    83A      0.380285    84A      0.382697  
      85A      0.391266    86A      0.396867    87A      0.399009  
      88A      0.406912    89A      0.411426    90A      0.416491  
      91A      0.423454    92A      0.425758    93A      0.438968  
      94A      0.445288    95A      0.446363    96A      0.452475  
      97A      0.461611    98A      0.464497    99A      0.472187  
     100A      0.480228   101A      0.485938   102A      0.490603  
     103A      0.501817   104A      0.506189   105A      0.508149  
     106A      0.517368   107A      0.521328   108A      0.525623  
     109A      0.530531   110A      0.536889   111A      0.544746  
     112A      0.551499   113A      0.556203   114A      0.564145  
     115A      0.570402   116A      0.571979   117A      0.578941  
     118A      0.588048   119A      0.589478   120A      0.594008  
     121A      0.600475   122A      0.612040   123A      0.618827  
     124A      0.620010   125A      0.631566   126A      0.633367  
     127A      0.647032   128A      0.650271   129A      0.653467  
     130A      0.659055   131A      0.664658   132A      0.670334  
     133A      0.676080   134A      0.680107   135A      0.687775  
     136A      0.696126   137A      0.702009   138A      0.710592  
     139A      0.720294   140A      0.727216   141A      0.733391  
     142A      0.739034   143A      0.749970   144A      0.761549  
     145A      0.766307   146A      0.777721   147A      0.784523  
     148A      0.786924   149A      0.799331   150A      0.810296  
     151A      0.816699   152A      0.824155   153A      0.824767  
     154A      0.846814   155A      0.848838   156A      0.863040  
     157A      0.869546   158A      0.876786   159A      0.887963  
     160A      0.896412   161A      0.903745   162A      0.910588  
     163A      0.912466   164A      0.923257   165A      0.932260  
     166A      0.946445   167A      0.963043   168A      0.969096  
     169A      0.973782   170A      0.977661   171A      1.001379  
     172A      1.020973   173A      1.030471   174A      1.033349  
     175A      1.050210   176A      1.054166   177A      1.071858  
     178A      1.076534   179A      1.087436   180A      1.097578  
     181A      1.104785   182A      1.117697   183A      1.127989  
     184A      1.140736   185A      1.150453   186A      1.157321  
     187A      1.166806   188A      1.170421   189A      1.181852  
     190A      1.202054   191A      1.204904   192A      1.213857  
     193A      1.227562   194A      1.231125   195A      1.241251  
     196A      1.251148   197A      1.253636   198A      1.257392  
     199A      1.264495   200A      1.269437   201A      1.281922  
     202A      1.297251   203A      1.299225   204A      1.305274  
     205A      1.321591   206A      1.326201   207A      1.330278  
     208A      1.341543   209A      1.350038   210A      1.352511  
     211A      1.355599   212A      1.372357   213A      1.379217  
     214A      1.385697   215A      1.397181   216A      1.399351  
     217A      1.415864   218A      1.416510   219A      1.425532  
     220A      1.428030   221A      1.440337   222A      1.454820  
     223A      1.459199   224A      1.463780   225A      1.470756  
     226A      1.479784   227A      1.487476   228A      1.489548  
     229A      1.496410   230A      1.503317   231A      1.511283  
     232A      1.517953   233A      1.526403   234A      1.540782  
     235A      1.543879   236A      1.548069   237A      1.557337  
     238A      1.566134   239A      1.572829   240A      1.578192  
     241A      1.589078   242A      1.595955   243A      1.599598  
     244A      1.613909   245A      1.616197   246A      1.620944  
     247A      1.632518   248A      1.639307   249A      1.640540  
     250A      1.663293   251A      1.672426   252A      1.676718  
     253A      1.687407   254A      1.699736   255A      1.701588  
     256A      1.704733   257A      1.711155   258A      1.725486  
     259A      1.737578   260A      1.747228   261A      1.755586  
     262A      1.766162   263A      1.769674   264A      1.779406  
     265A      1.785260   266A      1.795161   267A      1.806323  
     268A      1.818394   269A      1.831418   270A      1.840187  
     271A      1.847029   272A      1.853611   273A      1.869596  
     274A      1.875959   275A      1.890774   276A      1.894637  
     277A      1.901705   278A      1.922250   279A      1.931443  
     280A      1.946064   281A      1.959458   282A      1.963170  
     283A      1.975700   284A      2.002235   285A      2.004784  
     286A      2.014749   287A      2.047289   288A      2.055232  
     289A      2.075921   290A      2.088614   291A      2.108517  
     292A      2.125206   293A      2.160116   294A      2.179243  
     295A      2.190569   296A      2.206435   297A      2.231841  
     298A      2.293177   299A      2.300404   300A      2.311637  
     301A      2.360202   302A      2.397566   303A      2.406524  
     304A      2.434693   305A      2.452444   306A      2.477880  
     307A      2.490598   308A      2.516735   309A      2.524439  
     310A      2.544898   311A      2.582501   312A      2.588148  
     313A      2.597856   314A      2.608159   315A      2.623590  
     316A      2.661762   317A      2.766416   318A      2.783491  
     319A      2.803621   320A      2.832152   321A      2.853583  
     322A      2.862573   323A      2.886425   324A      2.896682  
     325A      2.915613   326A      2.925662   327A      2.943777  
     328A      2.972766   329A      2.978551   330A      3.005286  
     331A      3.026305   332A      3.034481   333A      3.047695  
     334A      3.053948   335A      3.079110   336A      3.096918  
     337A      3.100963   338A      3.131293   339A      3.140274  
     340A      3.158858   341A      3.170520   342A      3.188763  
     343A      3.199014   344A      3.226152   345A      3.258419  
     346A      3.265638   347A      3.301295   348A      3.319168  
     349A      3.330702   350A      3.360320   351A      3.374381  
     352A      3.410305   353A      3.414078   354A      3.421865  
     355A      3.438512   356A      3.450794   357A      3.460482  
     358A      3.462690   359A      3.468872   360A      3.475445  
     361A      3.493977   362A      3.495761   363A      3.499370  
     364A      3.525359   365A      3.530858   366A      3.540432  
     367A      3.543402   368A      3.561723   369A      3.563422  
     370A      3.568534   371A      3.575752   372A      3.588684  
     373A      3.596794   374A      3.603219   375A      3.617129  
     376A      3.626748   377A      3.633560   378A      3.649146  
     379A      3.653602   380A      3.677653   381A      3.689849  
     382A      3.700741   383A      3.710638   384A      3.727361  
     385A      3.743797   386A      3.748640   387A      3.756609  
     388A      3.760123   389A      3.763676   390A      3.777493  
     391A      3.781299   392A      3.793638   393A      3.809540  
     394A      3.819271   395A      3.824731   396A      3.832969  
     397A      3.837695   398A      3.852949   399A      3.858747  
     400A      3.861083   401A      3.867246   402A      3.884007  
     403A      3.895409   404A      3.900385   405A      3.922747  
     406A      3.927248   407A      3.935821   408A      3.946866  
     409A      3.949935   410A      3.955682   411A      3.960125  
     412A      3.976500   413A      3.981113   414A      3.984863  
     415A      3.998926   416A      4.025101   417A      4.050604  
     418A      4.070937   419A      4.077603   420A      4.085752  
     421A      4.097981   422A      4.105072   423A      4.115592  
     424A      4.123700   425A      4.140140   426A      4.162067  
     427A      4.169114   428A      4.194664   429A      4.195680  
     430A      4.200299   431A      4.207449   432A      4.231267  
     433A      4.244844   434A      4.251400   435A      4.262764  
     436A      4.271838   437A      4.274108   438A      4.284753  
     439A      4.293238   440A      4.317573   441A      4.332442  
     442A      4.332975   443A      4.345760   444A      4.353632  
     445A      4.372687   446A      4.388235   447A      4.391006  
     448A      4.396459   449A      4.406015   450A      4.410446  
     451A      4.427968   452A      4.434025   453A      4.438953  
     454A      4.447680   455A      4.452403   456A      4.457080  
     457A      4.468763   458A      4.481064   459A      4.499241  
     460A      4.510125   461A      4.512942   462A      4.515673  
     463A      4.526288   464A      4.529670   465A      4.531830  
     466A      4.540423   467A      4.555704   468A      4.564149  
     469A      4.566625   470A      4.584237   471A      4.592280  
     472A      4.592782   473A      4.607537   474A      4.620233  
     475A      4.625597   476A      4.635073   477A      4.640427  
     478A      4.655285   479A      4.659850   480A      4.663373  
     481A      4.674095   482A      4.686843   483A      4.701031  
     484A      4.719921   485A      4.723048   486A      4.737232  
     487A      4.750541   488A      4.760390   489A      4.762542  
     490A      4.773058   491A      4.781691   492A      4.790408  
     493A      4.801997   494A      4.806481   495A      4.808092  
     496A      4.816474   497A      4.823409   498A      4.836061  
     499A      4.843774   500A      4.848411   501A      4.850189  
     502A      4.864489   503A      4.877161   504A      4.886239  
     505A      4.890151   506A      4.899920   507A      4.911106  
     508A      4.927151   509A      4.944101   510A      4.947267  
     511A      4.957786   512A      4.968186   513A      4.976658  
     514A      4.988984   515A      4.998293   516A      5.008897  
     517A      5.013880   518A      5.017166   519A      5.036483  
     520A      5.039284   521A      5.057978   522A      5.062424  
     523A      5.076299   524A      5.082432   525A      5.089533  
     526A      5.096309   527A      5.103988   528A      5.122164  
     529A      5.123958   530A      5.142638   531A      5.158692  
     532A      5.165512   533A      5.169845   534A      5.182973  
     535A      5.195382   536A      5.202323   537A      5.227780  
     538A      5.234278   539A      5.245792   540A      5.254637  
     541A      5.261347   542A      5.282929   543A      5.289166  
     544A      5.302605   545A      5.334780   546A      5.340389  
     547A      5.344836   548A      5.361888   549A      5.368938  
     550A      5.378780   551A      5.404999   552A      5.429430  
     553A      5.437876   554A      5.449851   555A      5.469322  
     556A      5.495195   557A      5.511945   558A      5.526033  
     559A      5.530518   560A      5.558225   561A      5.564865  
     562A      5.573664   563A      5.603890   564A      5.612305  
     565A      5.628291   566A      5.662873   567A      5.679465  
     568A      5.723957   569A      5.731640   570A      5.737510  
     571A      5.752216   572A      5.764038   573A      5.781424  
     574A      5.797438   575A      5.810743   576A      5.836775  
     577A      5.845859   578A      5.861000   579A      5.891950  
     580A      5.895325   581A      5.906848   582A      5.931378  
     583A      5.954791   584A      5.975583   585A      5.996116  
     586A      6.019630   587A      6.045538   588A      6.068110  
     589A      6.084456   590A      6.103886   591A      6.156737  
     592A      6.185897   593A      6.203759   594A      6.220558  
     595A      6.262735   596A      6.307048   597A      6.344718  
     598A      6.359962   599A      6.374027   600A      6.410920  
     601A      6.418652   602A      6.440674   603A      6.449841  
     604A      6.507154   605A      6.524112   606A      6.537461  
     607A      6.553501   608A      6.597221   609A      6.610110  
     610A      6.644080   611A      6.716334   612A      6.752433  
     613A      6.881783   614A      6.904540   615A      6.932084  
     616A      7.000957   617A      7.073680   618A      7.149019  
     619A      7.218274   620A      7.270385   621A      7.349408  
     622A      7.359772   623A      7.410661   624A      7.466068  
     625A      7.476877   626A      7.505116   627A      7.563462  
     628A      7.572027   629A      7.635984   630A      7.646201  
     631A      7.658786   632A      7.670609   633A      7.699444  
     634A      7.724265   635A      7.767085   636A      7.786087  
     637A      7.830258   638A      7.874233   639A      7.903427  
     640A      8.003524   641A      8.055972   642A      8.206762  
     643A      8.244601   644A      8.331706   645A      8.397387  
     646A      8.592637   647A      8.745431   648A      9.455679  
     649A      9.495125   650A      9.547625   651A      9.776579  
     652A      9.897822   653A      9.951104   654A     10.084734  
     655A     10.199963   656A     10.444309   657A     11.255979  
     658A     11.772089   659A     12.815868   660A     13.373886  
     661A     13.633084   662A     13.719880   663A     14.005473  
     664A     14.145456   665A     14.410554   666A     43.256206  
     667A     43.823828   668A     44.919035   669A     45.314615  
     670A     61.706377  

    Final Occupation by Irrep:
              A 
    DOCC [    21 ]

  @DF-RHF Final Energy:  -232.23320360008003

   => Energetics <=

    Nuclear Repulsion Energy =            190.3571465143902799
    One-Electron Energy =                -692.1969203957403352
    Two-Electron Energy =                 269.6065702812700238
    Total Energy =                       -232.2332036000800599

Computation Completed


Properties will be evaluated at   0.000000,   0.000000,   0.000000 [a0]

Properties computed using the SCF density matrix

  Nuclear Dipole Moment: [e a0]
     X:   165.1641      Y:     1.1213      Z:   -15.9538

  Electronic Dipole Moment: [e a0]
     X:  -164.5331      Y:    -0.8468      Z:    15.7962

  Dipole Moment: [e a0]
     X:     0.6310      Y:     0.2745      Z:    -0.1576     Total:     0.7059

  Dipole Moment: [D]
     X:     1.6038      Y:     0.6977      Z:    -0.4005     Total:     1.7942


*** tstop() called on r282 at Thu Sep  9 09:44:51 2021
Module time:
	user time   =     106.50 seconds =       1.77 minutes
	system time =       1.41 seconds =       0.02 minutes
	total time  =        108 seconds =       1.80 minutes
Total time:
	user time   =     302.74 seconds =       5.05 minutes
	system time =       5.83 seconds =       0.10 minutes
	total time  =        308 seconds =       5.13 minutes

  //>>>>>>>>>>>>>>>>>>>>>>>>>>>>>>>>>>>//
  //            Monomer B HF           //
  //<<<<<<<<<<<<<<<<<<<<<<<<<<<<<<<<<<<//


*** tstart() called on r282
*** at Thu Sep  9 09:44:51 2021

   => Loading Basis Set <=

    Name: JUN-CC-PVTZ
    Role: ORBITAL
    Keyword: BASIS
    atoms 1-2, 9, 12, 16-17, 24, 27                          entry C          line   217 file /home/r08543048/miniconda3/share/psi4/basis/jun-cc-pvtz.gbs 
    atoms 3-4, 6-8, 10-11, 13-15, 18-19, 21-23, 25-26, 28-30 entry H          line    36 file /home/r08543048/miniconda3/share/psi4/basis/jun-cc-pvtz.gbs 
    atoms 5, 20                                              entry O          line   305 file /home/r08543048/miniconda3/share/psi4/basis/jun-cc-pvtz.gbs 


         ---------------------------------------------------------
                                   SCF
               by Justin Turney, Rob Parrish, Andy Simmonett
                          and Daniel G. A. Smith
                              RHF Reference
                        1 Threads,  20980 MiB Core
         ---------------------------------------------------------

  ==> Geometry <==

    Molecular point group: c1
    Full point group: C1

    Geometry (in Angstrom), charge = 0, multiplicity = 1:

       Center              X                  Y                   Z               Mass       
    ------------   -----------------  -----------------  -----------------  -----------------
      Gh(C)           2.668431951362     0.646136739048    -0.830437063930    12.000000000000
      Gh(C)           1.570825951362    -0.107393260952    -1.578317063930    12.000000000000
      Gh(H)           3.602151951362     0.050932739048    -0.841259063930     1.007825032230
      Gh(H)           2.877407951362     1.552327739048    -1.427981063930     1.007825032230
      Gh(O)           1.171509951362    -1.347814260952    -0.951456063930    15.994914619570
      Gh(H)           0.650080951362     0.495873739048    -1.604648063930     1.007825032230
      Gh(H)           1.880888951362    -0.304520260952    -2.620184063930     1.007825032230
      Gh(H)           1.963195951362    -1.893323260952    -0.838029063930     1.007825032230
      Gh(C)           2.312764951362     1.042918739048     0.615541936070    12.000000000000
      Gh(H)           2.895582951362     1.940065739048     0.885406936070     1.007825032230
      Gh(H)           1.248016951362     1.332010739048     0.662733936070     1.007825032230
      Gh(C)           2.596827951362    -0.051062260952     1.655019936070    12.000000000000
      Gh(H)           3.659530951362    -0.347109260952     1.623028936070     1.007825032230
      Gh(H)           2.379309951362     0.310900739048     2.671938936070     1.007825032230
      Gh(H)           1.979710951362    -0.944904260952     1.487416936070     1.007825032230
         C           -2.611584048638    -0.517473260952    -0.563737063930    12.000000000000
         C           -2.067228048638    -1.297446260952     0.637546936070    12.000000000000
         H           -1.846073048638    -0.508803260952    -1.362845063930     1.007825032230
         H           -3.471095048638    -1.088882260952    -0.961450063930     1.007825032230
         O           -0.795444048638    -0.831709260952     1.109683936070    15.994914619570
         H           -2.759200048638    -1.197703260952     1.490799936070     1.007825032230
         H           -2.007295048638    -2.372495260952     0.382921936070     1.007825032230
         H           -0.134124048638    -1.068440260952     0.433977936070     1.007825032230
         C           -3.073276048638     0.915229739048    -0.251547063930    12.000000000000
         H           -3.621094048638     1.305996739048    -1.127321063930     1.007825032230
         H           -3.803321048638     0.877278739048     0.577822936070     1.007825032230
         C           -1.942970048638     1.890936739048     0.105421936070    12.000000000000
         H           -1.207323048638     1.946982739048    -0.715403063930     1.007825032230
         H           -2.340280048638     2.906351739048     0.266490936070     1.007825032230
         H           -1.410913048638     1.570880739048     1.011866936070     1.007825032230

  Running in c1 symmetry.

  Rotational constants: A =      0.05123  B =      0.01949  C =      0.01904 [cm^-1]
  Rotational constants: A =   1535.82516  B =    584.36220  C =    570.71816 [MHz]
  Nuclear repulsion =  190.814761640717393

  Charge       = 0
  Multiplicity = 1
  Electrons    = 42
  Nalpha       = 21
  Nbeta        = 21

  ==> Algorithm <==

  SCF Algorithm Type is DF.
  DIIS enabled.
  MOM disabled.
  Fractional occupation disabled.
  Guess Type is SAD.
  Energy threshold   = 1.00e-08
  Density threshold  = 1.00e-08
  Integral threshold = 0.00e+00

  ==> Primary Basis <==

  Basis Set: JUN-CC-PVTZ
    Blend: JUN-CC-PVTZ
    Number of shells: 250
    Number of basis function: 670
    Number of Cartesian functions: 750
    Spherical Harmonics?: true
    Max angular momentum: 3

   => Loading Basis Set <=

    Name: (JUN-CC-PVTZ AUX)
    Role: JKFIT
    Keyword: DF_BASIS_SCF
    atoms 1-2, 9, 12, 16-17, 24, 27                          entry C          line   152 file /home/r08543048/miniconda3/share/psi4/basis/jun-cc-pvtz-jkfit.gbs 
    atoms 3-4, 6-8, 10-11, 13-15, 18-19, 21-23, 25-26, 28-30 entry H          line    70 file /home/r08543048/miniconda3/share/psi4/basis/jun-cc-pvtz-jkfit.gbs 
    atoms 5, 20                                              entry O          line   272 file /home/r08543048/miniconda3/share/psi4/basis/jun-cc-pvtz-jkfit.gbs 

  ==> Pre-Iterations <==

   -------------------------------------------------------
    Irrep   Nso     Nmo     Nalpha   Nbeta   Ndocc  Nsocc
   -------------------------------------------------------
     A        670     670       0       0       0       0
   -------------------------------------------------------
    Total     670     670      21      21      21       0
   -------------------------------------------------------

  ==> Integral Setup <==

  ==> DiskDFJK: Density-Fitted J/K Matrices <==

    J tasked:                  Yes
    K tasked:                  Yes
    wK tasked:                  No
    OpenMP threads:              1
    Integrals threads:           1
    Memory [MiB]:            15735
    Algorithm:                Core
    Integral Cache:           LOAD
    Schwarz Cutoff:          1E-12
    Fitting Condition:       1E-10

   => Auxiliary Basis Set <=

  Basis Set: (JUN-CC-PVTZ AUX)
    Blend: JUN-CC-PVTZ-JKFIT
    Number of shells: 490
    Number of basis function: 1550
    Number of Cartesian functions: 1860
    Spherical Harmonics?: true
    Max angular momentum: 4

  Minimum eigenvalue in the overlap matrix is 3.3566039394E-05.
  Using Symmetric Orthogonalization.

  SCF Guess: Superposition of Atomic Densities via on-the-fly atomic UHF.

  ==> Iterations <==

                           Total Energy        Delta E     RMS |[F,P]|

   @DF-RHF iter SAD:  -231.43696724811093   -2.31437e+02   0.00000e+00 
   @DF-RHF iter   1:  -232.00733467032126   -5.70367e-01   9.36442e-04 DIIS
   @DF-RHF iter   2:  -232.18130646476675   -1.73972e-01   5.05926e-04 DIIS
   @DF-RHF iter   3:  -232.23049232082906   -4.91859e-02   8.59910e-05 DIIS
   @DF-RHF iter   4:  -232.23326280579980   -2.77048e-03   2.95063e-05 DIIS
   @DF-RHF iter   5:  -232.23348693442119   -2.24129e-04   7.42301e-06 DIIS
   @DF-RHF iter   6:  -232.23350488818764   -1.79538e-05   1.65324e-06 DIIS
   @DF-RHF iter   7:  -232.23350617185793   -1.28367e-06   4.14713e-07 DIIS
   @DF-RHF iter   8:  -232.23350625315703   -8.12991e-08   1.31953e-07 DIIS
   @DF-RHF iter   9:  -232.23350626211956   -8.96253e-09   3.65085e-08 DIIS
   @DF-RHF iter  10:  -232.23350626292455   -8.04988e-10   8.67700e-09 DIIS
  Energy and wave function converged.


  ==> Post-Iterations <==

    Orbital Energies [Eh]
    ---------------------

    Doubly Occupied:                                                      

       1A    -20.556772     2A    -11.277111     3A    -11.225474  
       4A    -11.221379     5A    -11.205931     6A     -1.351408  
       7A     -1.062421     8A     -0.966993     9A     -0.861937  
      10A     -0.784637    11A     -0.678322    12A     -0.632319  
      13A     -0.620987    14A     -0.576995    15A     -0.554728  
      16A     -0.532692    17A     -0.506585    18A     -0.491152  
      19A     -0.469702    20A     -0.457444    21A     -0.425053  

    Virtual:                                                              

      22A      0.029343    23A      0.045181    24A      0.049130  
      25A      0.055300    26A      0.063130    27A      0.064934  
      28A      0.068695    29A      0.077954    30A      0.082590  
      31A      0.088729    32A      0.097189    33A      0.101011  
      34A      0.104246    35A      0.104726    36A      0.109621  
      37A      0.119403    38A      0.132381    39A      0.137692  
      40A      0.137892    41A      0.139021    42A      0.139288  
      43A      0.142704    44A      0.146884    45A      0.153841  
      46A      0.164458    47A      0.167209    48A      0.169913  
      49A      0.179351    50A      0.182289    51A      0.190936  
      52A      0.200004    53A      0.206844    54A      0.215752  
      55A      0.218651    56A      0.221842    57A      0.231951  
      58A      0.242849    59A      0.249812    60A      0.260723  
      61A      0.269582    62A      0.274665    63A      0.281239  
      64A      0.288685    65A      0.291405    66A      0.296364  
      67A      0.301504    68A      0.304875    69A      0.310472  
      70A      0.314334    71A      0.316576    72A      0.325141  
      73A      0.332740    74A      0.339174    75A      0.342188  
      76A      0.343842    77A      0.352819    78A      0.354272  
      79A      0.357880    80A      0.360357    81A      0.367348  
      82A      0.375276    83A      0.380538    84A      0.386482  
      85A      0.389870    86A      0.395277    87A      0.398888  
      88A      0.401507    89A      0.404376    90A      0.412314  
      91A      0.416590    92A      0.428607    93A      0.430834  
      94A      0.434050    95A      0.444502    96A      0.453264  
      97A      0.456711    98A      0.459155    99A      0.468274  
     100A      0.474728   101A      0.482126   102A      0.487465  
     103A      0.491056   104A      0.501828   105A      0.509297  
     106A      0.515313   107A      0.518687   108A      0.525437  
     109A      0.533113   110A      0.539433   111A      0.545643  
     112A      0.549229   113A      0.551056   114A      0.557178  
     115A      0.563675   116A      0.576359   117A      0.577798  
     118A      0.582957   119A      0.585388   120A      0.593794  
     121A      0.605365   122A      0.606492   123A      0.615419  
     124A      0.627056   125A      0.629433   126A      0.638679  
     127A      0.640385   128A      0.642413   129A      0.651338  
     130A      0.657032   131A      0.659971   132A      0.669076  
     133A      0.675630   134A      0.685149   135A      0.687687  
     136A      0.698509   137A      0.703157   138A      0.709255  
     139A      0.715265   140A      0.718922   141A      0.725780  
     142A      0.735133   143A      0.742658   144A      0.752670  
     145A      0.769091   146A      0.779845   147A      0.784850  
     148A      0.788007   149A      0.803305   150A      0.807963  
     151A      0.814320   152A      0.820330   153A      0.828108  
     154A      0.832263   155A      0.851468   156A      0.852215  
     157A      0.860658   158A      0.866408   159A      0.870262  
     160A      0.883932   161A      0.884827   162A      0.898001  
     163A      0.903305   164A      0.914887   165A      0.934408  
     166A      0.943249   167A      0.951439   168A      0.969495  
     169A      0.974478   170A      0.982102   171A      0.999562  
     172A      1.008929   173A      1.018029   174A      1.026809  
     175A      1.036304   176A      1.059823   177A      1.066207  
     178A      1.073110   179A      1.081165   180A      1.093426  
     181A      1.100850   182A      1.115976   183A      1.122558  
     184A      1.136143   185A      1.150360   186A      1.160637  
     187A      1.166181   188A      1.172570   189A      1.181302  
     190A      1.191511   191A      1.206342   192A      1.209000  
     193A      1.216691   194A      1.229302   195A      1.230632  
     196A      1.240534   197A      1.245744   198A      1.247582  
     199A      1.261280   200A      1.275641   201A      1.282705  
     202A      1.288703   203A      1.298553   204A      1.310667  
     205A      1.319469   206A      1.323648   207A      1.332743  
     208A      1.342498   209A      1.346653   210A      1.353979  
     211A      1.362119   212A      1.365933   213A      1.381766  
     214A      1.385673   215A      1.391345   216A      1.404205  
     217A      1.405052   218A      1.411229   219A      1.419525  
     220A      1.421852   221A      1.432994   222A      1.440015  
     223A      1.452245   224A      1.457266   225A      1.463326  
     226A      1.473030   227A      1.477776   228A      1.492575  
     229A      1.497702   230A      1.510296   231A      1.512820  
     232A      1.525134   233A      1.530478   234A      1.535821  
     235A      1.541640   236A      1.552185   237A      1.557558  
     238A      1.560098   239A      1.565736   240A      1.573312  
     241A      1.584120   242A      1.591013   243A      1.596353  
     244A      1.603729   245A      1.611666   246A      1.618786  
     247A      1.630711   248A      1.639140   249A      1.646816  
     250A      1.652937   251A      1.659054   252A      1.664652  
     253A      1.675250   254A      1.678987   255A      1.689717  
     256A      1.702680   257A      1.707879   258A      1.713045  
     259A      1.721866   260A      1.722408   261A      1.733921  
     262A      1.741323   263A      1.761585   264A      1.772262  
     265A      1.778590   266A      1.785864   267A      1.801126  
     268A      1.820939   269A      1.827447   270A      1.831124  
     271A      1.841785   272A      1.856650   273A      1.859635  
     274A      1.865806   275A      1.879540   276A      1.896895  
     277A      1.905713   278A      1.912933   279A      1.929855  
     280A      1.936219   281A      1.950616   282A      1.973385  
     283A      1.982119   284A      1.989222   285A      2.010221  
     286A      2.015971   287A      2.023671   288A      2.063256  
     289A      2.073874   290A      2.096542   291A      2.108069  
     292A      2.110281   293A      2.137019   294A      2.172250  
     295A      2.196411   296A      2.208294   297A      2.249193  
     298A      2.260624   299A      2.318522   300A      2.335757  
     301A      2.357176   302A      2.395691   303A      2.414731  
     304A      2.437908   305A      2.460760   306A      2.470416  
     307A      2.487296   308A      2.494252   309A      2.519921  
     310A      2.539669   311A      2.561604   312A      2.580594  
     313A      2.589922   314A      2.601648   315A      2.642433  
     316A      2.695157   317A      2.756832   318A      2.794128  
     319A      2.810394   320A      2.818362   321A      2.820624  
     322A      2.838004   323A      2.875119   324A      2.895101  
     325A      2.905497   326A      2.926963   327A      2.937101  
     328A      2.954743   329A      2.975430   330A      2.992267  
     331A      3.013759   332A      3.032167   333A      3.045522  
     334A      3.050432   335A      3.063749   336A      3.085407  
     337A      3.093250   338A      3.114008   339A      3.118782  
     340A      3.138215   341A      3.166555   342A      3.180374  
     343A      3.202031   344A      3.213085   345A      3.245712  
     346A      3.265976   347A      3.291678   348A      3.308876  
     349A      3.331194   350A      3.340635   351A      3.374744  
     352A      3.393123   353A      3.403917   354A      3.421448  
     355A      3.431287   356A      3.438450   357A      3.447206  
     358A      3.458147   359A      3.461181   360A      3.479412  
     361A      3.482891   362A      3.494673   363A      3.500894  
     364A      3.509616   365A      3.514065   366A      3.525097  
     367A      3.535545   368A      3.552060   369A      3.564594  
     370A      3.573263   371A      3.575221   372A      3.584804  
     373A      3.592162   374A      3.593975   375A      3.600985  
     376A      3.610452   377A      3.632532   378A      3.636689  
     379A      3.654990   380A      3.661642   381A      3.671318  
     382A      3.681948   383A      3.693253   384A      3.707472  
     385A      3.723907   386A      3.729012   387A      3.740236  
     388A      3.744099   389A      3.761618   390A      3.772353  
     391A      3.779187   392A      3.787780   393A      3.794443  
     394A      3.806561   395A      3.810204   396A      3.818730  
     397A      3.831524   398A      3.839522   399A      3.850246  
     400A      3.854545   401A      3.866849   402A      3.876983  
     403A      3.893918   404A      3.898505   405A      3.915125  
     406A      3.917316   407A      3.926620   408A      3.926806  
     409A      3.942368   410A      3.949124   411A      3.965428  
     412A      3.978701   413A      3.983797   414A      3.991512  
     415A      3.997105   416A      4.013468   417A      4.017217  
     418A      4.061856   419A      4.072240   420A      4.091180  
     421A      4.100565   422A      4.116998   423A      4.124592  
     424A      4.130862   425A      4.142445   426A      4.143272  
     427A      4.162224   428A      4.172705   429A      4.181551  
     430A      4.201755   431A      4.206227   432A      4.220978  
     433A      4.234581   434A      4.243914   435A      4.258935  
     436A      4.262482   437A      4.272015   438A      4.287287  
     439A      4.301543   440A      4.308082   441A      4.334482  
     442A      4.339317   443A      4.346345   444A      4.359127  
     445A      4.372710   446A      4.383597   447A      4.386893  
     448A      4.395946   449A      4.409130   450A      4.413593  
     451A      4.421451   452A      4.427582   453A      4.432289  
     454A      4.447041   455A      4.467227   456A      4.473343  
     457A      4.487502   458A      4.492575   459A      4.496926  
     460A      4.504682   461A      4.509149   462A      4.513487  
     463A      4.534401   464A      4.536374   465A      4.542744  
     466A      4.553941   467A      4.561024   468A      4.574663  
     469A      4.583488   470A      4.591063   471A      4.596879  
     472A      4.610237   473A      4.615907   474A      4.621632  
     475A      4.626909   476A      4.640485   477A      4.647904  
     478A      4.657425   479A      4.664028   480A      4.666689  
     481A      4.685967   482A      4.688967   483A      4.698020  
     484A      4.710474   485A      4.722145   486A      4.723192  
     487A      4.731516   488A      4.737703   489A      4.752655  
     490A      4.758215   491A      4.768010   492A      4.782052  
     493A      4.791030   494A      4.801621   495A      4.807182  
     496A      4.817215   497A      4.824852   498A      4.827027  
     499A      4.833364   500A      4.842638   501A      4.848554  
     502A      4.870760   503A      4.874239   504A      4.894158  
     505A      4.897892   506A      4.900516   507A      4.904798  
     508A      4.912487   509A      4.923521   510A      4.941682  
     511A      4.948608   512A      4.950803   513A      4.953741  
     514A      4.981289   515A      4.984208   516A      4.999766  
     517A      5.003614   518A      5.011250   519A      5.021552  
     520A      5.030632   521A      5.036562   522A      5.045321  
     523A      5.050915   524A      5.054039   525A      5.065595  
     526A      5.087180   527A      5.096811   528A      5.120052  
     529A      5.121347   530A      5.132471   531A      5.145137  
     532A      5.171025   533A      5.176195   534A      5.177028  
     535A      5.198154   536A      5.203125   537A      5.222664  
     538A      5.227796   539A      5.240361   540A      5.247447  
     541A      5.267455   542A      5.283521   543A      5.298376  
     544A      5.314973   545A      5.321389   546A      5.335216  
     547A      5.347945   548A      5.357326   549A      5.373790  
     550A      5.381922   551A      5.403415   552A      5.411972  
     553A      5.425954   554A      5.455334   555A      5.465041  
     556A      5.480051   557A      5.518864   558A      5.537233  
     559A      5.546438   560A      5.566608   561A      5.576452  
     562A      5.587655   563A      5.615488   564A      5.623614  
     565A      5.637104   566A      5.652629   567A      5.672673  
     568A      5.685255   569A      5.725966   570A      5.733901  
     571A      5.737623   572A      5.757062   573A      5.772930  
     574A      5.776645   575A      5.797879   576A      5.817786  
     577A      5.831093   578A      5.836161   579A      5.880075  
     580A      5.893429   581A      5.906217   582A      5.914766  
     583A      5.930327   584A      5.951493   585A      5.987397  
     586A      6.032817   587A      6.042931   588A      6.070137  
     589A      6.103878   590A      6.115612   591A      6.154409  
     592A      6.178135   593A      6.180999   594A      6.220445  
     595A      6.263090   596A      6.306929   597A      6.357448  
     598A      6.367025   599A      6.379119   600A      6.416049  
     601A      6.433007   602A      6.450105   603A      6.476267  
     604A      6.507552   605A      6.516704   606A      6.527065  
     607A      6.557334   608A      6.567036   609A      6.577686  
     610A      6.626978   611A      6.717258   612A      6.789661  
     613A      6.850342   614A      6.906068   615A      6.944653  
     616A      6.984837   617A      7.059081   618A      7.093915  
     619A      7.215967   620A      7.243565   621A      7.320072  
     622A      7.367495   623A      7.376025   624A      7.408700  
     625A      7.421005   626A      7.524797   627A      7.539217  
     628A      7.587213   629A      7.624702   630A      7.640432  
     631A      7.658853   632A      7.693316   633A      7.719275  
     634A      7.744607   635A      7.765020   636A      7.780390  
     637A      7.844799   638A      7.862635   639A      7.911858  
     640A      7.955671   641A      8.057913   642A      8.202129  
     643A      8.245361   644A      8.307037   645A      8.356517  
     646A      8.536237   647A      8.706227   648A      9.435871  
     649A      9.515285   650A      9.555405   651A      9.818247  
     652A      9.839247   653A      9.909009   654A     10.039242  
     655A     10.132314   656A     10.323607   657A     11.266233  
     658A     11.741664   659A     12.711874   660A     13.404390  
     661A     13.520706   662A     13.570473   663A     13.886989  
     664A     14.030262   665A     14.490049   666A     43.406194  
     667A     43.973230   668A     45.136212   669A     45.300864  
     670A     61.504721  

    Final Occupation by Irrep:
              A 
    DOCC [    21 ]

  @DF-RHF Final Energy:  -232.23350626292455

   => Energetics <=

    Nuclear Repulsion Energy =            190.8147616407173928
    One-Electron Energy =                -693.1764463178255937
    Two-Electron Energy =                 270.1281784141836511
    Total Energy =                       -232.2335062629245499

Computation Completed


Properties will be evaluated at   0.000000,   0.000000,   0.000000 [a0]

Properties computed using the SCF density matrix

  Nuclear Dipole Moment: [e a0]
     X:  -164.6606      Y:     3.1463      Z:    15.9501

  Electronic Dipole Moment: [e a0]
     X:   164.5044      Y:    -3.4703      Z:   -16.5444

  Dipole Moment: [e a0]
     X:    -0.1562      Y:    -0.3239      Z:    -0.5942     Total:     0.6946

  Dipole Moment: [D]
     X:    -0.3970      Y:    -0.8233      Z:    -1.5104     Total:     1.7655


*** tstop() called on r282 at Thu Sep  9 09:46:42 2021
Module time:
	user time   =     108.81 seconds =       1.81 minutes
	system time =       1.39 seconds =       0.02 minutes
	total time  =        111 seconds =       1.85 minutes
Total time:
	user time   =     411.56 seconds =       6.86 minutes
	system time =       7.22 seconds =       0.12 minutes
	total time  =        419 seconds =       6.98 minutes
  Constructing Basis Sets for SAPT...

   => Loading Basis Set <=

    Name: (JUN-CC-PVTZ AUX)
    Role: RIFIT
    Keyword: DF_BASIS_SAPT
    atoms 1-2, 9, 12, 16-17, 24, 27                          entry C          line   132 file /home/r08543048/miniconda3/share/psi4/basis/jun-cc-pvtz-ri.gbs 
    atoms 3-4, 6-8, 10-11, 13-15, 18-19, 21-23, 25-26, 28-30 entry H          line    30 file /home/r08543048/miniconda3/share/psi4/basis/jun-cc-pvtz-ri.gbs 
    atoms 5, 20                                              entry O          line   244 file /home/r08543048/miniconda3/share/psi4/basis/jun-cc-pvtz-ri.gbs 


  //>>>>>>>>>>>>>>>>>>>>>>>>>>>>>>>>>>>//
  //               SAPT0               //
  //<<<<<<<<<<<<<<<<<<<<<<<<<<<<<<<<<<<//


*** tstart() called on r282
*** at Thu Sep  9 09:46:42 2021

        SAPT0  
    Ed Hohenstein
     6 June 2009

      Orbital Information
  --------------------------
    NSO        =       670
    NMO        =       670
    NRI        =      1570
    NOCC A     =        21
    NOCC B     =        21
    FOCC A     =         5
    FOCC B     =         5
    NVIR A     =       649
    NVIR B     =       649

    Elst10,r            =    -0.014990723137 [Eh]
    Exch10              =     0.015764474010 [Eh]
    Exch10 (S^2)        =     0.015664833082 [Eh]

    Iter     Energy [mEh]          dE [mEh]         Residual      Time [s]
       1      -3.03714369       3.037143689      10.994894917             2
       2      -3.74278899       0.705645302       5.283167082             5
       3      -3.87426093       0.131471936       1.308687278             7
       4      -3.86167649      -0.012584441       0.386114745            10
       5      -3.85513143      -0.006545053       0.093554257            12
       6      -3.85568469       0.000553258       0.033763220            15
       7      -3.85622530       0.000540612       0.007634303            17
       8      -3.85614441      -0.000080890       0.001966542            20
       9      -3.85613103      -0.000013385       0.000482796            22
      10      -3.85613586       0.000004835       0.000135113            25
      11      -3.85613646       0.000000593       0.000036531            27
      12      -3.85613616      -0.000000295       0.000010263            30
      13      -3.85613615      -0.000000016       0.000002735            32
      14      -3.85613616       0.000000019       0.000000776            35

    CHF Iterations converged


    Iter     Energy [mEh]          dE [mEh]         Residual      Time [s]
       1      -2.28952015       2.289520155       6.815459417             2
       2      -2.58874494       0.299224788       2.250669463             5
       3      -2.63335606       0.044611121       0.664829190             7
       4      -2.62946658      -0.003889489       0.260984850            10
       5      -2.62464439      -0.004822181       0.060098001            12
       6      -2.62513062       0.000486230       0.018548680            15
       7      -2.62541082       0.000280197       0.004687378            17
       8      -2.62536869      -0.000042137       0.001498849            20
       9      -2.62535570      -0.000012985       0.000405938            22
      10      -2.62536018       0.000004484       0.000129242            25
      11      -2.62536067       0.000000487       0.000039649            27
      12      -2.62536024      -0.000000428       0.000008661            30
      13      -2.62536028       0.000000039       0.000001965            32
      14      -2.62536029       0.000000007       0.000000520            35

    CHF Iterations converged

    Ind20,r (A<-B)      =    -0.003856136164 [Eh]
    Ind20,r (B<-A)      =    -0.002625360290 [Eh]
    Ind20,r             =    -0.006481496454 [Eh]
    Exch-Ind20,r (A<-B) =     0.001826072760 [Eh]
    Exch-Ind20,r (B<-A) =     0.001868017470 [Eh]
    Exch-Ind20,r        =     0.003694090230 [Eh]
    Disp20              =    -0.011105015753 [Eh]
    Disp20 (SS)         =    -0.005552507877 [Eh]
    Disp20 (OS)         =    -0.005552507877 [Eh]
    Exch-Disp20         =     0.001315357677 [Eh]
    Exch-Disp20 (SS)    =     0.000836099621 [Eh]
    Exch-Disp20 (OS)    =     0.000479258056 [Eh]

    SAPT Results 
  --------------------------------------------------------------------------------------------------------
    Electrostatics                -14.99072314 [mEh]      -9.40682079 [kcal/mol]     -39.35813817 [kJ/mol]
      Elst10,r                    -14.99072314 [mEh]      -9.40682079 [kcal/mol]     -39.35813817 [kJ/mol]

    Exchange                       15.76447401 [mEh]       9.89235679 [kcal/mol]      41.38962081 [kJ/mol]
      Exch10                       15.76447401 [mEh]       9.89235679 [kcal/mol]      41.38962081 [kJ/mol]
      Exch10(S^2)                  15.66483308 [mEh]       9.82983116 [kcal/mol]      41.12801359 [kJ/mol]

    Induction                      -4.84049567 [mEh]      -3.03745689 [kcal/mol]     -12.70871962 [kJ/mol]
      Ind20,r                      -6.48149645 [mEh]      -4.06720043 [kcal/mol]     -17.01716660 [kJ/mol]
      Exch-Ind20,r                  3.69409023 [mEh]       2.31807662 [kcal/mol]       9.69883256 [kJ/mol]
      delta HF,r (2)               -2.05308944 [mEh]      -1.28833308 [kcal/mol]      -5.39038559 [kJ/mol]

    Dispersion                     -9.78965808 [mEh]      -6.14310319 [kcal/mol]     -25.70274374 [kJ/mol]
      Disp20                      -11.10501575 [mEh]      -6.96850259 [kcal/mol]     -29.15621484 [kJ/mol]
      Exch-Disp20                   1.31535768 [mEh]       0.82539940 [kcal/mol]       3.45347111 [kJ/mol]
      Disp20 (SS)                  -5.55250788 [mEh]      -3.48425130 [kcal/mol]     -14.57810742 [kJ/mol]
      Disp20 (OS)                  -5.55250788 [mEh]      -3.48425130 [kcal/mol]     -14.57810742 [kJ/mol]
      Exch-Disp20 (SS)              0.83609962 [mEh]       0.52466043 [kcal/mol]       2.19517925 [kJ/mol]
      Exch-Disp20 (OS)              0.47925806 [mEh]       0.30073897 [kcal/mol]       1.25829185 [kJ/mol]

  Total HF                         -4.06674479 [mEh]      -2.55192089 [kcal/mol]     -10.67723699 [kJ/mol]
  Total SAPT0                     -13.85640287 [mEh]      -8.69502407 [kcal/mol]     -36.37998073 [kJ/mol]

  Special recipe for scaled SAPT0 (see Manual):
    Electrostatics sSAPT0         -14.99072314 [mEh]      -9.40682079 [kcal/mol]     -39.35813817 [kJ/mol]
    Exchange sSAPT0                15.76447401 [mEh]       9.89235679 [kcal/mol]      41.38962081 [kJ/mol]
    Induction sSAPT0               -4.76955418 [mEh]      -2.99294043 [kcal/mol]     -12.52246278 [kJ/mol]
    Dispersion sSAPT0              -9.76439788 [mEh]      -6.12725218 [kcal/mol]     -25.63642311 [kJ/mol]
  Total sSAPT0                    -13.76020119 [mEh]      -8.63465661 [kcal/mol]     -36.12740326 [kJ/mol]
  --------------------------------------------------------------------------------------------------------

*** tstop() called on r282 at Thu Sep  9 09:52:01 2021
Module time:
	user time   =     279.95 seconds =       4.67 minutes
	system time =      38.40 seconds =       0.64 minutes
	total time  =        319 seconds =       5.32 minutes
Total time:
	user time   =     691.70 seconds =      11.53 minutes
	system time =      45.62 seconds =       0.76 minutes
	total time  =        738 seconds =      12.30 minutes

    Psi4 stopped on: Thursday, 09 September 2021 09:52AM
    Psi4 wall time for execution: 0:12:18.13

*** Psi4 exiting successfully. Buy a developer a beer!
