
    -----------------------------------------------------------------------
          Psi4: An Open-Source Ab Initio Electronic Structure Package
                               Psi4 1.3.2 release

                         Git: Rev {HEAD} ecbda83 


    R. M. Parrish, L. A. Burns, D. G. A. Smith, A. C. Simmonett,
    A. E. DePrince III, E. G. Hohenstein, U. Bozkaya, A. Yu. Sokolov,
    R. Di Remigio, R. M. Richard, J. F. Gonthier, A. M. James,
    H. R. McAlexander, A. Kumar, M. Saitow, X. Wang, B. P. Pritchard,
    P. Verma, H. F. Schaefer III, K. Patkowski, R. A. King, E. F. Valeev,
    F. A. Evangelista, J. M. Turney, T. D. Crawford, and C. D. Sherrill,
    J. Chem. Theory Comput. 13(7) pp 3185--3197 (2017).
    (doi: 10.1021/acs.jctc.7b00174)


                         Additional Contributions by
    P. Kraus, H. Kruse, M. H. Lechner, M. C. Schieber, R. A. Shaw,
    A. Alenaizan, R. Galvelis, Z. L. Glick, S. Lehtola, and J. P. Misiewicz

    -----------------------------------------------------------------------


    Psi4 started on: Friday, 10 September 2021 11:56AM

    Process ID: 56577
    Host:       r282
    PSIDATADIR: /home/r08543048/miniconda3/share/psi4
    Memory:     500.0 MiB
    Threads:    1
    
  ==> Input File <==

--------------------------------------------------------------------------
# Any line starting with the # character is a comment line
#! Sample  computation

memory 22 gb

molecule Dimer {
0 1
 C  1.813988   -0.516643   -0.787107
 C  1.472582   -1.432045    0.381814
 H  0.922956   -0.397513   -1.412812
 H  2.555942   -1.034949   -1.402208
 O  0.322265   -1.027938    1.114959
 H  2.298452   -1.438855    1.095901
 H  1.346557   -2.456486    0.016128
 H -0.447842   -1.145460    0.534660
 C  2.369982    0.851234   -0.395338
 H  2.754860    1.340475   -1.293483
 H  3.230366    0.701498    0.263390
 C  1.365782    1.778056    0.283111
 H  0.501777    1.945145   -0.363187
 H  1.815772    2.749170    0.491465
 H  1.003725    1.351722    1.215434
    
    
    
 --
0 1
 C -2.550956    1.014656    0.604778
 C -2.331537    0.310068   -0.717338
 O -2.016267   -1.080311   -0.545504
 H -3.411090    0.595387    1.128658
 H -2.743351    2.074947    0.439073
 H -1.671519    0.912333    1.238333
 H -3.201779    0.412608   -1.369297
 H -1.472624    0.728080   -1.238724
 H -2.769230   -1.504068   -0.118509










units angstrom

no_reorient
symmetry c1
}

set globals{
  basis jun-cc-pvtz
}

energy('sapt0')


--------------------------------------------------------------------------

  Memory set to  20.489 GiB by Python driver.

  //>>>>>>>>>>>>>>>>>>>>>>>>>>>>>>>>>>>//
  //              Dimer HF             //
  //<<<<<<<<<<<<<<<<<<<<<<<<<<<<<<<<<<<//


*** tstart() called on r282
*** at Fri Sep 10 11:56:02 2021

   => Loading Basis Set <=

    Name: JUN-CC-PVTZ
    Role: ORBITAL
    Keyword: BASIS
    atoms 1-2, 9, 12, 16-17             entry C          line   217 file /home/r08543048/miniconda3/share/psi4/basis/jun-cc-pvtz.gbs 
    atoms 3-4, 6-8, 10-11, 13-15, 19-24 entry H          line    36 file /home/r08543048/miniconda3/share/psi4/basis/jun-cc-pvtz.gbs 
    atoms 5, 18                         entry O          line   305 file /home/r08543048/miniconda3/share/psi4/basis/jun-cc-pvtz.gbs 


         ---------------------------------------------------------
                                   SCF
               by Justin Turney, Rob Parrish, Andy Simmonett
                          and Daniel G. A. Smith
                              RHF Reference
                        1 Threads,  20980 MiB Core
         ---------------------------------------------------------

  ==> Geometry <==

    Molecular point group: c1
    Full point group: C1

    Geometry (in Angstrom), charge = 0, multiplicity = 1:

       Center              X                  Y                   Z               Mass       
    ------------   -----------------  -----------------  -----------------  -----------------
         C            1.819805542800    -0.476802105070    -0.793485721409    12.000000000000
         C            1.478399542800    -1.392204105070     0.375435278591    12.000000000000
         H            0.928773542800    -0.357672105070    -1.419190721409     1.007825032230
         H            2.561759542800    -0.995108105070    -1.408586721409     1.007825032230
         O            0.328082542800    -0.988097105070     1.108580278591    15.994914619570
         H            2.304269542800    -1.399014105070     1.089522278591     1.007825032230
         H            1.352374542800    -2.416645105070     0.009749278591     1.007825032230
         H           -0.442024457200    -1.105619105070     0.528281278591     1.007825032230
         C            2.375799542800     0.891074894930    -0.401716721409    12.000000000000
         H            2.760677542800     1.380315894930    -1.299861721409     1.007825032230
         H            3.236183542800     0.741338894930     0.257011278591     1.007825032230
         C            1.371599542800     1.817896894930     0.276732278591    12.000000000000
         H            0.507594542800     1.984985894930    -0.369565721409     1.007825032230
         H            1.821589542800     2.789010894930     0.485086278591     1.007825032230
         H            1.009542542800     1.391562894930     1.209055278591     1.007825032230
         C           -2.545138457200     1.054496894930     0.598399278591    12.000000000000
         C           -2.325719457200     0.349908894930    -0.723716721409    12.000000000000
         O           -2.010449457200    -1.040470105070    -0.551882721409    15.994914619570
         H           -3.405272457200     0.635227894930     1.122279278591     1.007825032230
         H           -2.737533457200     2.114787894930     0.432694278591     1.007825032230
         H           -1.665701457200     0.952173894930     1.231954278591     1.007825032230
         H           -3.195961457200     0.452448894930    -1.375675721409     1.007825032230
         H           -1.466806457200     0.767920894930    -1.245102721409     1.007825032230
         H           -2.763412457200    -1.464227105070    -0.124887721409     1.007825032230

  Running in c1 symmetry.

  Rotational constants: A =      0.07632  B =      0.03318  C =      0.02793 [cm^-1]
  Rotational constants: A =   2287.88095  B =    994.77682  C =    837.46422 [MHz]
  Nuclear repulsion =  414.834962007734987

  Charge       = 0
  Multiplicity = 1
  Electrons    = 68
  Nalpha       = 34
  Nbeta        = 34

  ==> Algorithm <==

  SCF Algorithm Type is DF.
  DIIS enabled.
  MOM disabled.
  Fractional occupation disabled.
  Guess Type is SAD.
  Energy threshold   = 1.00e-08
  Density threshold  = 1.00e-08
  Integral threshold = 0.00e+00

  ==> Primary Basis <==

  Basis Set: JUN-CC-PVTZ
    Blend: JUN-CC-PVTZ
    Number of shells: 200
    Number of basis function: 536
    Number of Cartesian functions: 600
    Spherical Harmonics?: true
    Max angular momentum: 3

   => Loading Basis Set <=

    Name: (JUN-CC-PVTZ AUX)
    Role: JKFIT
    Keyword: DF_BASIS_SCF
    atoms 1-2, 9, 12, 16-17             entry C          line   152 file /home/r08543048/miniconda3/share/psi4/basis/jun-cc-pvtz-jkfit.gbs 
    atoms 3-4, 6-8, 10-11, 13-15, 19-24 entry H          line    70 file /home/r08543048/miniconda3/share/psi4/basis/jun-cc-pvtz-jkfit.gbs 
    atoms 5, 18                         entry O          line   272 file /home/r08543048/miniconda3/share/psi4/basis/jun-cc-pvtz-jkfit.gbs 

  ==> Pre-Iterations <==

   -------------------------------------------------------
    Irrep   Nso     Nmo     Nalpha   Nbeta   Ndocc  Nsocc
   -------------------------------------------------------
     A        536     536       0       0       0       0
   -------------------------------------------------------
    Total     536     536      34      34      34       0
   -------------------------------------------------------

  ==> Integral Setup <==

  ==> DiskDFJK: Density-Fitted J/K Matrices <==

    J tasked:                  Yes
    K tasked:                  Yes
    wK tasked:                  No
    OpenMP threads:              1
    Integrals threads:           1
    Memory [MiB]:            15735
    Algorithm:                Core
    Integral Cache:           SAVE
    Schwarz Cutoff:          1E-12
    Fitting Condition:       1E-10

   => Auxiliary Basis Set <=

  Basis Set: (JUN-CC-PVTZ AUX)
    Blend: JUN-CC-PVTZ-JKFIT
    Number of shells: 392
    Number of basis function: 1240
    Number of Cartesian functions: 1488
    Spherical Harmonics?: true
    Max angular momentum: 4

  Minimum eigenvalue in the overlap matrix is 4.4130600293E-05.
  Using Symmetric Orthogonalization.

  SCF Guess: Superposition of Atomic Densities via on-the-fly atomic UHF.

  ==> Iterations <==

                           Total Energy        Delta E     RMS |[F,P]|

   @DF-RHF iter SAD:  -385.17495926442552   -3.85175e+02   0.00000e+00 
   @DF-RHF iter   1:  -386.03521452125813   -8.60255e-01   1.47478e-03 DIIS
   @DF-RHF iter   2:  -386.31032987803354   -2.75115e-01   7.60344e-04 DIIS
   @DF-RHF iter   3:  -386.37954175736388   -6.92119e-02   1.35325e-04 DIIS
   @DF-RHF iter   4:  -386.38379178550576   -4.25003e-03   4.33855e-05 DIIS
   @DF-RHF iter   5:  -386.38412057558088   -3.28790e-04   1.11623e-05 DIIS
   @DF-RHF iter   6:  -386.38414657219909   -2.59966e-05   2.75220e-06 DIIS
   @DF-RHF iter   7:  -386.38414866241931   -2.09022e-06   7.20486e-07 DIIS
   @DF-RHF iter   8:  -386.38414881141045   -1.48991e-07   2.26519e-07 DIIS
   @DF-RHF iter   9:  -386.38414882845467   -1.70442e-08   6.07971e-08 DIIS
   @DF-RHF iter  10:  -386.38414882976667   -1.31200e-09   1.83599e-08 DIIS
   @DF-RHF iter  11:  -386.38414882985847   -9.18021e-11   6.45538e-09 DIIS
  Energy and wave function converged.


  ==> Post-Iterations <==

    Orbital Energies [Eh]
    ---------------------

    Doubly Occupied:                                                      

       1A    -20.576448     2A    -20.526584     3A    -11.285872  
       4A    -11.256091     5A    -11.220868     6A    -11.209592  
       7A    -11.208359     8A    -11.197323     9A     -1.376224  
      10A     -1.331420    11A     -1.058608    12A     -1.022958  
      13A     -0.961655    14A     -0.858847    15A     -0.855114  
      16A     -0.779980    17A     -0.706271    18A     -0.664306  
      19A     -0.635428    20A     -0.627365    21A     -0.617660  
      22A     -0.610897    23A     -0.571396    24A     -0.558674  
      25A     -0.547110    26A     -0.533280    27A     -0.523261  
      28A     -0.497467    29A     -0.493384    30A     -0.483746  
      31A     -0.463372    32A     -0.461063    33A     -0.445098  
      34A     -0.408234  

    Virtual:                                                              

      35A      0.049741    36A      0.054600    37A      0.058101  
      38A      0.060601    39A      0.071845    40A      0.074224  
      41A      0.077906    42A      0.093204    43A      0.094046  
      44A      0.106208    45A      0.113076    46A      0.115181  
      47A      0.117635    48A      0.120368    49A      0.135759  
      50A      0.142053    51A      0.150645    52A      0.153347  
      53A      0.165635    54A      0.169538    55A      0.186254  
      56A      0.191648    57A      0.203512    58A      0.213568  
      59A      0.218631    60A      0.223599    61A      0.233800  
      62A      0.240418    63A      0.249287    64A      0.255920  
      65A      0.268065    66A      0.271379    67A      0.274919  
      68A      0.278970    69A      0.293273    70A      0.297519  
      71A      0.298666    72A      0.305405    73A      0.315727  
      74A      0.317012    75A      0.320921    76A      0.326908  
      77A      0.330344    78A      0.335857    79A      0.350553  
      80A      0.351748    81A      0.358370    82A      0.361329  
      83A      0.363356    84A      0.371650    85A      0.384535  
      86A      0.389639    87A      0.397887    88A      0.399198  
      89A      0.406877    90A      0.414404    91A      0.418167  
      92A      0.424792    93A      0.438176    94A      0.440907  
      95A      0.447349    96A      0.456591    97A      0.469897  
      98A      0.474067    99A      0.479236   100A      0.492949  
     101A      0.498341   102A      0.507639   103A      0.513277  
     104A      0.528000   105A      0.530284   106A      0.535982  
     107A      0.542410   108A      0.545481   109A      0.552763  
     110A      0.562414   111A      0.568248   112A      0.581473  
     113A      0.583432   114A      0.590324   115A      0.595028  
     116A      0.608154   117A      0.624553   118A      0.635967  
     119A      0.645193   120A      0.646177   121A      0.659714  
     122A      0.675797   123A      0.695951   124A      0.700265  
     125A      0.700652   126A      0.706346   127A      0.709329  
     128A      0.728790   129A      0.732814   130A      0.736439  
     131A      0.743568   132A      0.762159   133A      0.774125  
     134A      0.781815   135A      0.784628   136A      0.790799  
     137A      0.806209   138A      0.808298   139A      0.810697  
     140A      0.826307   141A      0.835470   142A      0.843777  
     143A      0.856195   144A      0.863576   145A      0.867675  
     146A      0.873091   147A      0.881007   148A      0.886088  
     149A      0.897105   150A      0.904225   151A      0.912317  
     152A      0.918562   153A      0.922867   154A      0.934747  
     155A      0.938196   156A      0.953756   157A      0.976229  
     158A      0.988724   159A      0.993219   160A      1.007271  
     161A      1.018429   162A      1.021268   163A      1.030071  
     164A      1.034938   165A      1.051824   166A      1.076987  
     167A      1.098574   168A      1.110026   169A      1.117366  
     170A      1.128909   171A      1.150944   172A      1.160617  
     173A      1.177112   174A      1.182894   175A      1.207937  
     176A      1.214886   177A      1.234315   178A      1.238500  
     179A      1.255395   180A      1.265814   181A      1.273204  
     182A      1.284988   183A      1.299674   184A      1.309171  
     185A      1.324357   186A      1.335778   187A      1.343209  
     188A      1.352417   189A      1.369271   190A      1.382650  
     191A      1.389397   192A      1.398060   193A      1.404949  
     194A      1.411124   195A      1.426025   196A      1.434894  
     197A      1.445942   198A      1.450372   199A      1.459240  
     200A      1.470444   201A      1.485804   202A      1.492964  
     203A      1.496875   204A      1.500862   205A      1.518126  
     206A      1.524663   207A      1.528550   208A      1.545052  
     209A      1.551360   210A      1.563183   211A      1.577199  
     212A      1.585986   213A      1.595052   214A      1.599098  
     215A      1.612168   216A      1.622273   217A      1.640867  
     218A      1.643802   219A      1.644583   220A      1.656565  
     221A      1.665271   222A      1.685634   223A      1.694606  
     224A      1.704977   225A      1.709719   226A      1.716328  
     227A      1.727811   228A      1.734067   229A      1.741980  
     230A      1.756820   231A      1.761556   232A      1.780626  
     233A      1.797288   234A      1.817315   235A      1.831758  
     236A      1.843633   237A      1.857740   238A      1.872234  
     239A      1.888851   240A      1.897478   241A      1.915380  
     242A      1.917828   243A      1.930479   244A      1.946330  
     245A      1.960839   246A      1.982577   247A      1.999358  
     248A      2.007609   249A      2.049515   250A      2.103053  
     251A      2.112161   252A      2.145603   253A      2.222049  
     254A      2.319275   255A      2.343995   256A      2.401317  
     257A      2.415754   258A      2.448557   259A      2.502367  
     260A      2.504678   261A      2.551836   262A      2.619462  
     263A      2.620725   264A      2.660455   265A      2.781365  
     266A      2.801631   267A      2.810978   268A      2.819753  
     269A      2.828433   270A      2.837151   271A      2.854251  
     272A      2.884711   273A      2.886084   274A      2.898591  
     275A      2.918904   276A      2.937206   277A      2.938603  
     278A      2.954097   279A      2.967231   280A      2.996139  
     281A      3.009857   282A      3.028102   283A      3.050188  
     284A      3.061219   285A      3.069514   286A      3.095356  
     287A      3.104063   288A      3.109792   289A      3.121183  
     290A      3.133613   291A      3.170231   292A      3.178615  
     293A      3.198475   294A      3.204362   295A      3.226778  
     296A      3.233591   297A      3.245815   298A      3.260997  
     299A      3.273506   300A      3.287698   301A      3.293964  
     302A      3.306124   303A      3.320100   304A      3.333615  
     305A      3.345824   306A      3.364629   307A      3.376706  
     308A      3.396683   309A      3.402376   310A      3.411410  
     311A      3.426138   312A      3.432975   313A      3.437565  
     314A      3.446261   315A      3.457803   316A      3.461485  
     317A      3.463600   318A      3.469679   319A      3.479181  
     320A      3.494543   321A      3.498029   322A      3.509328  
     323A      3.517227   324A      3.522096   325A      3.531021  
     326A      3.544721   327A      3.554718   328A      3.556074  
     329A      3.574162   330A      3.581129   331A      3.586938  
     332A      3.605283   333A      3.609399   334A      3.614361  
     335A      3.628117   336A      3.644546   337A      3.652690  
     338A      3.659049   339A      3.687453   340A      3.698846  
     341A      3.717429   342A      3.729578   343A      3.756606  
     344A      3.762591   345A      3.775708   346A      3.783034  
     347A      3.798958   348A      3.801889   349A      3.808113  
     350A      3.821144   351A      3.830223   352A      3.834484  
     353A      3.844947   354A      3.870305   355A      3.882219  
     356A      3.896465   357A      3.913451   358A      3.934696  
     359A      3.944015   360A      3.948130   361A      3.965565  
     362A      3.975125   363A      3.981767   364A      3.990414  
     365A      4.003233   366A      4.027256   367A      4.039856  
     368A      4.057852   369A      4.080355   370A      4.097397  
     371A      4.113871   372A      4.124527   373A      4.146257  
     374A      4.161731   375A      4.186048   376A      4.201539  
     377A      4.216197   378A      4.220319   379A      4.232984  
     380A      4.246712   381A      4.259252   382A      4.263916  
     383A      4.269140   384A      4.283459   385A      4.288107  
     386A      4.298827   387A      4.316801   388A      4.321318  
     389A      4.335494   390A      4.350188   391A      4.360965  
     392A      4.365086   393A      4.388837   394A      4.404911  
     395A      4.407150   396A      4.411498   397A      4.424608  
     398A      4.429975   399A      4.436488   400A      4.443843  
     401A      4.470219   402A      4.474485   403A      4.489901  
     404A      4.500575   405A      4.501547   406A      4.507145  
     407A      4.526605   408A      4.529452   409A      4.532302  
     410A      4.544927   411A      4.564161   412A      4.582259  
     413A      4.591462   414A      4.600044   415A      4.608255  
     416A      4.632393   417A      4.636377   418A      4.647735  
     419A      4.662912   420A      4.673352   421A      4.680811  
     422A      4.690973   423A      4.711953   424A      4.726089  
     425A      4.735772   426A      4.750394   427A      4.766505  
     428A      4.785443   429A      4.818627   430A      4.829464  
     431A      4.845584   432A      4.855200   433A      4.866306  
     434A      4.883379   435A      4.891102   436A      4.928254  
     437A      4.939423   438A      4.947490   439A      4.973116  
     440A      5.014514   441A      5.049662   442A      5.074159  
     443A      5.085241   444A      5.098876   445A      5.119449  
     446A      5.126480   447A      5.167724   448A      5.198475  
     449A      5.209473   450A      5.213018   451A      5.222658  
     452A      5.244526   453A      5.259323   454A      5.280662  
     455A      5.292719   456A      5.310161   457A      5.311716  
     458A      5.318882   459A      5.339567   460A      5.361102  
     461A      5.384857   462A      5.394095   463A      5.423026  
     464A      5.449235   465A      5.454526   466A      5.464241  
     467A      5.494583   468A      5.508991   469A      5.537276  
     470A      5.566466   471A      5.591435   472A      5.599150  
     473A      5.620607   474A      5.632964   475A      5.663306  
     476A      5.669633   477A      5.728072   478A      5.743361  
     479A      5.761516   480A      5.785003   481A      5.792252  
     482A      5.809605   483A      5.823679   484A      5.833168  
     485A      5.846065   486A      5.872384   487A      5.887587  
     488A      5.898716   489A      5.923239   490A      5.948471  
     491A      5.963157   492A      5.970377   493A      5.990137  
     494A      6.024047   495A      6.073577   496A      6.081825  
     497A      6.143069   498A      6.220494   499A      6.282523  
     500A      6.352613   501A      6.372624   502A      6.480848  
     503A      6.492785   504A      6.501921   505A      6.537982  
     506A      6.550529   507A      6.552892   508A      6.581159  
     509A      6.591744   510A      6.651231   511A      6.898437  
     512A      6.990549   513A      7.043143   514A      7.098847  
     515A      7.211574   516A      7.250574   517A      7.314590  
     518A      7.358958   519A      7.395947   520A      7.432562  
     521A      7.542422   522A      7.581064   523A      7.625903  
     524A      7.726262   525A      7.839524   526A      7.937904  
     527A      8.174157   528A      8.251545   529A     13.602919  
     530A     13.684109   531A     13.759312   532A     13.835974  
     533A     14.014014   534A     14.265320   535A     14.655989  
     536A     14.781121  

    Final Occupation by Irrep:
              A 
    DOCC [    34 ]

  @DF-RHF Final Energy:  -386.38414882985847

   => Energetics <=

    Nuclear Repulsion Energy =            414.8349620077349869
    One-Electron Energy =               -1349.2903095105702960
    Two-Electron Energy =                 548.0711986729768341
    Total Energy =                       -386.3841488298585318

Computation Completed


Properties will be evaluated at   0.000000,   0.000000,   0.000000 [a0]

Properties computed using the SCF density matrix

  Nuclear Dipole Moment: [e a0]
     X:     0.7476      Y:     5.1196      Z:    -0.8197

  Electronic Dipole Moment: [e a0]
     X:    -1.5406      Y:    -4.9412      Z:     0.3364

  Dipole Moment: [e a0]
     X:    -0.7931      Y:     0.1784      Z:    -0.4833     Total:     0.9457

  Dipole Moment: [D]
     X:    -2.0158      Y:     0.4534      Z:    -1.2286     Total:     2.4038


*** tstop() called on r282 at Fri Sep 10 11:57:28 2021
Module time:
	user time   =      84.28 seconds =       1.40 minutes
	system time =       1.74 seconds =       0.03 minutes
	total time  =         86 seconds =       1.43 minutes
Total time:
	user time   =      84.28 seconds =       1.40 minutes
	system time =       1.74 seconds =       0.03 minutes
	total time  =         86 seconds =       1.43 minutes

  //>>>>>>>>>>>>>>>>>>>>>>>>>>>>>>>>>>>//
  //            Monomer A HF           //
  //<<<<<<<<<<<<<<<<<<<<<<<<<<<<<<<<<<<//


*** tstart() called on r282
*** at Fri Sep 10 11:57:28 2021

   => Loading Basis Set <=

    Name: JUN-CC-PVTZ
    Role: ORBITAL
    Keyword: BASIS
    atoms 1-2, 9, 12, 16-17             entry C          line   217 file /home/r08543048/miniconda3/share/psi4/basis/jun-cc-pvtz.gbs 
    atoms 3-4, 6-8, 10-11, 13-15, 19-24 entry H          line    36 file /home/r08543048/miniconda3/share/psi4/basis/jun-cc-pvtz.gbs 
    atoms 5, 18                         entry O          line   305 file /home/r08543048/miniconda3/share/psi4/basis/jun-cc-pvtz.gbs 


         ---------------------------------------------------------
                                   SCF
               by Justin Turney, Rob Parrish, Andy Simmonett
                          and Daniel G. A. Smith
                              RHF Reference
                        1 Threads,  20980 MiB Core
         ---------------------------------------------------------

  ==> Geometry <==

    Molecular point group: c1
    Full point group: C1

    Geometry (in Angstrom), charge = 0, multiplicity = 1:

       Center              X                  Y                   Z               Mass       
    ------------   -----------------  -----------------  -----------------  -----------------
         C            1.819805542800    -0.476802105070    -0.793485721409    12.000000000000
         C            1.478399542800    -1.392204105070     0.375435278591    12.000000000000
         H            0.928773542800    -0.357672105070    -1.419190721409     1.007825032230
         H            2.561759542800    -0.995108105070    -1.408586721409     1.007825032230
         O            0.328082542800    -0.988097105070     1.108580278591    15.994914619570
         H            2.304269542800    -1.399014105070     1.089522278591     1.007825032230
         H            1.352374542800    -2.416645105070     0.009749278591     1.007825032230
         H           -0.442024457200    -1.105619105070     0.528281278591     1.007825032230
         C            2.375799542800     0.891074894930    -0.401716721409    12.000000000000
         H            2.760677542800     1.380315894930    -1.299861721409     1.007825032230
         H            3.236183542800     0.741338894930     0.257011278591     1.007825032230
         C            1.371599542800     1.817896894930     0.276732278591    12.000000000000
         H            0.507594542800     1.984985894930    -0.369565721409     1.007825032230
         H            1.821589542800     2.789010894930     0.485086278591     1.007825032230
         H            1.009542542800     1.391562894930     1.209055278591     1.007825032230
      Gh(C)          -2.545138457200     1.054496894930     0.598399278591    12.000000000000
      Gh(C)          -2.325719457200     0.349908894930    -0.723716721409    12.000000000000
      Gh(O)          -2.010449457200    -1.040470105070    -0.551882721409    15.994914619570
      Gh(H)          -3.405272457200     0.635227894930     1.122279278591     1.007825032230
      Gh(H)          -2.737533457200     2.114787894930     0.432694278591     1.007825032230
      Gh(H)          -1.665701457200     0.952173894930     1.231954278591     1.007825032230
      Gh(H)          -3.195961457200     0.452448894930    -1.375675721409     1.007825032230
      Gh(H)          -1.466806457200     0.767920894930    -1.245102721409     1.007825032230
      Gh(H)          -2.763412457200    -1.464227105070    -0.124887721409     1.007825032230

  Running in c1 symmetry.

  Rotational constants: A =      0.07632  B =      0.03318  C =      0.02793 [cm^-1]
  Rotational constants: A =   2287.88095  B =    994.77682  C =    837.46422 [MHz]
  Nuclear repulsion =  192.211303432717074

  Charge       = 0
  Multiplicity = 1
  Electrons    = 42
  Nalpha       = 21
  Nbeta        = 21

  ==> Algorithm <==

  SCF Algorithm Type is DF.
  DIIS enabled.
  MOM disabled.
  Fractional occupation disabled.
  Guess Type is SAD.
  Energy threshold   = 1.00e-08
  Density threshold  = 1.00e-08
  Integral threshold = 0.00e+00

  ==> Primary Basis <==

  Basis Set: JUN-CC-PVTZ
    Blend: JUN-CC-PVTZ
    Number of shells: 200
    Number of basis function: 536
    Number of Cartesian functions: 600
    Spherical Harmonics?: true
    Max angular momentum: 3

   => Loading Basis Set <=

    Name: (JUN-CC-PVTZ AUX)
    Role: JKFIT
    Keyword: DF_BASIS_SCF
    atoms 1-2, 9, 12, 16-17             entry C          line   152 file /home/r08543048/miniconda3/share/psi4/basis/jun-cc-pvtz-jkfit.gbs 
    atoms 3-4, 6-8, 10-11, 13-15, 19-24 entry H          line    70 file /home/r08543048/miniconda3/share/psi4/basis/jun-cc-pvtz-jkfit.gbs 
    atoms 5, 18                         entry O          line   272 file /home/r08543048/miniconda3/share/psi4/basis/jun-cc-pvtz-jkfit.gbs 

  ==> Pre-Iterations <==

   -------------------------------------------------------
    Irrep   Nso     Nmo     Nalpha   Nbeta   Ndocc  Nsocc
   -------------------------------------------------------
     A        536     536       0       0       0       0
   -------------------------------------------------------
    Total     536     536      21      21      21       0
   -------------------------------------------------------

  ==> Integral Setup <==

  ==> DiskDFJK: Density-Fitted J/K Matrices <==

    J tasked:                  Yes
    K tasked:                  Yes
    wK tasked:                  No
    OpenMP threads:              1
    Integrals threads:           1
    Memory [MiB]:            15735
    Algorithm:                Core
    Integral Cache:           LOAD
    Schwarz Cutoff:          1E-12
    Fitting Condition:       1E-10

   => Auxiliary Basis Set <=

  Basis Set: (JUN-CC-PVTZ AUX)
    Blend: JUN-CC-PVTZ-JKFIT
    Number of shells: 392
    Number of basis function: 1240
    Number of Cartesian functions: 1488
    Spherical Harmonics?: true
    Max angular momentum: 4

  Minimum eigenvalue in the overlap matrix is 4.4130600293E-05.
  Using Symmetric Orthogonalization.

  SCF Guess: Superposition of Atomic Densities via on-the-fly atomic UHF.

  ==> Iterations <==

                           Total Energy        Delta E     RMS |[F,P]|

   @DF-RHF iter SAD:  -231.56245824368142   -2.31562e+02   0.00000e+00 
   @DF-RHF iter   1:  -232.00652251145436   -4.44064e-01   1.18397e-03 DIIS
   @DF-RHF iter   2:  -232.18382737021892   -1.77305e-01   6.31646e-04 DIIS
   @DF-RHF iter   3:  -232.23290803209682   -4.90807e-02   1.07469e-04 DIIS
   @DF-RHF iter   4:  -232.23566073474916   -2.75270e-03   3.63918e-05 DIIS
   @DF-RHF iter   5:  -232.23587877317027   -2.18038e-04   9.25307e-06 DIIS
   @DF-RHF iter   6:  -232.23589636814427   -1.75950e-05   2.07492e-06 DIIS
   @DF-RHF iter   7:  -232.23589764396485   -1.27582e-06   5.10695e-07 DIIS
   @DF-RHF iter   8:  -232.23589772343379   -7.94689e-08   1.61876e-07 DIIS
   @DF-RHF iter   9:  -232.23589773204412   -8.61033e-09   4.50872e-08 DIIS
   @DF-RHF iter  10:  -232.23589773282589   -7.81768e-10   1.06321e-08 DIIS
   @DF-RHF iter  11:  -232.23589773286633   -4.04441e-11   2.74504e-09 DIIS
  Energy and wave function converged.


  ==> Post-Iterations <==

    Orbital Energies [Eh]
    ---------------------

    Doubly Occupied:                                                      

       1A    -20.555715     2A    -11.271854     3A    -11.219918  
       4A    -11.215967     5A    -11.200458     6A     -1.355828  
       7A     -1.067500     8A     -0.971068     9A     -0.865894  
      10A     -0.788893    11A     -0.681292    12A     -0.637119  
      13A     -0.625102    14A     -0.581088    15A     -0.558267  
      16A     -0.535079    17A     -0.507340    18A     -0.493408  
      19A     -0.471292    20A     -0.458426    21A     -0.424847  

    Virtual:                                                              

      22A      0.033618    23A      0.048905    24A      0.054674  
      25A      0.056882    26A      0.069550    27A      0.071130  
      28A      0.073910    29A      0.090180    30A      0.090967  
      31A      0.100941    32A      0.107703    33A      0.111889  
      34A      0.113485    35A      0.115200    36A      0.128698  
      37A      0.133765    38A      0.142529    39A      0.148623  
      40A      0.151575    41A      0.159230    42A      0.164458  
      43A      0.173867    44A      0.187234    45A      0.198357  
      46A      0.203919    47A      0.211221    48A      0.219339  
      49A      0.226086    50A      0.231314    51A      0.242627  
      52A      0.258595    53A      0.269877    54A      0.271245  
      55A      0.282621    56A      0.286560    57A      0.287746  
      58A      0.294880    59A      0.304613    60A      0.311469  
      61A      0.313720    62A      0.321727    63A      0.328898  
      64A      0.337875    65A      0.341897    66A      0.347143  
      67A      0.348627    68A      0.355918    69A      0.363067  
      70A      0.370422    71A      0.372203    72A      0.377382  
      73A      0.385977    74A      0.386845    75A      0.399779  
      76A      0.400845    77A      0.404093    78A      0.411869  
      79A      0.421652    80A      0.431211    81A      0.437810  
      82A      0.455308    83A      0.455589    84A      0.469443  
      85A      0.475117    86A      0.479275    87A      0.493949  
      88A      0.500034    89A      0.504452    90A      0.510444  
      91A      0.512449    92A      0.527168    93A      0.530678  
      94A      0.537466    95A      0.541496    96A      0.543793  
      97A      0.552401    98A      0.569290    99A      0.570084  
     100A      0.578972   101A      0.582426   102A      0.611535  
     103A      0.612540   104A      0.616358   105A      0.626043  
     106A      0.631662   107A      0.636789   108A      0.641390  
     109A      0.649941   110A      0.662261   111A      0.671236  
     112A      0.682480   113A      0.700029   114A      0.707641  
     115A      0.711332   116A      0.728567   117A      0.739190  
     118A      0.752844   119A      0.770840   120A      0.772206  
     121A      0.783406   122A      0.792423   123A      0.798115  
     124A      0.807455   125A      0.817827   126A      0.825511  
     127A      0.833183   128A      0.846805   129A      0.855298  
     130A      0.859994   131A      0.861586   132A      0.885693  
     133A      0.887785   134A      0.897980   135A      0.906898  
     136A      0.918907   137A      0.939043   138A      0.943761  
     139A      0.965737   140A      0.973091   141A      0.994867  
     142A      1.001494   143A      1.011181   144A      1.014671  
     145A      1.025381   146A      1.040810   147A      1.049084  
     148A      1.067560   149A      1.082381   150A      1.089844  
     151A      1.101928   152A      1.111801   153A      1.125322  
     154A      1.135798   155A      1.155660   156A      1.156233  
     157A      1.160596   158A      1.178209   159A      1.189279  
     160A      1.203012   161A      1.220598   162A      1.223654  
     163A      1.228304   164A      1.237419   165A      1.255301  
     166A      1.267125   167A      1.281546   168A      1.285612  
     169A      1.299249   170A      1.304601   171A      1.327538  
     172A      1.331362   173A      1.332351   174A      1.343537  
     175A      1.352602   176A      1.372411   177A      1.383686  
     178A      1.391974   179A      1.396509   180A      1.404603  
     181A      1.418755   182A      1.423530   183A      1.432414  
     184A      1.444730   185A      1.456330   186A      1.466363  
     187A      1.475956   188A      1.486675   189A      1.496917  
     190A      1.520182   191A      1.521529   192A      1.529183  
     193A      1.537104   194A      1.551128   195A      1.560236  
     196A      1.564178   197A      1.568818   198A      1.577860  
     199A      1.586153   200A      1.596622   201A      1.603512  
     202A      1.613179   203A      1.632502   204A      1.644729  
     205A      1.652774   206A      1.657407   207A      1.661944  
     208A      1.690062   209A      1.690764   210A      1.701349  
     211A      1.712819   212A      1.714991   213A      1.729975  
     214A      1.742007   215A      1.760296   216A      1.774679  
     217A      1.781104   218A      1.791378   219A      1.813839  
     220A      1.822040   221A      1.835981   222A      1.865495  
     223A      1.869417   224A      1.886033   225A      1.895971  
     226A      1.910468   227A      1.914806   228A      1.920402  
     229A      1.952344   230A      1.968716   231A      1.981031  
     232A      2.008868   233A      2.023002   234A      2.028489  
     235A      2.059148   236A      2.091730   237A      2.098523  
     238A      2.123842   239A      2.127748   240A      2.219991  
     241A      2.269967   242A      2.310829   243A      2.371191  
     244A      2.382141   245A      2.423548   246A      2.443858  
     247A      2.467899   248A      2.492395   249A      2.513606  
     250A      2.532910   251A      2.546405   252A      2.659082  
     253A      2.710790   254A      2.762244   255A      2.795020  
     256A      2.797810   257A      2.816340   258A      2.831886  
     259A      2.849804   260A      2.864722   261A      2.888626  
     262A      2.909358   263A      2.925020   264A      2.933348  
     265A      2.948636   266A      2.967784   267A      2.992924  
     268A      3.016752   269A      3.020795   270A      3.044261  
     271A      3.066383   272A      3.083645   273A      3.088956  
     274A      3.102090   275A      3.116759   276A      3.131561  
     277A      3.170679   278A      3.179725   279A      3.199865  
     280A      3.224365   281A      3.245204   282A      3.262829  
     283A      3.291492   284A      3.307412   285A      3.335549  
     286A      3.339437   287A      3.376966   288A      3.392498  
     289A      3.402259   290A      3.407104   291A      3.429834  
     292A      3.432948   293A      3.448095   294A      3.463605  
     295A      3.470823   296A      3.483149   297A      3.491130  
     298A      3.500643   299A      3.505743   300A      3.519224  
     301A      3.525884   302A      3.541585   303A      3.558819  
     304A      3.569074   305A      3.581203   306A      3.584566  
     307A      3.603328   308A      3.610056   309A      3.619480  
     310A      3.626357   311A      3.636429   312A      3.644313  
     313A      3.664497   314A      3.678624   315A      3.685003  
     316A      3.702267   317A      3.718790   318A      3.731812  
     319A      3.750296   320A      3.771898   321A      3.786820  
     322A      3.800526   323A      3.804320   324A      3.817382  
     325A      3.827163   326A      3.838496   327A      3.845772  
     328A      3.854928   329A      3.867061   330A      3.876818  
     331A      3.886061   332A      3.914179   333A      3.926656  
     334A      3.940055   335A      3.952548   336A      3.959893  
     337A      3.974427   338A      3.981463   339A      4.001132  
     340A      4.023648   341A      4.024177   342A      4.036280  
     343A      4.078844   344A      4.087424   345A      4.112724  
     346A      4.118654   347A      4.123890   348A      4.144282  
     349A      4.152467   350A      4.183650   351A      4.189146  
     352A      4.203330   353A      4.214694   354A      4.247675  
     355A      4.257009   356A      4.268027   357A      4.276731  
     358A      4.291855   359A      4.304365   360A      4.316494  
     361A      4.319904   362A      4.326732   363A      4.355983  
     364A      4.362202   365A      4.385661   366A      4.396273  
     367A      4.407786   368A      4.414062   369A      4.428379  
     370A      4.434978   371A      4.443466   372A      4.453965  
     373A      4.466641   374A      4.481459   375A      4.494044  
     376A      4.502086   377A      4.511714   378A      4.519398  
     379A      4.523870   380A      4.536540   381A      4.547548  
     382A      4.558865   383A      4.571749   384A      4.577415  
     385A      4.590153   386A      4.598884   387A      4.610515  
     388A      4.628211   389A      4.634046   390A      4.642670  
     391A      4.658449   392A      4.674873   393A      4.689245  
     394A      4.697884   395A      4.714780   396A      4.726431  
     397A      4.730834   398A      4.740600   399A      4.749282  
     400A      4.760401   401A      4.769802   402A      4.784659  
     403A      4.791515   404A      4.801599   405A      4.819259  
     406A      4.831437   407A      4.838708   408A      4.852982  
     409A      4.859196   410A      4.890040   411A      4.904655  
     412A      4.910771   413A      4.925009   414A      4.929031  
     415A      4.943177   416A      4.946739   417A      4.963423  
     418A      4.972531   419A      4.990211   420A      5.016521  
     421A      5.024240   422A      5.033055   423A      5.037455  
     424A      5.061854   425A      5.065617   426A      5.077889  
     427A      5.101913   428A      5.115853   429A      5.118048  
     430A      5.143728   431A      5.166413   432A      5.187308  
     433A      5.206880   434A      5.239884   435A      5.249487  
     436A      5.260036   437A      5.296431   438A      5.302386  
     439A      5.316045   440A      5.328486   441A      5.351003  
     442A      5.373432   443A      5.386725   444A      5.398139  
     445A      5.426331   446A      5.440930   447A      5.446475  
     448A      5.480538   449A      5.499229   450A      5.542162  
     451A      5.549675   452A      5.581095   453A      5.612906  
     454A      5.616139   455A      5.653916   456A      5.663241  
     457A      5.711109   458A      5.743250   459A      5.777067  
     460A      5.778189   461A      5.800652   462A      5.815598  
     463A      5.819102   464A      5.838472   465A      5.857423  
     466A      5.875078   467A      5.892688   468A      5.932575  
     469A      5.951846   470A      5.980170   471A      6.005500  
     472A      6.022957   473A      6.063436   474A      6.096264  
     475A      6.120167   476A      6.156594   477A      6.199996  
     478A      6.212241   479A      6.283411   480A      6.329724  
     481A      6.346932   482A      6.354356   483A      6.457418  
     484A      6.463181   485A      6.516476   486A      6.535067  
     487A      6.546462   488A      6.580091   489A      6.585243  
     490A      6.640627   491A      6.732441   492A      6.877232  
     493A      6.949213   494A      6.971530   495A      7.054496  
     496A      7.118829   497A      7.230940   498A      7.299457  
     499A      7.372616   500A      7.384726   501A      7.407498  
     502A      7.465047   503A      7.541987   504A      7.575869  
     505A      7.621964   506A      7.673006   507A      7.701606  
     508A      7.712434   509A      7.805961   510A      7.864565  
     511A      7.895526   512A      7.969484   513A      7.994834  
     514A      8.193225   515A      8.273222   516A      8.319633  
     517A      8.494018   518A      9.527863   519A      9.714952  
     520A      9.840613   521A      9.882044   522A     10.059575  
     523A     10.103062   524A     10.288668   525A     11.249492  
     526A     11.712428   527A     12.720125   528A     13.517787  
     529A     13.627246   530A     13.823865   531A     13.987820  
     532A     14.231349   533A     14.769494   534A     44.175942  
     535A     45.696175   536A     61.041013  

    Final Occupation by Irrep:
              A 
    DOCC [    21 ]

  @DF-RHF Final Energy:  -232.23589773286633

   => Energetics <=

    Nuclear Repulsion Energy =            192.2113034327170737
    One-Electron Energy =                -695.9216870459225674
    Two-Electron Energy =                 271.4744858803392162
    Total Energy =                       -232.2358977328663059

Computation Completed


Properties will be evaluated at   0.000000,   0.000000,   0.000000 [a0]

Properties computed using the SCF density matrix

  Nuclear Dipole Moment: [e a0]
     X:   115.1581      Y:    -1.6097      Z:     8.8665

  Electronic Dipole Moment: [e a0]
     X:  -115.1176      Y:     1.3831      Z:    -9.5163

  Dipole Moment: [e a0]
     X:     0.0405      Y:    -0.2266      Z:    -0.6498     Total:     0.6894

  Dipole Moment: [D]
     X:     0.1029      Y:    -0.5760      Z:    -1.6517     Total:     1.7523


*** tstop() called on r282 at Fri Sep 10 11:58:23 2021
Module time:
	user time   =      54.02 seconds =       0.90 minutes
	system time =       0.88 seconds =       0.01 minutes
	total time  =         55 seconds =       0.92 minutes
Total time:
	user time   =     138.30 seconds =       2.31 minutes
	system time =       2.62 seconds =       0.04 minutes
	total time  =        141 seconds =       2.35 minutes

  //>>>>>>>>>>>>>>>>>>>>>>>>>>>>>>>>>>>//
  //            Monomer B HF           //
  //<<<<<<<<<<<<<<<<<<<<<<<<<<<<<<<<<<<//


*** tstart() called on r282
*** at Fri Sep 10 11:58:23 2021

   => Loading Basis Set <=

    Name: JUN-CC-PVTZ
    Role: ORBITAL
    Keyword: BASIS
    atoms 1-2, 9, 12, 16-17             entry C          line   217 file /home/r08543048/miniconda3/share/psi4/basis/jun-cc-pvtz.gbs 
    atoms 3-4, 6-8, 10-11, 13-15, 19-24 entry H          line    36 file /home/r08543048/miniconda3/share/psi4/basis/jun-cc-pvtz.gbs 
    atoms 5, 18                         entry O          line   305 file /home/r08543048/miniconda3/share/psi4/basis/jun-cc-pvtz.gbs 


         ---------------------------------------------------------
                                   SCF
               by Justin Turney, Rob Parrish, Andy Simmonett
                          and Daniel G. A. Smith
                              RHF Reference
                        1 Threads,  20980 MiB Core
         ---------------------------------------------------------

  ==> Geometry <==

    Molecular point group: c1
    Full point group: C1

    Geometry (in Angstrom), charge = 0, multiplicity = 1:

       Center              X                  Y                   Z               Mass       
    ------------   -----------------  -----------------  -----------------  -----------------
      Gh(C)           1.819805542800    -0.476802105070    -0.793485721409    12.000000000000
      Gh(C)           1.478399542800    -1.392204105070     0.375435278591    12.000000000000
      Gh(H)           0.928773542800    -0.357672105070    -1.419190721409     1.007825032230
      Gh(H)           2.561759542800    -0.995108105070    -1.408586721409     1.007825032230
      Gh(O)           0.328082542800    -0.988097105070     1.108580278591    15.994914619570
      Gh(H)           2.304269542800    -1.399014105070     1.089522278591     1.007825032230
      Gh(H)           1.352374542800    -2.416645105070     0.009749278591     1.007825032230
      Gh(H)          -0.442024457200    -1.105619105070     0.528281278591     1.007825032230
      Gh(C)           2.375799542800     0.891074894930    -0.401716721409    12.000000000000
      Gh(H)           2.760677542800     1.380315894930    -1.299861721409     1.007825032230
      Gh(H)           3.236183542800     0.741338894930     0.257011278591     1.007825032230
      Gh(C)           1.371599542800     1.817896894930     0.276732278591    12.000000000000
      Gh(H)           0.507594542800     1.984985894930    -0.369565721409     1.007825032230
      Gh(H)           1.821589542800     2.789010894930     0.485086278591     1.007825032230
      Gh(H)           1.009542542800     1.391562894930     1.209055278591     1.007825032230
         C           -2.545138457200     1.054496894930     0.598399278591    12.000000000000
         C           -2.325719457200     0.349908894930    -0.723716721409    12.000000000000
         O           -2.010449457200    -1.040470105070    -0.551882721409    15.994914619570
         H           -3.405272457200     0.635227894930     1.122279278591     1.007825032230
         H           -2.737533457200     2.114787894930     0.432694278591     1.007825032230
         H           -1.665701457200     0.952173894930     1.231954278591     1.007825032230
         H           -3.195961457200     0.452448894930    -1.375675721409     1.007825032230
         H           -1.466806457200     0.767920894930    -1.245102721409     1.007825032230
         H           -2.763412457200    -1.464227105070    -0.124887721409     1.007825032230

  Running in c1 symmetry.

  Rotational constants: A =      0.07632  B =      0.03318  C =      0.02793 [cm^-1]
  Rotational constants: A =   2287.88095  B =    994.77682  C =    837.46422 [MHz]
  Nuclear repulsion =   81.633227762783335

  Charge       = 0
  Multiplicity = 1
  Electrons    = 26
  Nalpha       = 13
  Nbeta        = 13

  ==> Algorithm <==

  SCF Algorithm Type is DF.
  DIIS enabled.
  MOM disabled.
  Fractional occupation disabled.
  Guess Type is SAD.
  Energy threshold   = 1.00e-08
  Density threshold  = 1.00e-08
  Integral threshold = 0.00e+00

  ==> Primary Basis <==

  Basis Set: JUN-CC-PVTZ
    Blend: JUN-CC-PVTZ
    Number of shells: 200
    Number of basis function: 536
    Number of Cartesian functions: 600
    Spherical Harmonics?: true
    Max angular momentum: 3

   => Loading Basis Set <=

    Name: (JUN-CC-PVTZ AUX)
    Role: JKFIT
    Keyword: DF_BASIS_SCF
    atoms 1-2, 9, 12, 16-17             entry C          line   152 file /home/r08543048/miniconda3/share/psi4/basis/jun-cc-pvtz-jkfit.gbs 
    atoms 3-4, 6-8, 10-11, 13-15, 19-24 entry H          line    70 file /home/r08543048/miniconda3/share/psi4/basis/jun-cc-pvtz-jkfit.gbs 
    atoms 5, 18                         entry O          line   272 file /home/r08543048/miniconda3/share/psi4/basis/jun-cc-pvtz-jkfit.gbs 

  ==> Pre-Iterations <==

   -------------------------------------------------------
    Irrep   Nso     Nmo     Nalpha   Nbeta   Ndocc  Nsocc
   -------------------------------------------------------
     A        536     536       0       0       0       0
   -------------------------------------------------------
    Total     536     536      13      13      13       0
   -------------------------------------------------------

  ==> Integral Setup <==

  ==> DiskDFJK: Density-Fitted J/K Matrices <==

    J tasked:                  Yes
    K tasked:                  Yes
    wK tasked:                  No
    OpenMP threads:              1
    Integrals threads:           1
    Memory [MiB]:            15735
    Algorithm:                Core
    Integral Cache:           LOAD
    Schwarz Cutoff:          1E-12
    Fitting Condition:       1E-10

   => Auxiliary Basis Set <=

  Basis Set: (JUN-CC-PVTZ AUX)
    Blend: JUN-CC-PVTZ-JKFIT
    Number of shells: 392
    Number of basis function: 1240
    Number of Cartesian functions: 1488
    Spherical Harmonics?: true
    Max angular momentum: 4

  Minimum eigenvalue in the overlap matrix is 4.4130600293E-05.
  Using Symmetric Orthogonalization.

  SCF Guess: Superposition of Atomic Densities via on-the-fly atomic UHF.

  ==> Iterations <==

                           Total Energy        Delta E     RMS |[F,P]|

   @DF-RHF iter SAD:  -153.41851457210663   -1.53419e+02   0.00000e+00 
   @DF-RHF iter   1:  -154.01206836244955   -5.93554e-01   9.36413e-04 DIIS
   @DF-RHF iter   2:  -154.11604322297018   -1.03975e-01   5.00874e-04 DIIS
   @DF-RHF iter   3:  -154.14245503210111   -2.64118e-02   8.66120e-05 DIIS
   @DF-RHF iter   4:  -154.14400035433164   -1.54532e-03   3.29136e-05 DIIS
   @DF-RHF iter   5:  -154.14418846047155   -1.88106e-04   6.23084e-06 DIIS
   @DF-RHF iter   6:  -154.14419836736806   -9.90690e-06   1.41268e-06 DIIS
   @DF-RHF iter   7:  -154.14419906272920   -6.95361e-07   3.98098e-07 DIIS
   @DF-RHF iter   8:  -154.14419911428206   -5.15529e-08   1.29000e-07 DIIS
   @DF-RHF iter   9:  -154.14419912014125   -5.85919e-09   3.35747e-08 DIIS
   @DF-RHF iter  10:  -154.14419912056937   -4.28116e-10   6.71957e-09 DIIS
  Energy and wave function converged.


  ==> Post-Iterations <==

    Orbital Energies [Eh]
    ---------------------

    Doubly Occupied:                                                      

       1A    -20.554240     2A    -11.274674     3A    -11.218450  
       4A     -1.351423     5A     -1.014825     6A     -0.847647  
       7A     -0.684662     8A     -0.621298     9A     -0.605771  
      10A     -0.545966    11A     -0.524816    12A     -0.483409  
      13A     -0.444995  

    Virtual:                                                              

      14A      0.034761    15A      0.048723    16A      0.049987  
      17A      0.055762    18A      0.068381    19A      0.070848  
      20A      0.077656    21A      0.086264    22A      0.086744  
      23A      0.102132    24A      0.109042    25A      0.112244  
      26A      0.113675    27A      0.116086    28A      0.121821  
      29A      0.135394    30A      0.143376    31A      0.148997  
      32A      0.150824    33A      0.155818    34A      0.163113  
      35A      0.174403    36A      0.174811    37A      0.192996  
      38A      0.203649    39A      0.204813    40A      0.215307  
      41A      0.225874    42A      0.233630    43A      0.248827  
      44A      0.253006    45A      0.259473    46A      0.269863  
      47A      0.272835    48A      0.278862    49A      0.285395  
      50A      0.291633    51A      0.295827    52A      0.303650  
      53A      0.308928    54A      0.311006    55A      0.326949  
      56A      0.334131    57A      0.341620    58A      0.345845  
      59A      0.347936    60A      0.353927    61A      0.364056  
      62A      0.366731    63A      0.378321    64A      0.381846  
      65A      0.387467    66A      0.395800    67A      0.408471  
      68A      0.414820    69A      0.419340    70A      0.430302  
      71A      0.439673    72A      0.446860    73A      0.448817  
      74A      0.460453    75A      0.463410    76A      0.468872  
      77A      0.473283    78A      0.484551    79A      0.491984  
      80A      0.502484    81A      0.513618    82A      0.519497  
      83A      0.523663    84A      0.531517    85A      0.547482  
      86A      0.551393    87A      0.558391    88A      0.558879  
      89A      0.564997    90A      0.570671    91A      0.580631  
      92A      0.590468    93A      0.603067    94A      0.609978  
      95A      0.620955    96A      0.630976    97A      0.634080  
      98A      0.642475    99A      0.648896   100A      0.653806  
     101A      0.660212   102A      0.666334   103A      0.672687  
     104A      0.680701   105A      0.688500   106A      0.712448  
     107A      0.718525   108A      0.721939   109A      0.738607  
     110A      0.744000   111A      0.752373   112A      0.764690  
     113A      0.780365   114A      0.785698   115A      0.792326  
     116A      0.805621   117A      0.828632   118A      0.835016  
     119A      0.850720   120A      0.858025   121A      0.875785  
     122A      0.878608   123A      0.883011   124A      0.889464  
     125A      0.912040   126A      0.917382   127A      0.941418  
     128A      0.964233   129A      0.979441   130A      0.983849  
     131A      0.994004   132A      1.012739   133A      1.020972  
     134A      1.043246   135A      1.052958   136A      1.059970  
     137A      1.078380   138A      1.089827   139A      1.096300  
     140A      1.100257   141A      1.116126   142A      1.128664  
     143A      1.146697   144A      1.153923   145A      1.165473  
     146A      1.169842   147A      1.193435   148A      1.199367  
     149A      1.199677   150A      1.226181   151A      1.227586  
     152A      1.248878   153A      1.256891   154A      1.270106  
     155A      1.276807   156A      1.280947   157A      1.287478  
     158A      1.298820   159A      1.306109   160A      1.322955  
     161A      1.329464   162A      1.340775   163A      1.348573  
     164A      1.361590   165A      1.372487   166A      1.378147  
     167A      1.390262   168A      1.400642   169A      1.406913  
     170A      1.409102   171A      1.419044   172A      1.432200  
     173A      1.438977   174A      1.444585   175A      1.453693  
     176A      1.459467   177A      1.470655   178A      1.475469  
     179A      1.491689   180A      1.502376   181A      1.505447  
     182A      1.512265   183A      1.521151   184A      1.540823  
     185A      1.543731   186A      1.557878   187A      1.560817  
     188A      1.580913   189A      1.599378   190A      1.605793  
     191A      1.613997   192A      1.623402   193A      1.631756  
     194A      1.651840   195A      1.658248   196A      1.667340  
     197A      1.672915   198A      1.680518   199A      1.689893  
     200A      1.704725   201A      1.713813   202A      1.722718  
     203A      1.738227   204A      1.749922   205A      1.761699  
     206A      1.772520   207A      1.786448   208A      1.799887  
     209A      1.812100   210A      1.822896   211A      1.843404  
     212A      1.854159   213A      1.875791   214A      1.895103  
     215A      1.907521   216A      1.915890   217A      1.936863  
     218A      1.943400   219A      1.964530   220A      1.975127  
     221A      1.986541   222A      2.013491   223A      2.019583  
     224A      2.065542   225A      2.069838   226A      2.103203  
     227A      2.129374   228A      2.157782   229A      2.177942  
     230A      2.204100   231A      2.221261   232A      2.231181  
     233A      2.291553   234A      2.309668   235A      2.347570  
     236A      2.363318   237A      2.390818   238A      2.408840  
     239A      2.439161   240A      2.452172   241A      2.492848  
     242A      2.494523   243A      2.506078   244A      2.536568  
     245A      2.573584   246A      2.586865   247A      2.593989  
     248A      2.601212   249A      2.613348   250A      2.668419  
     251A      2.746741   252A      2.795916   253A      2.830082  
     254A      2.841181   255A      2.866722   256A      2.886590  
     257A      2.907038   258A      2.924413   259A      2.939136  
     260A      2.992452   261A      3.036994   262A      3.044340  
     263A      3.067042   264A      3.104103   265A      3.120427  
     266A      3.136108   267A      3.193620   268A      3.232584  
     269A      3.249199   270A      3.286591   271A      3.311288  
     272A      3.324128   273A      3.385150   274A      3.391554  
     275A      3.407427   276A      3.417795   277A      3.451011  
     278A      3.465004   279A      3.481770   280A      3.498090  
     281A      3.507118   282A      3.520132   283A      3.531891  
     284A      3.550613   285A      3.558392   286A      3.574503  
     287A      3.578556   288A      3.588189   289A      3.604902  
     290A      3.618059   291A      3.631181   292A      3.643876  
     293A      3.665060   294A      3.669955   295A      3.695642  
     296A      3.701766   297A      3.713538   298A      3.727055  
     299A      3.753627   300A      3.760122   301A      3.772255  
     302A      3.780969   303A      3.806948   304A      3.809920  
     305A      3.817212   306A      3.828873   307A      3.844505  
     308A      3.859317   309A      3.869152   310A      3.871621  
     311A      3.886769   312A      3.904490   313A      3.911482  
     314A      3.933083   315A      3.940459   316A      3.947343  
     317A      3.958492   318A      3.970550   319A      3.979239  
     320A      3.983918   321A      4.007149   322A      4.037277  
     323A      4.053662   324A      4.073492   325A      4.095432  
     326A      4.103945   327A      4.109788   328A      4.131080  
     329A      4.141851   330A      4.178657   331A      4.185238  
     332A      4.208750   333A      4.213407   334A      4.227067  
     335A      4.239439   336A      4.255959   337A      4.263008  
     338A      4.264879   339A      4.286589   340A      4.298514  
     341A      4.308932   342A      4.337890   343A      4.346807  
     344A      4.361300   345A      4.366247   346A      4.377597  
     347A      4.409054   348A      4.411688   349A      4.421166  
     350A      4.431090   351A      4.438129   352A      4.451957  
     353A      4.454571   354A      4.456124   355A      4.482649  
     356A      4.491783   357A      4.503779   358A      4.513383  
     359A      4.532466   360A      4.536412   361A      4.545207  
     362A      4.560772   363A      4.571490   364A      4.585012  
     365A      4.603497   366A      4.606598   367A      4.630817  
     368A      4.634281   369A      4.645756   370A      4.654795  
     371A      4.658094   372A      4.676813   373A      4.681647  
     374A      4.695234   375A      4.721337   376A      4.725199  
     377A      4.736185   378A      4.752325   379A      4.764947  
     380A      4.770385   381A      4.781099   382A      4.795708  
     383A      4.800407   384A      4.819187   385A      4.829670  
     386A      4.832639   387A      4.844347   388A      4.854129  
     389A      4.857366   390A      4.871039   391A      4.882988  
     392A      4.888315   393A      4.899150   394A      4.915332  
     395A      4.920951   396A      4.940150   397A      4.951325  
     398A      4.959691   399A      4.972932   400A      4.987460  
     401A      4.989742   402A      5.004185   403A      5.013559  
     404A      5.030037   405A      5.037775   406A      5.047362  
     407A      5.054989   408A      5.089734   409A      5.094957  
     410A      5.109338   411A      5.120193   412A      5.125596  
     413A      5.128252   414A      5.143505   415A      5.153056  
     416A      5.170776   417A      5.193208   418A      5.203816  
     419A      5.218805   420A      5.225853   421A      5.238476  
     422A      5.245558   423A      5.278900   424A      5.291133  
     425A      5.305550   426A      5.326114   427A      5.350347  
     428A      5.362056   429A      5.378395   430A      5.400697  
     431A      5.441914   432A      5.453648   433A      5.460824  
     434A      5.488496   435A      5.542047   436A      5.560984  
     437A      5.578033   438A      5.595312   439A      5.619946  
     440A      5.629330   441A      5.638760   442A      5.678555  
     443A      5.697892   444A      5.736010   445A      5.750465  
     446A      5.754529   447A      5.772778   448A      5.790513  
     449A      5.841595   450A      5.857341   451A      5.894421  
     452A      5.912298   453A      5.930895   454A      5.955855  
     455A      5.974590   456A      5.987000   457A      6.010197  
     458A      6.052786   459A      6.082771   460A      6.101542  
     461A      6.119335   462A      6.180533   463A      6.226020  
     464A      6.246693   465A      6.260097   466A      6.318816  
     467A      6.361910   468A      6.387348   469A      6.394061  
     470A      6.401167   471A      6.453401   472A      6.465657  
     473A      6.482794   474A      6.507430   475A      6.514672  
     476A      6.561211   477A      6.562996   478A      6.667553  
     479A      6.755781   480A      6.806296   481A      6.926995  
     482A      6.944968   483A      6.961914   484A      7.024628  
     485A      7.082296   486A      7.167074   487A      7.233625  
     488A      7.310940   489A      7.338594   490A      7.377348  
     491A      7.395018   492A      7.447568   493A      7.516211  
     494A      7.548175   495A      7.561207   496A      7.604925  
     497A      7.637246   498A      7.675295   499A      7.704841  
     500A      7.712284   501A      7.757138   502A      7.778173  
     503A      7.817555   504A      7.845071   505A      7.866639  
     506A      7.904754   507A      7.972149   508A      8.019019  
     509A      8.110184   510A      8.194155   511A      8.249087  
     512A      8.350407   513A      8.397590   514A      8.591816  
     515A      8.739813   516A      9.560565   517A      9.594984  
     518A      9.630508   519A      9.822377   520A      9.956302  
     521A      9.968689   522A     10.083726   523A     10.190353  
     524A     10.405425   525A     11.288850   526A     11.781101  
     527A     12.846902   528A     13.630973   529A     13.785578  
     530A     13.809902   531A     14.659422   532A     43.720171  
     533A     44.325359   534A     45.360741   535A     45.872117  
     536A     61.775169  

    Final Occupation by Irrep:
              A 
    DOCC [    13 ]

  @DF-RHF Final Energy:  -154.14419912056937

   => Energetics <=

    Nuclear Repulsion Energy =             81.6332277627833349
    One-Electron Energy =                -371.2104990687679447
    Two-Electron Energy =                 135.4330721854152273
    Total Energy =                       -154.1441991205693682

Computation Completed


Properties will be evaluated at   0.000000,   0.000000,   0.000000 [a0]

Properties computed using the SCF density matrix

  Nuclear Dipole Moment: [e a0]
     X:  -114.4105      Y:     6.7293      Z:    -9.6862

  Electronic Dipole Moment: [e a0]
     X:   113.8251      Y:    -6.3318      Z:     9.8995

  Dipole Moment: [e a0]
     X:    -0.5854      Y:     0.3975      Z:     0.2133     Total:     0.7391

  Dipole Moment: [D]
     X:    -1.4879      Y:     1.0104      Z:     0.5422     Total:     1.8785


*** tstop() called on r282 at Fri Sep 10 11:59:09 2021
Module time:
	user time   =      45.05 seconds =       0.75 minutes
	system time =       0.74 seconds =       0.01 minutes
	total time  =         46 seconds =       0.77 minutes
Total time:
	user time   =     183.35 seconds =       3.06 minutes
	system time =       3.36 seconds =       0.06 minutes
	total time  =        187 seconds =       3.12 minutes
  Constructing Basis Sets for SAPT...

   => Loading Basis Set <=

    Name: (JUN-CC-PVTZ AUX)
    Role: RIFIT
    Keyword: DF_BASIS_SAPT
    atoms 1-2, 9, 12, 16-17             entry C          line   132 file /home/r08543048/miniconda3/share/psi4/basis/jun-cc-pvtz-ri.gbs 
    atoms 3-4, 6-8, 10-11, 13-15, 19-24 entry H          line    30 file /home/r08543048/miniconda3/share/psi4/basis/jun-cc-pvtz-ri.gbs 
    atoms 5, 18                         entry O          line   244 file /home/r08543048/miniconda3/share/psi4/basis/jun-cc-pvtz-ri.gbs 


  //>>>>>>>>>>>>>>>>>>>>>>>>>>>>>>>>>>>//
  //               SAPT0               //
  //<<<<<<<<<<<<<<<<<<<<<<<<<<<<<<<<<<<//


*** tstart() called on r282
*** at Fri Sep 10 11:59:09 2021

        SAPT0  
    Ed Hohenstein
     6 June 2009

      Orbital Information
  --------------------------
    NSO        =       536
    NMO        =       536
    NRI        =      1256
    NOCC A     =        21
    NOCC B     =        13
    FOCC A     =         0
    FOCC B     =         0
    NVIR A     =       515
    NVIR B     =       523

    Elst10,r            =    -0.016368482763 [Eh]
    Exch10              =     0.017486910819 [Eh]
    Exch10 (S^2)        =     0.017354991111 [Eh]

    Iter     Energy [mEh]          dE [mEh]         Residual      Time [s]
       1      -2.56647837       2.566478369       7.211339109             1
       2      -2.92135134       0.354872966       2.363711694             2
       3      -2.96891574       0.047564407       0.686538435             4
       4      -2.96430197      -0.004613776       0.276794047             5
       5      -2.95914399      -0.005157975       0.065255508             6
       6      -2.95980460       0.000660610       0.021270539             8
       7      -2.96010780       0.000303203       0.005630938             9
       8      -2.96004520      -0.000062609       0.001804270            10
       9      -2.96003155      -0.000013643       0.000470206            12
      10      -2.96003717       0.000005616       0.000140333            13
      11      -2.96003762       0.000000451       0.000041845            14
      12      -2.96003715      -0.000000470       0.000008864            16
      13      -2.96003719       0.000000042       0.000002007            17
      14      -2.96003720       0.000000008       0.000000539            18

    CHF Iterations converged


    Iter     Energy [mEh]          dE [mEh]         Residual      Time [s]
       1      -3.52467463       3.524674629      11.570410133             1
       2      -4.45124857       0.926573937       4.991366756             3
       3      -4.54746881       0.096220244       1.408311311             4
       4      -4.52916811      -0.018300705       0.410260598             5
       5      -4.52247152      -0.006696581       0.080158229             6
       6      -4.52372780       0.001256271       0.026597509             7
       7      -4.52395811       0.000230312       0.007012757             8
       8      -4.52386192      -0.000096184       0.001826304             9
       9      -4.52385804      -0.000003883       0.000419891            11
      10      -4.52386275       0.000004708       0.000115426            12
      11      -4.52386287       0.000000122       0.000032020            15
      12      -4.52386253      -0.000000341       0.000008747            17
      13      -4.52386257       0.000000036       0.000002328            18
      14      -4.52386258       0.000000013       0.000000494            19

    CHF Iterations converged

    Ind20,r (A<-B)      =    -0.002960037199 [Eh]
    Ind20,r (B<-A)      =    -0.004523862579 [Eh]
    Ind20,r             =    -0.007483899778 [Eh]
    Exch-Ind20,r (A<-B) =     0.002184639330 [Eh]
    Exch-Ind20,r (B<-A) =     0.002374646542 [Eh]
    Exch-Ind20,r        =     0.004559285872 [Eh]
    Disp20              =    -0.010368645997 [Eh]
    Disp20 (SS)         =    -0.005184322999 [Eh]
    Disp20 (OS)         =    -0.005184322999 [Eh]
    Exch-Disp20         =     0.001416839362 [Eh]
    Exch-Disp20 (SS)    =     0.000899447798 [Eh]
    Exch-Disp20 (OS)    =     0.000517391563 [Eh]

    SAPT Results 
  --------------------------------------------------------------------------------------------------------
    Electrostatics                -16.36848276 [mEh]     -10.27137801 [kcal/mol]     -42.97544557 [kJ/mol]
      Elst10,r                    -16.36848276 [mEh]     -10.27137801 [kcal/mol]     -42.97544557 [kJ/mol]

    Exchange                       17.48691082 [mEh]      10.97320221 [kcal/mol]      45.91187803 [kJ/mol]
      Exch10                       17.48691082 [mEh]      10.97320221 [kcal/mol]      45.91187803 [kJ/mol]
      Exch10(S^2)                  17.35499111 [mEh]      10.89042134 [kcal/mol]      45.56552289 [kJ/mol]

    Induction                      -5.17040448 [mEh]      -3.24447779 [kcal/mol]     -13.57489509 [kJ/mol]
      Ind20,r                      -7.48389978 [mEh]      -4.69621801 [kcal/mol]     -19.64897616 [kJ/mol]
      Exch-Ind20,r                  4.55928587 [mEh]       2.86099508 [kcal/mol]      11.97040341 [kJ/mol]
      delta HF,r (2)               -2.24579057 [mEh]      -1.40925486 [kcal/mol]      -5.89632234 [kJ/mol]

    Dispersion                     -8.95180664 [mEh]      -5.61734347 [kcal/mol]     -23.50296508 [kJ/mol]
      Disp20                      -10.36864600 [mEh]      -6.50642359 [kcal/mol]     -27.22287632 [kJ/mol]
      Exch-Disp20                   1.41683936 [mEh]       0.88908012 [kcal/mol]       3.71991123 [kJ/mol]
      Disp20 (SS)                  -5.18432300 [mEh]      -3.25321180 [kcal/mol]     -13.61143816 [kJ/mol]
      Disp20 (OS)                  -5.18432300 [mEh]      -3.25321180 [kcal/mol]     -13.61143816 [kJ/mol]
      Exch-Disp20 (SS)              0.89944780 [mEh]       0.56441201 [kcal/mol]       2.36149987 [kJ/mol]
      Exch-Disp20 (OS)              0.51739156 [mEh]       0.32466811 [kcal/mol]       1.35841136 [kJ/mol]

  Total HF                         -4.05197642 [mEh]      -2.54265359 [kcal/mol]     -10.63846263 [kJ/mol]
  Total SAPT0                     -13.00378306 [mEh]      -8.15999706 [kcal/mol]     -34.14142772 [kJ/mol]

  Special recipe for scaled SAPT0 (see Manual):
    Electrostatics sSAPT0         -16.36848276 [mEh]     -10.27137801 [kcal/mol]     -42.97544557 [kJ/mol]
    Exchange sSAPT0                17.48691082 [mEh]      10.97320221 [kcal/mol]      45.91187803 [kJ/mol]
    Induction sSAPT0               -5.06564330 [mEh]      -3.17873916 [kcal/mol]     -13.29984466 [kJ/mol]
    Dispersion sSAPT0              -8.91925115 [mEh]      -5.59691460 [kcal/mol]     -23.41749067 [kJ/mol]
  Total sSAPT0                    -12.86646640 [mEh]      -8.07382956 [kcal/mol]     -33.78090288 [kJ/mol]
  --------------------------------------------------------------------------------------------------------

*** tstop() called on r282 at Fri Sep 10 12:01:47 2021
Module time:
	user time   =     134.32 seconds =       2.24 minutes
	system time =      20.98 seconds =       0.35 minutes
	total time  =        158 seconds =       2.63 minutes
Total time:
	user time   =     317.82 seconds =       5.30 minutes
	system time =      24.34 seconds =       0.41 minutes
	total time  =        345 seconds =       5.75 minutes

    Psi4 stopped on: Friday, 10 September 2021 12:01PM
    Psi4 wall time for execution: 0:05:45.06

*** Psi4 exiting successfully. Buy a developer a beer!
