
    -----------------------------------------------------------------------
          Psi4: An Open-Source Ab Initio Electronic Structure Package
                               Psi4 1.3.2 release

                         Git: Rev {HEAD} ecbda83 


    R. M. Parrish, L. A. Burns, D. G. A. Smith, A. C. Simmonett,
    A. E. DePrince III, E. G. Hohenstein, U. Bozkaya, A. Yu. Sokolov,
    R. Di Remigio, R. M. Richard, J. F. Gonthier, A. M. James,
    H. R. McAlexander, A. Kumar, M. Saitow, X. Wang, B. P. Pritchard,
    P. Verma, H. F. Schaefer III, K. Patkowski, R. A. King, E. F. Valeev,
    F. A. Evangelista, J. M. Turney, T. D. Crawford, and C. D. Sherrill,
    J. Chem. Theory Comput. 13(7) pp 3185--3197 (2017).
    (doi: 10.1021/acs.jctc.7b00174)


                         Additional Contributions by
    P. Kraus, H. Kruse, M. H. Lechner, M. C. Schieber, R. A. Shaw,
    A. Alenaizan, R. Galvelis, Z. L. Glick, S. Lehtola, and J. P. Misiewicz

    -----------------------------------------------------------------------


    Psi4 started on: Thursday, 09 September 2021 11:53AM

    Process ID: 53943
    Host:       r282
    PSIDATADIR: /home/r08543048/miniconda3/share/psi4
    Memory:     500.0 MiB
    Threads:    1
    
  ==> Input File <==

--------------------------------------------------------------------------
# Any line starting with the # character is a comment line
#! Sample  computation

memory 22 gb

molecule Dimer {
 
0 1                               
 C   2.38723200    0.70481300   -0.59504900
 C   1.82132500   -0.65421500   -0.24126800
 H   3.11631400    1.02685000    0.14992700
 H   1.58904600    1.44306300   -0.64882000
 H   2.89223700    0.66242100   -1.56022500
 O   1.11029100   -0.63632100    1.00688900
 H   1.08329800   -0.96623400   -0.97742300
 H   2.60639500   -1.41264400   -0.20592300
 H   1.72667800   -0.36042600    1.69433300










 
 --
0 1
 C   -2.18408100   -0.87714400   -0.58928300
 C   -2.25493800    0.42116100    0.19403100
 H   -1.46851900   -1.56012000   -0.12993000
 H   -1.86990300   -0.68199700   -1.61390500
 H   -3.15740700   -1.36901400   -0.61101200
 O   -1.01149300    1.11071100    0.20736700
 H   -2.96955200    1.10314300   -0.26508600
 H   -2.59687900    0.22496800    1.21528400
 H   -0.35931700    0.52717700    0.62814400
















 
 
 
units angstrom

no_reorient
symmetry c1
}

set globals{
  basis jun-cc-pVTZ
  scf_type DF 
  freeze_core True
}

energy('sapt0')


--------------------------------------------------------------------------

  Memory set to  20.489 GiB by Python driver.

  //>>>>>>>>>>>>>>>>>>>>>>>>>>>>>>>>>>>//
  //              Dimer HF             //
  //<<<<<<<<<<<<<<<<<<<<<<<<<<<<<<<<<<<//


*** tstart() called on r282
*** at Thu Sep  9 11:53:53 2021

   => Loading Basis Set <=

    Name: JUN-CC-PVTZ
    Role: ORBITAL
    Keyword: BASIS
    atoms 1-2, 10-11             entry C          line   217 file /home/r08543048/miniconda3/share/psi4/basis/jun-cc-pvtz.gbs 
    atoms 3-5, 7-9, 12-14, 16-18 entry H          line    36 file /home/r08543048/miniconda3/share/psi4/basis/jun-cc-pvtz.gbs 
    atoms 6, 15                  entry O          line   305 file /home/r08543048/miniconda3/share/psi4/basis/jun-cc-pvtz.gbs 


         ---------------------------------------------------------
                                   SCF
               by Justin Turney, Rob Parrish, Andy Simmonett
                          and Daniel G. A. Smith
                              RHF Reference
                        1 Threads,  20980 MiB Core
         ---------------------------------------------------------

  ==> Geometry <==

    Molecular point group: c1
    Full point group: C1

    Geometry (in Angstrom), charge = 0, multiplicity = 1:

       Center              X                  Y                   Z               Mass       
    ------------   -----------------  -----------------  -----------------  -----------------
         C            2.393620228943     0.690155356394    -0.620029164292    12.000000000000
         C            1.827713228943    -0.668872643606    -0.266248164292    12.000000000000
         H            3.122702228943     1.012192356394     0.124946835708     1.007825032230
         H            1.595434228943     1.428405356394    -0.673800164292     1.007825032230
         H            2.898625228943     0.647763356394    -1.585205164292     1.007825032230
         O            1.116679228943    -0.650978643606     0.981908835708    15.994914619570
         H            1.089686228943    -0.980891643606    -1.002403164292     1.007825032230
         H            2.612783228943    -1.427301643606    -0.230903164292     1.007825032230
         H            1.733066228943    -0.375083643606     1.669352835708     1.007825032230
         C           -2.177692771057    -0.891801643606    -0.614263164292    12.000000000000
         C           -2.248549771057     0.406503356394     0.169050835708    12.000000000000
         H           -1.462130771057    -1.574777643606    -0.154910164292     1.007825032230
         H           -1.863514771057    -0.696654643606    -1.638885164292     1.007825032230
         H           -3.151018771057    -1.383671643606    -0.635992164292     1.007825032230
         O           -1.005104771057     1.096053356394     0.182386835708    15.994914619570
         H           -2.963163771057     1.088485356394    -0.290066164292     1.007825032230
         H           -2.590490771057     0.210310356394     1.190303835708     1.007825032230
         H           -0.352928771057     0.512519356394     0.603163835708     1.007825032230

  Running in c1 symmetry.

  Rotational constants: A =      0.16899  B =      0.04629  C =      0.04349 [cm^-1]
  Rotational constants: A =   5066.18513  B =   1387.88914  C =   1303.66187 [MHz]
  Nuclear repulsion =  257.594049109290097

  Charge       = 0
  Multiplicity = 1
  Electrons    = 52
  Nalpha       = 26
  Nbeta        = 26

  ==> Algorithm <==

  SCF Algorithm Type is DF.
  DIIS enabled.
  MOM disabled.
  Fractional occupation disabled.
  Guess Type is SAD.
  Energy threshold   = 1.00e-08
  Density threshold  = 1.00e-08
  Integral threshold = 0.00e+00

  ==> Primary Basis <==

  Basis Set: JUN-CC-PVTZ
    Blend: JUN-CC-PVTZ
    Number of shells: 150
    Number of basis function: 402
    Number of Cartesian functions: 450
    Spherical Harmonics?: true
    Max angular momentum: 3

   => Loading Basis Set <=

    Name: (JUN-CC-PVTZ AUX)
    Role: JKFIT
    Keyword: DF_BASIS_SCF
    atoms 1-2, 10-11             entry C          line   152 file /home/r08543048/miniconda3/share/psi4/basis/jun-cc-pvtz-jkfit.gbs 
    atoms 3-5, 7-9, 12-14, 16-18 entry H          line    70 file /home/r08543048/miniconda3/share/psi4/basis/jun-cc-pvtz-jkfit.gbs 
    atoms 6, 15                  entry O          line   272 file /home/r08543048/miniconda3/share/psi4/basis/jun-cc-pvtz-jkfit.gbs 

  ==> Pre-Iterations <==

   -------------------------------------------------------
    Irrep   Nso     Nmo     Nalpha   Nbeta   Ndocc  Nsocc
   -------------------------------------------------------
     A        402     402       0       0       0       0
   -------------------------------------------------------
    Total     402     402      26      26      26       0
   -------------------------------------------------------

  ==> Integral Setup <==

  ==> DiskDFJK: Density-Fitted J/K Matrices <==

    J tasked:                  Yes
    K tasked:                  Yes
    wK tasked:                  No
    OpenMP threads:              1
    Integrals threads:           1
    Memory [MiB]:            15735
    Algorithm:                Core
    Integral Cache:           SAVE
    Schwarz Cutoff:          1E-12
    Fitting Condition:       1E-10

   => Auxiliary Basis Set <=

  Basis Set: (JUN-CC-PVTZ AUX)
    Blend: JUN-CC-PVTZ-JKFIT
    Number of shells: 294
    Number of basis function: 930
    Number of Cartesian functions: 1116
    Spherical Harmonics?: true
    Max angular momentum: 4

  Minimum eigenvalue in the overlap matrix is 9.7111645389E-05.
  Using Symmetric Orthogonalization.

  SCF Guess: Superposition of Atomic Densities via on-the-fly atomic UHF.

  ==> Iterations <==

                           Total Energy        Delta E     RMS |[F,P]|

   @DF-RHF iter SAD:  -307.01467225072349   -3.07015e+02   0.00000e+00 
   @DF-RHF iter   1:  -308.04086350624306   -1.02619e+00   1.71436e-03 DIIS
   @DF-RHF iter   2:  -308.24352628809328   -2.02663e-01   8.70552e-04 DIIS
   @DF-RHF iter   3:  -308.28977031815850   -4.62440e-02   1.58229e-04 DIIS
   @DF-RHF iter   4:  -308.29274948970965   -2.97917e-03   5.70025e-05 DIIS
   @DF-RHF iter   5:  -308.29306198118672   -3.12491e-04   1.18251e-05 DIIS
   @DF-RHF iter   6:  -308.29308170914567   -1.97280e-05   2.69113e-06 DIIS
   @DF-RHF iter   7:  -308.29308311968236   -1.41054e-06   7.44171e-07 DIIS
   @DF-RHF iter   8:  -308.29308321753700   -9.78546e-08   2.46503e-07 DIIS
   @DF-RHF iter   9:  -308.29308322854467   -1.10077e-08   6.95939e-08 DIIS
   @DF-RHF iter  10:  -308.29308322936004   -8.15362e-10   2.49002e-08 DIIS
   @DF-RHF iter  11:  -308.29308322942302   -6.29825e-11   6.90727e-09 DIIS
  Energy and wave function converged.


  ==> Post-Iterations <==

    Orbital Energies [Eh]
    ---------------------

    Doubly Occupied:                                                      

       1A    -20.575302     2A    -20.527778     3A    -11.284099  
       4A    -11.257780     5A    -11.220030     6A    -11.204365  
       7A     -1.374960     8A     -1.331563     9A     -1.021546  
      10A     -0.997915    11A     -0.857231    12A     -0.832062  
      13A     -0.706136    14A     -0.665629    15A     -0.633290  
      16A     -0.621103    17A     -0.604686    18A     -0.589529  
      19A     -0.556348    20A     -0.533084    21A     -0.527891  
      22A     -0.509679    23A     -0.494917    24A     -0.468452  
      25A     -0.455124    26A     -0.422512  

    Virtual:                                                              

      27A      0.054453    28A      0.055301    29A      0.062566  
      30A      0.066804    31A      0.075803    32A      0.087399  
      33A      0.089542    34A      0.098964    35A      0.102716  
      36A      0.117593    37A      0.120342    38A      0.126011  
      39A      0.133607    40A      0.148459    41A      0.186518  
      42A      0.188138    43A      0.205471    44A      0.211327  
      45A      0.226663    46A      0.233012    47A      0.244730  
      48A      0.247208    49A      0.260016    50A      0.268087  
      51A      0.278109    52A      0.283481    53A      0.286126  
      54A      0.293135    55A      0.295305    56A      0.298118  
      57A      0.315107    58A      0.322776    59A      0.324435  
      60A      0.334000    61A      0.341983    62A      0.344583  
      63A      0.354556    64A      0.358474    65A      0.366109  
      66A      0.370555    67A      0.385823    68A      0.394271  
      69A      0.398251    70A      0.420839    71A      0.423395  
      72A      0.445281    73A      0.446759    74A      0.463857  
      75A      0.468749    76A      0.478111    77A      0.485826  
      78A      0.501049    79A      0.518270    80A      0.526270  
      81A      0.531072    82A      0.534432    83A      0.540403  
      84A      0.545944    85A      0.560482    86A      0.571736  
      87A      0.601800    88A      0.637528    89A      0.647978  
      90A      0.656081    91A      0.678276    92A      0.700035  
      93A      0.701440    94A      0.711333    95A      0.719074  
      96A      0.727458    97A      0.733966    98A      0.745339  
      99A      0.756575   100A      0.774532   101A      0.780270  
     102A      0.790331   103A      0.795287   104A      0.801558  
     105A      0.813765   106A      0.831807   107A      0.841226  
     108A      0.848376   109A      0.852674   110A      0.866865  
     111A      0.880432   112A      0.884267   113A      0.890309  
     114A      0.902706   115A      0.935091   116A      0.940576  
     117A      0.944207   118A      0.961738   119A      0.981828  
     120A      0.988672   121A      1.010338   122A      1.019228  
     123A      1.031035   124A      1.063144   125A      1.068209  
     126A      1.082163   127A      1.095845   128A      1.120875  
     129A      1.122511   130A      1.127983   131A      1.152689  
     132A      1.180687   133A      1.191126   134A      1.220778  
     135A      1.244138   136A      1.254078   137A      1.263337  
     138A      1.311721   139A      1.325564   140A      1.338502  
     141A      1.349483   142A      1.352589   143A      1.366668  
     144A      1.382553   145A      1.394505   146A      1.398749  
     147A      1.404340   148A      1.417535   149A      1.427073  
     150A      1.437931   151A      1.460293   152A      1.466365  
     153A      1.483996   154A      1.492746   155A      1.506785  
     156A      1.518353   157A      1.531572   158A      1.552999  
     159A      1.566142   160A      1.588558   161A      1.595193  
     162A      1.598412   163A      1.612141   164A      1.625057  
     165A      1.641436   166A      1.655714   167A      1.666307  
     168A      1.679728   169A      1.690678   170A      1.715132  
     171A      1.728984   172A      1.739688   173A      1.757912  
     174A      1.766358   175A      1.798331   176A      1.810710  
     177A      1.821405   178A      1.826724   179A      1.874219  
     180A      1.895220   181A      1.911998   182A      1.920018  
     183A      1.927862   184A      1.977182   185A      1.985513  
     186A      2.075648   187A      2.174029   188A      2.215684  
     189A      2.345148   190A      2.370595   191A      2.398522  
     192A      2.411215   193A      2.449476   194A      2.468052  
     195A      2.539438   196A      2.582999   197A      2.620995  
     198A      2.641958   199A      2.784157   200A      2.790152  
     201A      2.814744   202A      2.824484   203A      2.830325  
     204A      2.850078   205A      2.861664   206A      2.873618  
     207A      2.895788   208A      2.915989   209A      2.930905  
     210A      2.968871   211A      2.992523   212A      3.014599  
     213A      3.046046   214A      3.052650   215A      3.100634  
     216A      3.109021   217A      3.141984   218A      3.165002  
     219A      3.211278   220A      3.223318   221A      3.233518  
     222A      3.249943   223A      3.274423   224A      3.276623  
     225A      3.280662   226A      3.292834   227A      3.307331  
     228A      3.334075   229A      3.346097   230A      3.365786  
     231A      3.379495   232A      3.387774   233A      3.404529  
     234A      3.431509   235A      3.434530   236A      3.452004  
     237A      3.456050   238A      3.464946   239A      3.472065  
     240A      3.487614   241A      3.499754   242A      3.512421  
     243A      3.515613   244A      3.533639   245A      3.555747  
     246A      3.563887   247A      3.569829   248A      3.598260  
     249A      3.604448   250A      3.626257   251A      3.638556  
     252A      3.654038   253A      3.666173   254A      3.687897  
     255A      3.723132   256A      3.737982   257A      3.752263  
     258A      3.769080   259A      3.796265   260A      3.803149  
     261A      3.811345   262A      3.827411   263A      3.837004  
     264A      3.873744   265A      3.890403   266A      3.898071  
     267A      3.909792   268A      3.925108   269A      3.947060  
     270A      3.971831   271A      3.974770   272A      3.990217  
     273A      4.040283   274A      4.061614   275A      4.065360  
     276A      4.081979   277A      4.105466   278A      4.125772  
     279A      4.200162   280A      4.208230   281A      4.221446  
     282A      4.237143   283A      4.244747   284A      4.251057  
     285A      4.262586   286A      4.268759   287A      4.284178  
     288A      4.294566   289A      4.308249   290A      4.319278  
     291A      4.335564   292A      4.349847   293A      4.361176  
     294A      4.376346   295A      4.389123   296A      4.402985  
     297A      4.431818   298A      4.438971   299A      4.445643  
     300A      4.463252   301A      4.473610   302A      4.482902  
     303A      4.488644   304A      4.501743   305A      4.509751  
     306A      4.517542   307A      4.537547   308A      4.579101  
     309A      4.589011   310A      4.627173   311A      4.640305  
     312A      4.655984   313A      4.670813   314A      4.675256  
     315A      4.699045   316A      4.719738   317A      4.738483  
     318A      4.753366   319A      4.778461   320A      4.807407  
     321A      4.844078   322A      4.855278   323A      4.870739  
     324A      4.894660   325A      4.922463   326A      4.965953  
     327A      4.998025   328A      5.045398   329A      5.127360  
     330A      5.135651   331A      5.191292   332A      5.201598  
     333A      5.206735   334A      5.216425   335A      5.229823  
     336A      5.243747   337A      5.273423   338A      5.284387  
     339A      5.289596   340A      5.292481   341A      5.310958  
     342A      5.323049   343A      5.389575   344A      5.419582  
     345A      5.448833   346A      5.467946   347A      5.525058  
     348A      5.553748   349A      5.591443   350A      5.608304  
     351A      5.621088   352A      5.653672   353A      5.720583  
     354A      5.740146   355A      5.744718   356A      5.750947  
     357A      5.761640   358A      5.775458   359A      5.825014  
     360A      5.844162   361A      5.899245   362A      5.919666  
     363A      5.927650   364A      5.956613   365A      5.969103  
     366A      5.984825   367A      6.056807   368A      6.109121  
     369A      6.276592   370A      6.323015   371A      6.369901  
     372A      6.412528   373A      6.479972   374A      6.481410  
     375A      6.488429   376A      6.489480   377A      6.540352  
     378A      6.569530   379A      6.888589   380A      6.954877  
     381A      7.042956   382A      7.074921   383A      7.208196  
     384A      7.237662   385A      7.315640   386A      7.354030  
     387A      7.369435   388A      7.404895   389A      7.521955  
     390A      7.560342   391A      7.621051   392A      7.701132  
     393A      7.837234   394A      7.921002   395A      8.164696  
     396A      8.191146   397A     13.603518   398A     13.698332  
     399A     13.745152   400A     13.806240   401A     14.574284  
     402A     14.660290  

    Final Occupation by Irrep:
              A 
    DOCC [    26 ]

  @DF-RHF Final Energy:  -308.29308322942302

   => Energetics <=

    Nuclear Repulsion Energy =            257.5940491092900970
    One-Electron Energy =                -931.2282357978588152
    Two-Electron Energy =                 365.3411034591456428
    Total Energy =                       -308.2930832294230186

Computation Completed


Properties will be evaluated at   0.000000,   0.000000,   0.000000 [a0]

Properties computed using the SCF density matrix

  Nuclear Dipole Moment: [e a0]
     X:     0.6277      Y:    -1.4404      Z:    -2.4547

  Electronic Dipole Moment: [e a0]
     X:     0.1524      Y:     0.9141      Z:     2.5382

  Dipole Moment: [e a0]
     X:     0.7802      Y:    -0.5263      Z:     0.0835     Total:     0.9448

  Dipole Moment: [D]
     X:     1.9830      Y:    -1.3376      Z:     0.2122     Total:     2.4013


*** tstop() called on r282 at Thu Sep  9 11:54:21 2021
Module time:
	user time   =      26.72 seconds =       0.45 minutes
	system time =       0.78 seconds =       0.01 minutes
	total time  =         28 seconds =       0.47 minutes
Total time:
	user time   =      26.72 seconds =       0.45 minutes
	system time =       0.78 seconds =       0.01 minutes
	total time  =         28 seconds =       0.47 minutes

  //>>>>>>>>>>>>>>>>>>>>>>>>>>>>>>>>>>>//
  //            Monomer A HF           //
  //<<<<<<<<<<<<<<<<<<<<<<<<<<<<<<<<<<<//


*** tstart() called on r282
*** at Thu Sep  9 11:54:21 2021

   => Loading Basis Set <=

    Name: JUN-CC-PVTZ
    Role: ORBITAL
    Keyword: BASIS
    atoms 1-2, 10-11             entry C          line   217 file /home/r08543048/miniconda3/share/psi4/basis/jun-cc-pvtz.gbs 
    atoms 3-5, 7-9, 12-14, 16-18 entry H          line    36 file /home/r08543048/miniconda3/share/psi4/basis/jun-cc-pvtz.gbs 
    atoms 6, 15                  entry O          line   305 file /home/r08543048/miniconda3/share/psi4/basis/jun-cc-pvtz.gbs 


         ---------------------------------------------------------
                                   SCF
               by Justin Turney, Rob Parrish, Andy Simmonett
                          and Daniel G. A. Smith
                              RHF Reference
                        1 Threads,  20980 MiB Core
         ---------------------------------------------------------

  ==> Geometry <==

    Molecular point group: c1
    Full point group: C1

    Geometry (in Angstrom), charge = 0, multiplicity = 1:

       Center              X                  Y                   Z               Mass       
    ------------   -----------------  -----------------  -----------------  -----------------
         C            2.393620228943     0.690155356394    -0.620029164292    12.000000000000
         C            1.827713228943    -0.668872643606    -0.266248164292    12.000000000000
         H            3.122702228943     1.012192356394     0.124946835708     1.007825032230
         H            1.595434228943     1.428405356394    -0.673800164292     1.007825032230
         H            2.898625228943     0.647763356394    -1.585205164292     1.007825032230
         O            1.116679228943    -0.650978643606     0.981908835708    15.994914619570
         H            1.089686228943    -0.980891643606    -1.002403164292     1.007825032230
         H            2.612783228943    -1.427301643606    -0.230903164292     1.007825032230
         H            1.733066228943    -0.375083643606     1.669352835708     1.007825032230
      Gh(C)          -2.177692771057    -0.891801643606    -0.614263164292    12.000000000000
      Gh(C)          -2.248549771057     0.406503356394     0.169050835708    12.000000000000
      Gh(H)          -1.462130771057    -1.574777643606    -0.154910164292     1.007825032230
      Gh(H)          -1.863514771057    -0.696654643606    -1.638885164292     1.007825032230
      Gh(H)          -3.151018771057    -1.383671643606    -0.635992164292     1.007825032230
      Gh(O)          -1.005104771057     1.096053356394     0.182386835708    15.994914619570
      Gh(H)          -2.963163771057     1.088485356394    -0.290066164292     1.007825032230
      Gh(H)          -2.590490771057     0.210310356394     1.190303835708     1.007825032230
      Gh(H)          -0.352928771057     0.512519356394     0.603163835708     1.007825032230

  Running in c1 symmetry.

  Rotational constants: A =      0.16899  B =      0.04629  C =      0.04349 [cm^-1]
  Rotational constants: A =   5066.18513  B =   1387.88914  C =   1303.66187 [MHz]
  Nuclear repulsion =   81.644236158235216

  Charge       = 0
  Multiplicity = 1
  Electrons    = 26
  Nalpha       = 13
  Nbeta        = 13

  ==> Algorithm <==

  SCF Algorithm Type is DF.
  DIIS enabled.
  MOM disabled.
  Fractional occupation disabled.
  Guess Type is SAD.
  Energy threshold   = 1.00e-08
  Density threshold  = 1.00e-08
  Integral threshold = 0.00e+00

  ==> Primary Basis <==

  Basis Set: JUN-CC-PVTZ
    Blend: JUN-CC-PVTZ
    Number of shells: 150
    Number of basis function: 402
    Number of Cartesian functions: 450
    Spherical Harmonics?: true
    Max angular momentum: 3

   => Loading Basis Set <=

    Name: (JUN-CC-PVTZ AUX)
    Role: JKFIT
    Keyword: DF_BASIS_SCF
    atoms 1-2, 10-11             entry C          line   152 file /home/r08543048/miniconda3/share/psi4/basis/jun-cc-pvtz-jkfit.gbs 
    atoms 3-5, 7-9, 12-14, 16-18 entry H          line    70 file /home/r08543048/miniconda3/share/psi4/basis/jun-cc-pvtz-jkfit.gbs 
    atoms 6, 15                  entry O          line   272 file /home/r08543048/miniconda3/share/psi4/basis/jun-cc-pvtz-jkfit.gbs 

  ==> Pre-Iterations <==

   -------------------------------------------------------
    Irrep   Nso     Nmo     Nalpha   Nbeta   Ndocc  Nsocc
   -------------------------------------------------------
     A        402     402       0       0       0       0
   -------------------------------------------------------
    Total     402     402      13      13      13       0
   -------------------------------------------------------

  ==> Integral Setup <==

  ==> DiskDFJK: Density-Fitted J/K Matrices <==

    J tasked:                  Yes
    K tasked:                  Yes
    wK tasked:                  No
    OpenMP threads:              1
    Integrals threads:           1
    Memory [MiB]:            15735
    Algorithm:                Core
    Integral Cache:           LOAD
    Schwarz Cutoff:          1E-12
    Fitting Condition:       1E-10

   => Auxiliary Basis Set <=

  Basis Set: (JUN-CC-PVTZ AUX)
    Blend: JUN-CC-PVTZ-JKFIT
    Number of shells: 294
    Number of basis function: 930
    Number of Cartesian functions: 1116
    Spherical Harmonics?: true
    Max angular momentum: 4

  Minimum eigenvalue in the overlap matrix is 9.7111645389E-05.
  Using Symmetric Orthogonalization.

  SCF Guess: Superposition of Atomic Densities via on-the-fly atomic UHF.

  ==> Iterations <==

                           Total Energy        Delta E     RMS |[F,P]|

   @DF-RHF iter SAD:  -153.41918634794948   -1.53419e+02   0.00000e+00 
   @DF-RHF iter   1:  -154.01213125724607   -5.92945e-01   1.24789e-03 DIIS
   @DF-RHF iter   2:  -154.11605887844809   -1.03928e-01   6.67232e-04 DIIS
   @DF-RHF iter   3:  -154.14239927621350   -2.63404e-02   1.15535e-04 DIIS
   @DF-RHF iter   4:  -154.14394445460488   -1.54518e-03   4.38629e-05 DIIS
   @DF-RHF iter   5:  -154.14413249411797   -1.88040e-04   8.30676e-06 DIIS
   @DF-RHF iter   6:  -154.14414237574928   -9.88163e-06   1.88398e-06 DIIS
   @DF-RHF iter   7:  -154.14414307202446   -6.96275e-07   5.29600e-07 DIIS
   @DF-RHF iter   8:  -154.14414312358676   -5.15623e-08   1.71812e-07 DIIS
   @DF-RHF iter   9:  -154.14414312941614   -5.82938e-09   4.47918e-08 DIIS
   @DF-RHF iter  10:  -154.14414312984206   -4.25928e-10   8.88107e-09 DIIS
  Energy and wave function converged.


  ==> Post-Iterations <==

    Orbital Energies [Eh]
    ---------------------

    Doubly Occupied:                                                      

       1A    -20.554101     2A    -11.274697     3A    -11.218846  
       4A     -1.351214     5A     -1.015061     6A     -0.847973  
       7A     -0.683686     8A     -0.621043     9A     -0.607657  
      10A     -0.545371    11A     -0.524863    12A     -0.484027  
      13A     -0.444865  

    Virtual:                                                              

      14A      0.043945    15A      0.051408    16A      0.056143  
      17A      0.063723    18A      0.071938    19A      0.081575  
      20A      0.085216    21A      0.098504    22A      0.099770  
      23A      0.113913    24A      0.117557    25A      0.119815  
      26A      0.132334    27A      0.139431    28A      0.162238  
      29A      0.178424    30A      0.189604    31A      0.198817  
      32A      0.208304    33A      0.219395    34A      0.225550  
      35A      0.236164    36A      0.244788    37A      0.261260  
      38A      0.268045    39A      0.269256    40A      0.279019  
      41A      0.284051    42A      0.287540    43A      0.306449  
      44A      0.312792    45A      0.321029    46A      0.324880  
      47A      0.331377    48A      0.335662    49A      0.346254  
      50A      0.353876    51A      0.360137    52A      0.374892  
      53A      0.388136    54A      0.399319    55A      0.406510  
      56A      0.414703    57A      0.420449    58A      0.430492  
      59A      0.451140    60A      0.457178    61A      0.469100  
      62A      0.474172    63A      0.475876    64A      0.487361  
      65A      0.503578    66A      0.508778    67A      0.522108  
      68A      0.526468    69A      0.536601    70A      0.543252  
      71A      0.545147    72A      0.568163    73A      0.573798  
      74A      0.583299    75A      0.606206    76A      0.638345  
      77A      0.642612    78A      0.652168    79A      0.666036  
      80A      0.675776    81A      0.687577    82A      0.699900  
      83A      0.715450    84A      0.738907    85A      0.753622  
      86A      0.770187    87A      0.787903    88A      0.793341  
      89A      0.797867    90A      0.820608    91A      0.822087  
      92A      0.841947    93A      0.853241    94A      0.874465  
      95A      0.881958    96A      0.887365    97A      0.909244  
      98A      0.931974    99A      0.951940   100A      0.967376  
     101A      0.979913   102A      0.996449   103A      1.005034  
     104A      1.028260   105A      1.032314   106A      1.050961  
     107A      1.068741   108A      1.075020   109A      1.078996  
     110A      1.091148   111A      1.103700   112A      1.129643  
     113A      1.141582   114A      1.158044   115A      1.171068  
     116A      1.179133   117A      1.189164   118A      1.204631  
     119A      1.213395   120A      1.252315   121A      1.257905  
     122A      1.273585   123A      1.278799   124A      1.292427  
     125A      1.307725   126A      1.312041   127A      1.327464  
     128A      1.346295   129A      1.355503   130A      1.366970  
     131A      1.381288   132A      1.396392   133A      1.408706  
     134A      1.412054   135A      1.435854   136A      1.445824  
     137A      1.468584   138A      1.473148   139A      1.494552  
     140A      1.500942   141A      1.515331   142A      1.535900  
     143A      1.554440   144A      1.565979   145A      1.578502  
     146A      1.594758   147A      1.599433   148A      1.604885  
     149A      1.621628   150A      1.636933   151A      1.647823  
     152A      1.667570   153A      1.671877   154A      1.694283  
     155A      1.715757   156A      1.718804   157A      1.741377  
     158A      1.769086   159A      1.786800   160A      1.805504  
     161A      1.819359   162A      1.835795   163A      1.846877  
     164A      1.863054   165A      1.907839   166A      1.920222  
     167A      1.946071   168A      1.968400   169A      1.996188  
     170A      2.023601   171A      2.029774   172A      2.096281  
     173A      2.118750   174A      2.151014   175A      2.207170  
     176A      2.262034   177A      2.322688   178A      2.344476  
     179A      2.386104   180A      2.398608   181A      2.432143  
     182A      2.470670   183A      2.500832   184A      2.538722  
     185A      2.561769   186A      2.590564   187A      2.652731  
     188A      2.744590   189A      2.789574   190A      2.812648  
     191A      2.825197   192A      2.838999   193A      2.876117  
     194A      2.909824   195A      2.924333   196A      2.943420  
     197A      2.992091   198A      3.021166   199A      3.055181  
     200A      3.062873   201A      3.105544   202A      3.123694  
     203A      3.169917   204A      3.222025   205A      3.242368  
     206A      3.278972   207A      3.293274   208A      3.315249  
     209A      3.353108   210A      3.379931   211A      3.391110  
     212A      3.404199   213A      3.442683   214A      3.458078  
     215A      3.477687   216A      3.494737   217A      3.510174  
     218A      3.523096   219A      3.533418   220A      3.559613  
     221A      3.571107   222A      3.591408   223A      3.608470  
     224A      3.627218   225A      3.631476   226A      3.638667  
     227A      3.648005   228A      3.666394   229A      3.688532  
     230A      3.705180   231A      3.730164   232A      3.763398  
     233A      3.775777   234A      3.801796   235A      3.812436  
     236A      3.814602   237A      3.844934   238A      3.857461  
     239A      3.867787   240A      3.894176   241A      3.898978  
     242A      3.916107   243A      3.942717   244A      3.961312  
     245A      3.977959   246A      3.988307   247A      4.037515  
     248A      4.063788   249A      4.069941   250A      4.095966  
     251A      4.102885   252A      4.113143   253A      4.149038  
     254A      4.208845   255A      4.220000   256A      4.231880  
     257A      4.243897   258A      4.269306   259A      4.271218  
     260A      4.289564   261A      4.297088   262A      4.305590  
     263A      4.329846   264A      4.335881   265A      4.352216  
     266A      4.361971   267A      4.370684   268A      4.405356  
     269A      4.410589   270A      4.425412   271A      4.436353  
     272A      4.457519   273A      4.469613   274A      4.485136  
     275A      4.493909   276A      4.505825   277A      4.512554  
     278A      4.553131   279A      4.562466   280A      4.588983  
     281A      4.599678   282A      4.612678   283A      4.636401  
     284A      4.643749   285A      4.666783   286A      4.680006  
     287A      4.713767   288A      4.727768   289A      4.730943  
     290A      4.758203   291A      4.762985   292A      4.764818  
     293A      4.788048   294A      4.802873   295A      4.815831  
     296A      4.830538   297A      4.850692   298A      4.864084  
     299A      4.885341   300A      4.896572   301A      4.923794  
     302A      4.927714   303A      4.934955   304A      4.951323  
     305A      4.972612   306A      4.983356   307A      5.013593  
     308A      5.031931   309A      5.062751   310A      5.069009  
     311A      5.098197   312A      5.127682   313A      5.137827  
     314A      5.158689   315A      5.192426   316A      5.209648  
     317A      5.220086   318A      5.225012   319A      5.256383  
     320A      5.288261   321A      5.291258   322A      5.293366  
     323A      5.323128   324A      5.365550   325A      5.415793  
     326A      5.448939   327A      5.481969   328A      5.523973  
     329A      5.567845   330A      5.613232   331A      5.628290  
     332A      5.642261   333A      5.720391   334A      5.726083  
     335A      5.742193   336A      5.753382   337A      5.783065  
     338A      5.813065   339A      5.852061   340A      5.909810  
     341A      5.916463   342A      5.936593   343A      5.969636  
     344A      6.027396   345A      6.064962   346A      6.076404  
     347A      6.167208   348A      6.180853   349A      6.280262  
     350A      6.311862   351A      6.331543   352A      6.363236  
     353A      6.388021   354A      6.455033   355A      6.478794  
     356A      6.490479   357A      6.498818   358A      6.555340  
     359A      6.735179   360A      6.859232   361A      6.921651  
     362A      6.998822   363A      7.076498   364A      7.161330  
     365A      7.230804   366A      7.319985   367A      7.337715  
     368A      7.381383   369A      7.402141   370A      7.471837  
     371A      7.545031   372A      7.581040   373A      7.608539  
     374A      7.638602   375A      7.683085   376A      7.730087  
     377A      7.811601   378A      7.861916   379A      7.871943  
     380A      7.988723   381A      8.021486   382A      8.186281  
     383A      8.291883   384A      8.373930   385A      8.567788  
     386A      9.509769   387A      9.683918   388A      9.852637  
     389A      9.921299   390A     10.059676   391A     10.174285  
     392A     10.366931   393A     11.230208   394A     11.672288  
     395A     12.795161   396A     13.618680   397A     13.707219  
     398A     13.786980   399A     14.589783   400A     44.103677  
     401A     45.588064   402A     61.092618  

    Final Occupation by Irrep:
              A 
    DOCC [    13 ]

  @DF-RHF Final Energy:  -154.14414312984206

   => Energetics <=

    Nuclear Repulsion Energy =             81.6442361582352163
    One-Electron Energy =                -371.2299452152665822
    Two-Electron Energy =                 135.4415659271892878
    Total Energy =                       -154.1441431298420639

Computation Completed


Properties will be evaluated at   0.000000,   0.000000,   0.000000 [a0]

Properties computed using the SCF density matrix

  Nuclear Dipole Moment: [e a0]
     X:    89.4100      Y:    -9.0235      Z:     1.5866

  Electronic Dipole Moment: [e a0]
     X:   -88.7155      Y:     9.2214      Z:    -1.7598

  Dipole Moment: [e a0]
     X:     0.6945      Y:     0.1978      Z:    -0.1732     Total:     0.7426

  Dipole Moment: [D]
     X:     1.7653      Y:     0.5029      Z:    -0.4403     Total:     1.8876


*** tstop() called on r282 at Thu Sep  9 11:54:34 2021
Module time:
	user time   =      13.44 seconds =       0.22 minutes
	system time =       0.32 seconds =       0.01 minutes
	total time  =         13 seconds =       0.22 minutes
Total time:
	user time   =      40.16 seconds =       0.67 minutes
	system time =       1.10 seconds =       0.02 minutes
	total time  =         41 seconds =       0.68 minutes

  //>>>>>>>>>>>>>>>>>>>>>>>>>>>>>>>>>>>//
  //            Monomer B HF           //
  //<<<<<<<<<<<<<<<<<<<<<<<<<<<<<<<<<<<//


*** tstart() called on r282
*** at Thu Sep  9 11:54:34 2021

   => Loading Basis Set <=

    Name: JUN-CC-PVTZ
    Role: ORBITAL
    Keyword: BASIS
    atoms 1-2, 10-11             entry C          line   217 file /home/r08543048/miniconda3/share/psi4/basis/jun-cc-pvtz.gbs 
    atoms 3-5, 7-9, 12-14, 16-18 entry H          line    36 file /home/r08543048/miniconda3/share/psi4/basis/jun-cc-pvtz.gbs 
    atoms 6, 15                  entry O          line   305 file /home/r08543048/miniconda3/share/psi4/basis/jun-cc-pvtz.gbs 


         ---------------------------------------------------------
                                   SCF
               by Justin Turney, Rob Parrish, Andy Simmonett
                          and Daniel G. A. Smith
                              RHF Reference
                        1 Threads,  20980 MiB Core
         ---------------------------------------------------------

  ==> Geometry <==

    Molecular point group: c1
    Full point group: C1

    Geometry (in Angstrom), charge = 0, multiplicity = 1:

       Center              X                  Y                   Z               Mass       
    ------------   -----------------  -----------------  -----------------  -----------------
      Gh(C)           2.393620228943     0.690155356394    -0.620029164292    12.000000000000
      Gh(C)           1.827713228943    -0.668872643606    -0.266248164292    12.000000000000
      Gh(H)           3.122702228943     1.012192356394     0.124946835708     1.007825032230
      Gh(H)           1.595434228943     1.428405356394    -0.673800164292     1.007825032230
      Gh(H)           2.898625228943     0.647763356394    -1.585205164292     1.007825032230
      Gh(O)           1.116679228943    -0.650978643606     0.981908835708    15.994914619570
      Gh(H)           1.089686228943    -0.980891643606    -1.002403164292     1.007825032230
      Gh(H)           2.612783228943    -1.427301643606    -0.230903164292     1.007825032230
      Gh(H)           1.733066228943    -0.375083643606     1.669352835708     1.007825032230
         C           -2.177692771057    -0.891801643606    -0.614263164292    12.000000000000
         C           -2.248549771057     0.406503356394     0.169050835708    12.000000000000
         H           -1.462130771057    -1.574777643606    -0.154910164292     1.007825032230
         H           -1.863514771057    -0.696654643606    -1.638885164292     1.007825032230
         H           -3.151018771057    -1.383671643606    -0.635992164292     1.007825032230
         O           -1.005104771057     1.096053356394     0.182386835708    15.994914619570
         H           -2.963163771057     1.088485356394    -0.290066164292     1.007825032230
         H           -2.590490771057     0.210310356394     1.190303835708     1.007825032230
         H           -0.352928771057     0.512519356394     0.603163835708     1.007825032230

  Running in c1 symmetry.

  Rotational constants: A =      0.16899  B =      0.04629  C =      0.04349 [cm^-1]
  Rotational constants: A =   5066.18513  B =   1387.88914  C =   1303.66187 [MHz]
  Nuclear repulsion =   81.800516282915055

  Charge       = 0
  Multiplicity = 1
  Electrons    = 26
  Nalpha       = 13
  Nbeta        = 13

  ==> Algorithm <==

  SCF Algorithm Type is DF.
  DIIS enabled.
  MOM disabled.
  Fractional occupation disabled.
  Guess Type is SAD.
  Energy threshold   = 1.00e-08
  Density threshold  = 1.00e-08
  Integral threshold = 0.00e+00

  ==> Primary Basis <==

  Basis Set: JUN-CC-PVTZ
    Blend: JUN-CC-PVTZ
    Number of shells: 150
    Number of basis function: 402
    Number of Cartesian functions: 450
    Spherical Harmonics?: true
    Max angular momentum: 3

   => Loading Basis Set <=

    Name: (JUN-CC-PVTZ AUX)
    Role: JKFIT
    Keyword: DF_BASIS_SCF
    atoms 1-2, 10-11             entry C          line   152 file /home/r08543048/miniconda3/share/psi4/basis/jun-cc-pvtz-jkfit.gbs 
    atoms 3-5, 7-9, 12-14, 16-18 entry H          line    70 file /home/r08543048/miniconda3/share/psi4/basis/jun-cc-pvtz-jkfit.gbs 
    atoms 6, 15                  entry O          line   272 file /home/r08543048/miniconda3/share/psi4/basis/jun-cc-pvtz-jkfit.gbs 

  ==> Pre-Iterations <==

   -------------------------------------------------------
    Irrep   Nso     Nmo     Nalpha   Nbeta   Ndocc  Nsocc
   -------------------------------------------------------
     A        402     402       0       0       0       0
   -------------------------------------------------------
    Total     402     402      13      13      13       0
   -------------------------------------------------------

  ==> Integral Setup <==

  ==> DiskDFJK: Density-Fitted J/K Matrices <==

    J tasked:                  Yes
    K tasked:                  Yes
    wK tasked:                  No
    OpenMP threads:              1
    Integrals threads:           1
    Memory [MiB]:            15735
    Algorithm:                Core
    Integral Cache:           LOAD
    Schwarz Cutoff:          1E-12
    Fitting Condition:       1E-10

   => Auxiliary Basis Set <=

  Basis Set: (JUN-CC-PVTZ AUX)
    Blend: JUN-CC-PVTZ-JKFIT
    Number of shells: 294
    Number of basis function: 930
    Number of Cartesian functions: 1116
    Spherical Harmonics?: true
    Max angular momentum: 4

  Minimum eigenvalue in the overlap matrix is 9.7111645389E-05.
  Using Symmetric Orthogonalization.

  SCF Guess: Superposition of Atomic Densities via on-the-fly atomic UHF.

  ==> Iterations <==

                           Total Energy        Delta E     RMS |[F,P]|

   @DF-RHF iter SAD:  -153.43439811862999   -1.53434e+02   0.00000e+00 
   @DF-RHF iter   1:  -154.01179541739458   -5.77397e-01   1.24710e-03 DIIS
   @DF-RHF iter   2:  -154.11599953518430   -1.04204e-01   6.65589e-04 DIIS
   @DF-RHF iter   3:  -154.14233118859849   -2.63317e-02   1.15069e-04 DIIS
   @DF-RHF iter   4:  -154.14387812874310   -1.54694e-03   4.36736e-05 DIIS
   @DF-RHF iter   5:  -154.14406455358056   -1.86425e-04   8.36112e-06 DIIS
   @DF-RHF iter   6:  -154.14407464259497   -1.00890e-05   1.92151e-06 DIIS
   @DF-RHF iter   7:  -154.14407537274934   -7.30154e-07   5.44855e-07 DIIS
   @DF-RHF iter   8:  -154.14407542767384   -5.49245e-08   1.75986e-07 DIIS
   @DF-RHF iter   9:  -154.14407543378056   -6.10672e-09   4.57431e-08 DIIS
   @DF-RHF iter  10:  -154.14407543422257   -4.42014e-10   9.10318e-09 DIIS
  Energy and wave function converged.


  ==> Post-Iterations <==

    Orbital Energies [Eh]
    ---------------------

    Doubly Occupied:                                                      

       1A    -20.556601     2A    -11.274080     3A    -11.218073  
       4A     -1.355840     5A     -1.013014     6A     -0.847352  
       7A     -0.685739     8A     -0.623630     9A     -0.607124  
      10A     -0.545155    11A     -0.526649    12A     -0.482588  
      13A     -0.443193  

    Virtual:                                                              

      14A      0.036063    15A      0.051180    16A      0.056044  
      17A      0.062088    18A      0.072508    19A      0.082221  
      20A      0.083779    21A      0.096627    22A      0.098604  
      23A      0.111319    24A      0.116493    25A      0.118638  
      26A      0.129980    27A      0.138402    28A      0.157795  
      29A      0.162090    30A      0.176327    31A      0.197711  
      32A      0.205577    33A      0.220109    34A      0.221419  
      35A      0.233652    36A      0.249323    37A      0.264798  
      38A      0.271413    39A      0.276491    40A      0.278447  
      41A      0.285234    42A      0.289792    43A      0.297108  
      44A      0.313994    45A      0.316756    46A      0.320375  
      47A      0.332897    48A      0.338721    49A      0.343915  
      50A      0.349538    51A      0.363448    52A      0.376368  
      53A      0.381300    54A      0.386768    55A      0.395664  
      56A      0.404583    57A      0.414906    58A      0.419508  
      59A      0.441348    60A      0.451676    61A      0.454785  
      62A      0.463769    63A      0.467759    64A      0.489800  
      65A      0.495809    66A      0.507804    67A      0.510994  
      68A      0.518188    69A      0.529320    70A      0.535281  
      71A      0.543684    72A      0.561484    73A      0.575184  
      74A      0.578316    75A      0.612683    76A      0.618589  
      77A      0.637047    78A      0.645986    79A      0.654621  
      80A      0.675811    81A      0.697993    82A      0.714926  
      83A      0.720446    84A      0.735528    85A      0.739123  
      86A      0.758799    87A      0.776028    88A      0.779742  
      89A      0.792729    90A      0.798699    91A      0.815907  
      92A      0.828978    93A      0.850946    94A      0.855309  
      95A      0.886582    96A      0.888685    97A      0.912368  
      98A      0.927489    99A      0.931617   100A      0.958443  
     101A      0.973065   102A      0.998633   103A      1.007774  
     104A      1.023301   105A      1.037518   106A      1.053715  
     107A      1.060921   108A      1.065188   109A      1.082096  
     110A      1.095264   111A      1.101893   112A      1.107870  
     113A      1.113515   114A      1.150178   115A      1.159719  
     116A      1.165073   117A      1.178581   118A      1.198603  
     119A      1.219772   120A      1.235460   121A      1.243886  
     122A      1.258569   123A      1.279559   124A      1.283078  
     125A      1.302125   126A      1.316781   127A      1.326836  
     128A      1.336524   129A      1.339285   130A      1.358880  
     131A      1.372386   132A      1.381236   133A      1.391775  
     134A      1.398281   135A      1.418367   136A      1.455166  
     137A      1.464721   138A      1.472483   139A      1.484232  
     140A      1.498589   141A      1.509423   142A      1.523491  
     143A      1.538074   144A      1.545654   145A      1.562776  
     146A      1.570757   147A      1.584678   148A      1.594312  
     149A      1.606874   150A      1.627439   151A      1.639927  
     152A      1.662613   153A      1.678099   154A      1.681949  
     155A      1.693154   156A      1.714720   157A      1.736504  
     158A      1.756757   159A      1.764639   160A      1.772080  
     161A      1.814557   162A      1.834152   163A      1.869090  
     164A      1.872512   165A      1.884244   166A      1.894670  
     167A      1.916784   168A      1.966516   169A      1.988472  
     170A      2.012015   171A      2.033223   172A      2.086672  
     173A      2.092347   174A      2.150254   175A      2.210349  
     176A      2.261058   177A      2.331388   178A      2.360702  
     179A      2.395261   180A      2.414950   181A      2.434324  
     182A      2.446946   183A      2.485997   184A      2.518980  
     185A      2.530733   186A      2.644890   187A      2.694761  
     188A      2.753301   189A      2.778843   190A      2.796513  
     191A      2.832633   192A      2.847561   193A      2.853440  
     194A      2.872002   195A      2.920682   196A      2.930887  
     197A      2.938361   198A      2.997067   199A      3.007575  
     200A      3.036549   201A      3.072132   202A      3.094032  
     203A      3.147566   204A      3.220012   205A      3.229748  
     206A      3.252520   207A      3.271464   208A      3.281141  
     209A      3.327185   210A      3.345019   211A      3.376262  
     212A      3.400283   213A      3.415260   214A      3.444006  
     215A      3.447269   216A      3.465551   217A      3.495185  
     218A      3.502531   219A      3.525836   220A      3.548760  
     221A      3.566509   222A      3.577669   223A      3.593782  
     224A      3.604565   225A      3.627996   226A      3.633797  
     227A      3.642833   228A      3.653486   229A      3.674877  
     230A      3.688214   231A      3.706217   232A      3.755087  
     233A      3.798952   234A      3.809293   235A      3.818959  
     236A      3.823702   237A      3.842889   238A      3.855675  
     239A      3.867592   240A      3.870934   241A      3.893642  
     242A      3.913219   243A      3.951271   244A      3.954481  
     245A      3.962987   246A      3.976444   247A      4.008874  
     248A      4.041425   249A      4.054485   250A      4.066456  
     251A      4.106980   252A      4.117968   253A      4.126890  
     254A      4.169448   255A      4.195164   256A      4.235479  
     257A      4.264094   258A      4.267562   259A      4.281330  
     260A      4.284538   261A      4.293634   262A      4.304330  
     263A      4.313195   264A      4.337510   265A      4.350500  
     266A      4.366899   267A      4.406560   268A      4.407775  
     269A      4.421196   270A      4.429928   271A      4.467426  
     272A      4.467995   273A      4.477072   274A      4.483497  
     275A      4.501239   276A      4.506488   277A      4.528832  
     278A      4.553202   279A      4.560041   280A      4.572344  
     281A      4.602960   282A      4.630676   283A      4.640825  
     284A      4.644789   285A      4.674786   286A      4.680984  
     287A      4.701862   288A      4.716461   289A      4.735684  
     290A      4.742217   291A      4.749983   292A      4.753541  
     293A      4.765172   294A      4.780790   295A      4.799941  
     296A      4.811927   297A      4.830929   298A      4.853051  
     299A      4.861924   300A      4.890573   301A      4.909454  
     302A      4.919586   303A      4.930192   304A      4.937829  
     305A      4.954737   306A      4.974381   307A      4.997788  
     308A      5.014993   309A      5.025235   310A      5.036088  
     311A      5.076476   312A      5.108043   313A      5.130074  
     314A      5.135493   315A      5.174179   316A      5.202327  
     317A      5.213000   318A      5.237956   319A      5.252018  
     320A      5.259368   321A      5.278143   322A      5.291901  
     323A      5.304002   324A      5.361609   325A      5.381581  
     326A      5.420904   327A      5.451932   328A      5.525753  
     329A      5.535071   330A      5.585284   331A      5.613772  
     332A      5.633065   333A      5.708718   334A      5.729725  
     335A      5.741774   336A      5.746311   337A      5.758455  
     338A      5.807341   339A      5.825502   340A      5.892143  
     341A      5.910565   342A      5.943610   343A      5.962771  
     344A      6.001526   345A      6.081361   346A      6.092268  
     347A      6.154333   348A      6.200480   349A      6.285195  
     350A      6.302087   351A      6.334056   352A      6.343264  
     353A      6.395896   354A      6.447080   355A      6.467067  
     356A      6.477982   357A      6.521181   358A      6.554515  
     359A      6.723426   360A      6.863127   361A      6.928168  
     362A      6.953569   363A      7.038318   364A      7.129683  
     365A      7.216828   366A      7.296012   367A      7.330558  
     368A      7.366582   369A      7.386311   370A      7.456607  
     371A      7.536906   372A      7.560609   373A      7.605376  
     374A      7.632596   375A      7.677842   376A      7.702195  
     377A      7.804216   378A      7.865756   379A      7.879413  
     380A      7.961245   381A      7.994778   382A      8.136917  
     383A      8.264177   384A      8.320278   385A      8.501566  
     386A      9.523620   387A      9.703352   388A      9.824408  
     389A      9.875205   390A     10.045460   391A     10.089187  
     392A     10.275099   393A     11.252816   394A     11.698051  
     395A     12.713514   396A     13.506230   397A     13.683467  
     398A     13.743822   399A     14.624958   400A     44.173277  
     401A     45.565724   402A     60.965214  

    Final Occupation by Irrep:
              A 
    DOCC [    13 ]

  @DF-RHF Final Energy:  -154.14407543422257

   => Energetics <=

    Nuclear Repulsion Energy =             81.8005162829150549
    One-Electron Energy =                -371.5311052356501023
    Two-Electron Energy =                 135.5865135185124757
    Total Energy =                       -154.1440754342225716

Computation Completed


Properties will be evaluated at   0.000000,   0.000000,   0.000000 [a0]

Properties computed using the SCF density matrix

  Nuclear Dipole Moment: [e a0]
     X:   -88.7822      Y:     7.5832      Z:    -4.0413

  Electronic Dipole Moment: [e a0]
     X:    88.6198      Y:    -8.2595      Z:     4.2546

  Dipole Moment: [e a0]
     X:    -0.1625      Y:    -0.6763      Z:     0.2133     Total:     0.7275

  Dipole Moment: [D]
     X:    -0.4130      Y:    -1.7189      Z:     0.5421     Total:     1.8491


*** tstop() called on r282 at Thu Sep  9 11:54:49 2021
Module time:
	user time   =      14.28 seconds =       0.24 minutes
	system time =       0.36 seconds =       0.01 minutes
	total time  =         15 seconds =       0.25 minutes
Total time:
	user time   =      54.45 seconds =       0.91 minutes
	system time =       1.46 seconds =       0.02 minutes
	total time  =         56 seconds =       0.93 minutes
  Constructing Basis Sets for SAPT...

   => Loading Basis Set <=

    Name: (JUN-CC-PVTZ AUX)
    Role: RIFIT
    Keyword: DF_BASIS_SAPT
    atoms 1-2, 10-11             entry C          line   132 file /home/r08543048/miniconda3/share/psi4/basis/jun-cc-pvtz-ri.gbs 
    atoms 3-5, 7-9, 12-14, 16-18 entry H          line    30 file /home/r08543048/miniconda3/share/psi4/basis/jun-cc-pvtz-ri.gbs 
    atoms 6, 15                  entry O          line   244 file /home/r08543048/miniconda3/share/psi4/basis/jun-cc-pvtz-ri.gbs 


  //>>>>>>>>>>>>>>>>>>>>>>>>>>>>>>>>>>>//
  //               SAPT0               //
  //<<<<<<<<<<<<<<<<<<<<<<<<<<<<<<<<<<<//


*** tstart() called on r282
*** at Thu Sep  9 11:54:49 2021

        SAPT0  
    Ed Hohenstein
     6 June 2009

      Orbital Information
  --------------------------
    NSO        =       402
    NMO        =       402
    NRI        =       942
    NOCC A     =        13
    NOCC B     =        13
    FOCC A     =         3
    FOCC B     =         3
    NVIR A     =       389
    NVIR B     =       389

    Elst10,r            =    -0.016188321016 [Eh]
    Exch10              =     0.016258271644 [Eh]
    Exch10 (S^2)        =     0.016131147972 [Eh]

    Iter     Energy [mEh]          dE [mEh]         Residual      Time [s]
       1      -3.34733215       3.347332150      11.392539392             1
       2      -4.25282234       0.905490191       4.991769651             1
       3      -4.34562346       0.092801121       1.385122996             2
       4      -4.32613113      -0.019492336       0.391451362             2
       5      -4.32071602      -0.005415104       0.080301568             3
       6      -4.32189780       0.001181773       0.027200987             3
       7      -4.32212528       0.000227486       0.006966062             4
       8      -4.32203549      -0.000089793       0.001803889             4
       9      -4.32203041      -0.000005078       0.000399347             5
      10      -4.32203517       0.000004762       0.000103935             5
      11      -4.32203518       0.000000005       0.000030236             6
      12      -4.32203486      -0.000000322       0.000008351             6
      13      -4.32203490       0.000000040       0.000002266             6
      14      -4.32203491       0.000000011       0.000000505             7

    CHF Iterations converged


    Iter     Energy [mEh]          dE [mEh]         Residual      Time [s]
       1      -2.58127011       2.581270108       7.262782888             0
       2      -2.92618568       0.344915570       2.381347827             1
       3      -2.97720464       0.051018967       0.707796885             2
       4      -2.97313602      -0.004068620       0.300462125             2
       5      -2.96673435      -0.006401680       0.064256662             3
       6      -2.96786112       0.001126776       0.021085742             3
       7      -2.96804841       0.000187284       0.005670810             4
       8      -2.96794295      -0.000105454       0.001314402             4
       9      -2.96795547       0.000012518       0.000309624             4
      10      -2.96795604       0.000000571       0.000096133             5
      11      -2.96795546      -0.000000576       0.000026427             5
      12      -2.96795541      -0.000000059       0.000005432             6
      13      -2.96795545       0.000000041       0.000001071             6
      14      -2.96795544      -0.000000004       0.000000244             7

    CHF Iterations converged

    Ind20,r (A<-B)      =    -0.004322034907 [Eh]
    Ind20,r (B<-A)      =    -0.002967955442 [Eh]
    Ind20,r             =    -0.007289990349 [Eh]
    Exch-Ind20,r (A<-B) =     0.002209073079 [Eh]
    Exch-Ind20,r (B<-A) =     0.002214653641 [Eh]
    Exch-Ind20,r        =     0.004423726720 [Eh]
    Disp20              =    -0.008693648516 [Eh]
    Disp20 (SS)         =    -0.004346824258 [Eh]
    Disp20 (OS)         =    -0.004346824258 [Eh]
    Exch-Disp20         =     0.001296176080 [Eh]
    Exch-Disp20 (SS)    =     0.000817501322 [Eh]
    Exch-Disp20 (OS)    =     0.000478674758 [Eh]

    SAPT Results 
  --------------------------------------------------------------------------------------------------------
    Electrostatics                -16.18832102 [mEh]     -10.15832480 [kcal/mol]     -42.50243097 [kJ/mol]
      Elst10,r                    -16.18832102 [mEh]     -10.15832480 [kcal/mol]     -42.50243097 [kJ/mol]

    Exchange                       16.25827164 [mEh]      10.20221948 [kcal/mol]      42.68608632 [kJ/mol]
      Exch10                       16.25827164 [mEh]      10.20221948 [kcal/mol]      42.68608632 [kJ/mol]
      Exch10(S^2)                  16.13114797 [mEh]      10.12244818 [kcal/mol]      42.35232317 [kJ/mol]

    Induction                      -4.93461599 [mEh]      -3.09651828 [kcal/mol]     -12.95583249 [kJ/mol]
      Ind20,r                      -7.28999035 [mEh]      -4.57453801 [kcal/mol]     -19.13986703 [kJ/mol]
      Exch-Ind20,r                  4.42372672 [mEh]       2.77593043 [kcal/mol]      11.61449290 [kJ/mol]
      delta HF,r (2)               -2.06835236 [mEh]      -1.29791070 [kcal/mol]      -5.43045836 [kJ/mol]

    Dispersion                     -7.39747244 [mEh]      -4.64198404 [kcal/mol]     -19.42206120 [kJ/mol]
      Disp20                       -8.69364852 [mEh]      -5.45534681 [kcal/mol]     -22.82517103 [kJ/mol]
      Exch-Disp20                   1.29617608 [mEh]       0.81336277 [kcal/mol]       3.40310983 [kJ/mol]
      Disp20 (SS)                  -4.34682426 [mEh]      -2.72767340 [kcal/mol]     -11.41258552 [kJ/mol]
      Disp20 (OS)                  -4.34682426 [mEh]      -2.72767340 [kcal/mol]     -11.41258552 [kJ/mol]
      Exch-Disp20 (SS)              0.81750132 [mEh]       0.51298982 [kcal/mol]       2.14634943 [kJ/mol]
      Exch-Disp20 (OS)              0.47867476 [mEh]       0.30037295 [kcal/mol]       1.25676040 [kJ/mol]

  Total HF                         -4.86466536 [mEh]      -3.05262360 [kcal/mol]     -12.77217714 [kJ/mol]
  Total SAPT0                     -12.26213779 [mEh]      -7.69460763 [kcal/mol]     -32.19423834 [kJ/mol]

  Special recipe for scaled SAPT0 (see Manual):
    Electrostatics sSAPT0         -16.18832102 [mEh]     -10.15832480 [kcal/mol]     -42.50243097 [kJ/mol]
    Exchange sSAPT0                16.25827164 [mEh]      10.20221948 [kcal/mol]      42.68608632 [kJ/mol]
    Induction sSAPT0               -4.82920431 [mEh]      -3.03037146 [kcal/mol]     -12.67907417 [kJ/mol]
    Dispersion sSAPT0              -7.36658624 [mEh]      -4.62260265 [kcal/mol]     -19.34096951 [kJ/mol]
  Total sSAPT0                    -12.12583992 [mEh]      -7.60907943 [kcal/mol]     -31.83638833 [kJ/mol]
  --------------------------------------------------------------------------------------------------------

*** tstop() called on r282 at Thu Sep  9 11:55:39 2021
Module time:
	user time   =      41.25 seconds =       0.69 minutes
	system time =       8.92 seconds =       0.15 minutes
	total time  =         50 seconds =       0.83 minutes
Total time:
	user time   =      95.82 seconds =       1.60 minutes
	system time =      10.38 seconds =       0.17 minutes
	total time  =        106 seconds =       1.77 minutes

    Psi4 stopped on: Thursday, 09 September 2021 11:55AM
    Psi4 wall time for execution: 0:01:46.49

*** Psi4 exiting successfully. Buy a developer a beer!
