
    -----------------------------------------------------------------------
          Psi4: An Open-Source Ab Initio Electronic Structure Package
                               Psi4 1.3.2 release

                         Git: Rev {HEAD} ecbda83 


    R. M. Parrish, L. A. Burns, D. G. A. Smith, A. C. Simmonett,
    A. E. DePrince III, E. G. Hohenstein, U. Bozkaya, A. Yu. Sokolov,
    R. Di Remigio, R. M. Richard, J. F. Gonthier, A. M. James,
    H. R. McAlexander, A. Kumar, M. Saitow, X. Wang, B. P. Pritchard,
    P. Verma, H. F. Schaefer III, K. Patkowski, R. A. King, E. F. Valeev,
    F. A. Evangelista, J. M. Turney, T. D. Crawford, and C. D. Sherrill,
    J. Chem. Theory Comput. 13(7) pp 3185--3197 (2017).
    (doi: 10.1021/acs.jctc.7b00174)


                         Additional Contributions by
    P. Kraus, H. Kruse, M. H. Lechner, M. C. Schieber, R. A. Shaw,
    A. Alenaizan, R. Galvelis, Z. L. Glick, S. Lehtola, and J. P. Misiewicz

    -----------------------------------------------------------------------


    Psi4 started on: Friday, 10 September 2021 12:16PM

    Process ID: 56601
    Host:       r282
    PSIDATADIR: /home/r08543048/miniconda3/share/psi4
    Memory:     500.0 MiB
    Threads:    1
    
  ==> Input File <==

--------------------------------------------------------------------------
# Any line starting with the # character is a comment line
#! Sample  computation

memory 22 gb

molecule Dimer {
0 1
 C  2.446413    0.600090    0.162328
 C  1.540107   -0.245060    1.043803
 H  1.866667    1.439852   -0.230765
 H  3.235077    1.027841    0.787194
 O  0.434572   -0.787591    0.332191
 H  2.094505   -1.100626    1.433100
 H  1.194254    0.344929    1.899056
 H -0.132170   -0.045880    0.062614
 C  3.053813   -0.201496   -0.981129
 H  3.675583    0.424473   -1.620313
 H  3.675928   -1.009780   -0.594104
 H  2.270991   -0.647666   -1.591804



 --
0 1
 C -2.966208   -0.893434   -0.429861
 C -2.693621    0.399484    0.309388
 O -1.592430    1.126277   -0.259652
 H -3.252388   -0.695464   -1.463911
 H -3.785152   -1.433259    0.045800
 H -2.079807   -1.525330   -0.424276
 H -3.580616    1.036185    0.332827
 H -2.393826    0.199004    1.335703
 H -1.809203    1.318741   -1.178610










units angstrom

no_reorient
symmetry c1
}

set globals{
  basis jun-cc-pvtz
}

energy('sapt0')


--------------------------------------------------------------------------

  Memory set to  20.489 GiB by Python driver.

  //>>>>>>>>>>>>>>>>>>>>>>>>>>>>>>>>>>>//
  //              Dimer HF             //
  //<<<<<<<<<<<<<<<<<<<<<<<<<<<<<<<<<<<//


*** tstart() called on r282
*** at Fri Sep 10 12:16:44 2021

   => Loading Basis Set <=

    Name: JUN-CC-PVTZ
    Role: ORBITAL
    Keyword: BASIS
    atoms 1-2, 9, 13-14          entry C          line   217 file /home/r08543048/miniconda3/share/psi4/basis/jun-cc-pvtz.gbs 
    atoms 3-4, 6-8, 10-12, 16-21 entry H          line    36 file /home/r08543048/miniconda3/share/psi4/basis/jun-cc-pvtz.gbs 
    atoms 5, 15                  entry O          line   305 file /home/r08543048/miniconda3/share/psi4/basis/jun-cc-pvtz.gbs 


         ---------------------------------------------------------
                                   SCF
               by Justin Turney, Rob Parrish, Andy Simmonett
                          and Daniel G. A. Smith
                              RHF Reference
                        1 Threads,  20980 MiB Core
         ---------------------------------------------------------

  ==> Geometry <==

    Molecular point group: c1
    Full point group: C1

    Geometry (in Angstrom), charge = 0, multiplicity = 1:

       Center              X                  Y                   Z               Mass       
    ------------   -----------------  -----------------  -----------------  -----------------
         C            2.455520325145     0.593868827786     0.151039852277    12.000000000000
         C            1.549214325145    -0.251281172214     1.032514852277    12.000000000000
         H            1.875774325145     1.433630827786    -0.242053147723     1.007825032230
         H            3.244184325145     1.021619827786     0.775905852277     1.007825032230
         O            0.443679325145    -0.793812172214     0.320902852277    15.994914619570
         H            2.103612325145    -1.106847172214     1.421811852277     1.007825032230
         H            1.203361325145     0.338707827786     1.887767852277     1.007825032230
         H           -0.123062674855    -0.052101172214     0.051325852277     1.007825032230
         C            3.062920325145    -0.207717172214    -0.992417147723    12.000000000000
         H            3.684690325145     0.418251827786    -1.631601147723     1.007825032230
         H            3.685035325145    -1.016001172214    -0.605392147723     1.007825032230
         H            2.280098325145    -0.653887172214    -1.603092147723     1.007825032230
         C           -2.957100674855    -0.899655172214    -0.441149147723    12.000000000000
         C           -2.684513674855     0.393262827786     0.298099852277    12.000000000000
         O           -1.583322674855     1.120055827786    -0.270940147723    15.994914619570
         H           -3.243280674855    -0.701685172214    -1.475199147723     1.007825032230
         H           -3.776044674855    -1.439480172214     0.034511852277     1.007825032230
         H           -2.070699674855    -1.531551172214    -0.435564147723     1.007825032230
         H           -3.571508674855     1.029963827786     0.321538852277     1.007825032230
         H           -2.384718674855     0.192782827786     1.324414852277     1.007825032230
         H           -1.800095674855     1.312519827786    -1.189898147723     1.007825032230

  Running in c1 symmetry.

  Rotational constants: A =      0.15350  B =      0.02805  C =      0.02748 [cm^-1]
  Rotational constants: A =   4601.85873  B =    841.02421  C =    823.79550 [MHz]
  Nuclear repulsion =  323.275053926269493

  Charge       = 0
  Multiplicity = 1
  Electrons    = 60
  Nalpha       = 30
  Nbeta        = 30

  ==> Algorithm <==

  SCF Algorithm Type is DF.
  DIIS enabled.
  MOM disabled.
  Fractional occupation disabled.
  Guess Type is SAD.
  Energy threshold   = 1.00e-08
  Density threshold  = 1.00e-08
  Integral threshold = 0.00e+00

  ==> Primary Basis <==

  Basis Set: JUN-CC-PVTZ
    Blend: JUN-CC-PVTZ
    Number of shells: 175
    Number of basis function: 469
    Number of Cartesian functions: 525
    Spherical Harmonics?: true
    Max angular momentum: 3

   => Loading Basis Set <=

    Name: (JUN-CC-PVTZ AUX)
    Role: JKFIT
    Keyword: DF_BASIS_SCF
    atoms 1-2, 9, 13-14          entry C          line   152 file /home/r08543048/miniconda3/share/psi4/basis/jun-cc-pvtz-jkfit.gbs 
    atoms 3-4, 6-8, 10-12, 16-21 entry H          line    70 file /home/r08543048/miniconda3/share/psi4/basis/jun-cc-pvtz-jkfit.gbs 
    atoms 5, 15                  entry O          line   272 file /home/r08543048/miniconda3/share/psi4/basis/jun-cc-pvtz-jkfit.gbs 

  ==> Pre-Iterations <==

   -------------------------------------------------------
    Irrep   Nso     Nmo     Nalpha   Nbeta   Ndocc  Nsocc
   -------------------------------------------------------
     A        469     469       0       0       0       0
   -------------------------------------------------------
    Total     469     469      30      30      30       0
   -------------------------------------------------------

  ==> Integral Setup <==

  ==> DiskDFJK: Density-Fitted J/K Matrices <==

    J tasked:                  Yes
    K tasked:                  Yes
    wK tasked:                  No
    OpenMP threads:              1
    Integrals threads:           1
    Memory [MiB]:            15735
    Algorithm:                Core
    Integral Cache:           SAVE
    Schwarz Cutoff:          1E-12
    Fitting Condition:       1E-10

   => Auxiliary Basis Set <=

  Basis Set: (JUN-CC-PVTZ AUX)
    Blend: JUN-CC-PVTZ-JKFIT
    Number of shells: 343
    Number of basis function: 1085
    Number of Cartesian functions: 1302
    Spherical Harmonics?: true
    Max angular momentum: 4

  Minimum eigenvalue in the overlap matrix is 7.0981507869E-05.
  Using Symmetric Orthogonalization.

  SCF Guess: Superposition of Atomic Densities via on-the-fly atomic UHF.

  ==> Iterations <==

                           Total Energy        Delta E     RMS |[F,P]|

   @DF-RHF iter SAD:  -346.06239275176074   -3.46062e+02   0.00000e+00 
   @DF-RHF iter   1:  -347.04031870229886   -9.77926e-01   1.58213e-03 DIIS
   @DF-RHF iter   2:  -347.28026391558382   -2.39945e-01   8.02333e-04 DIIS
   @DF-RHF iter   3:  -347.33693105105152   -5.66671e-02   1.43327e-04 DIIS
   @DF-RHF iter   4:  -347.34045769772945   -3.52665e-03   5.02331e-05 DIIS
   @DF-RHF iter   5:  -347.34077891961539   -3.21222e-04   1.13906e-05 DIIS
   @DF-RHF iter   6:  -347.34080238484881   -2.34652e-05   2.61974e-06 DIIS
   @DF-RHF iter   7:  -347.34080406413204   -1.67928e-06   7.28305e-07 DIIS
   @DF-RHF iter   8:  -347.34080418511866   -1.20987e-07   2.37627e-07 DIIS
   @DF-RHF iter   9:  -347.34080419927022   -1.41516e-08   6.41304e-08 DIIS
   @DF-RHF iter  10:  -347.34080420031330   -1.04308e-09   2.25393e-08 DIIS
   @DF-RHF iter  11:  -347.34080420038225   -6.89511e-11   6.91898e-09 DIIS
  Energy and wave function converged.


  ==> Post-Iterations <==

    Orbital Energies [Eh]
    ---------------------

    Doubly Occupied:                                                      

       1A    -20.575153     2A    -20.527580     3A    -11.283802  
       4A    -11.255339     5A    -11.219757     6A    -11.208422  
       7A    -11.199151     8A     -1.374791     9A     -1.331693  
      10A     -1.037647    11A     -1.021224    12A     -0.905802  
      13A     -0.856929    14A     -0.796904    15A     -0.705815  
      16A     -0.657694    17A     -0.632208    18A     -0.624899  
      19A     -0.618118    20A     -0.608023    21A     -0.556941  
      22A     -0.549587    23A     -0.531670    24A     -0.515453  
      25A     -0.506547    26A     -0.494458    27A     -0.472497  
      28A     -0.463549    29A     -0.450297    30A     -0.417302  

    Virtual:                                                              

      31A      0.054356    32A      0.055492    33A      0.058704  
      34A      0.063555    35A      0.068490    36A      0.074737  
      37A      0.083045    38A      0.095926    39A      0.099622  
      40A      0.105332    41A      0.112036    42A      0.115080  
      43A      0.118623    44A      0.124751    45A      0.142430  
      46A      0.148310    47A      0.161688    48A      0.188220  
      49A      0.191530    50A      0.201158    51A      0.208643  
      52A      0.221705    53A      0.226002    54A      0.240285  
      55A      0.245172    56A      0.254058    57A      0.266295  
      58A      0.273913    59A      0.277543    60A      0.285276  
      61A      0.289131    62A      0.294026    63A      0.298759  
      64A      0.304025    65A      0.312102    66A      0.314591  
      67A      0.319496    68A      0.324205    69A      0.337679  
      70A      0.343608    71A      0.347407    72A      0.351580  
      73A      0.356235    74A      0.361019    75A      0.365376  
      76A      0.375501    77A      0.385090    78A      0.387702  
      79A      0.402960    80A      0.406598    81A      0.417017  
      82A      0.432763    83A      0.434167    84A      0.442574  
      85A      0.456867    86A      0.463094    87A      0.467518  
      88A      0.474799    89A      0.495821    90A      0.500434  
      91A      0.507443    92A      0.511446    93A      0.518368  
      94A      0.530145    95A      0.530877    96A      0.544496  
      97A      0.550713    98A      0.555735    99A      0.562781  
     100A      0.569779   101A      0.599069   102A      0.628263  
     103A      0.632107   104A      0.641097   105A      0.648653  
     106A      0.658913   107A      0.664764   108A      0.683979  
     109A      0.693258   110A      0.699825   111A      0.711429  
     112A      0.727840   113A      0.739230   114A      0.742509  
     115A      0.756432   116A      0.766005   117A      0.780136  
     118A      0.780383   119A      0.787260   120A      0.794908  
     121A      0.804518   122A      0.812233   123A      0.816149  
     124A      0.827464   125A      0.835628   126A      0.846154  
     127A      0.854501   128A      0.866422   129A      0.871995  
     130A      0.877662   131A      0.884927   132A      0.886994  
     133A      0.894309   134A      0.909873   135A      0.922754  
     136A      0.937613   137A      0.948295   138A      0.956014  
     139A      0.968864   140A      0.979321   141A      1.007215  
     142A      1.013702   143A      1.024606   144A      1.028937  
     145A      1.051945   146A      1.055390   147A      1.065779  
     148A      1.103020   149A      1.116048   150A      1.130559  
     151A      1.141371   152A      1.166669   153A      1.174518  
     154A      1.194890   155A      1.205470   156A      1.227750  
     157A      1.238430   158A      1.250050   159A      1.263047  
     160A      1.308935   161A      1.312707   162A      1.326535  
     163A      1.330316   164A      1.341421   165A      1.349029  
     166A      1.365362   167A      1.374467   168A      1.389089  
     169A      1.396350   170A      1.400501   171A      1.404005  
     172A      1.410612   173A      1.419865   174A      1.428283  
     175A      1.447509   176A      1.456551   177A      1.481575  
     178A      1.487185   179A      1.493421   180A      1.496403  
     181A      1.511380   182A      1.518670   183A      1.534565  
     184A      1.555675   185A      1.562031   186A      1.566742  
     187A      1.591186   188A      1.601461   189A      1.608531  
     190A      1.617690   191A      1.629589   192A      1.638746  
     193A      1.641400   194A      1.646650   195A      1.674068  
     196A      1.681535   197A      1.690845   198A      1.707944  
     199A      1.717020   200A      1.723079   201A      1.739712  
     202A      1.751635   203A      1.766304   204A      1.780093  
     205A      1.786244   206A      1.809665   207A      1.829417  
     208A      1.843959   209A      1.873918   210A      1.885434  
     211A      1.898182   212A      1.908224   213A      1.930520  
     214A      1.939127   215A      1.961742   216A      1.990514  
     217A      1.999506   218A      2.078238   219A      2.129485  
     220A      2.199156   221A      2.278778   222A      2.338160  
     223A      2.373472   224A      2.403704   225A      2.419302  
     226A      2.461454   227A      2.513048   228A      2.541430  
     229A      2.599384   230A      2.631279   231A      2.653200  
     232A      2.773509   233A      2.801798   234A      2.811986  
     235A      2.824320   236A      2.833823   237A      2.843804  
     238A      2.858141   239A      2.868585   240A      2.882760  
     241A      2.893495   242A      2.904829   243A      2.924152  
     244A      2.950766   245A      2.968929   246A      2.985666  
     247A      2.992343   248A      3.037871   249A      3.049287  
     250A      3.054318   251A      3.096255   252A      3.121753  
     253A      3.134768   254A      3.143246   255A      3.150234  
     256A      3.171871   257A      3.198223   258A      3.215098  
     259A      3.234269   260A      3.251615   261A      3.268923  
     262A      3.274235   263A      3.301076   264A      3.308591  
     265A      3.318329   266A      3.324442   267A      3.345783  
     268A      3.349410   269A      3.372390   270A      3.378747  
     271A      3.389016   272A      3.412473   273A      3.422429  
     274A      3.435398   275A      3.444281   276A      3.448241  
     277A      3.463686   278A      3.472165   279A      3.480287  
     280A      3.483693   281A      3.495290   282A      3.506893  
     283A      3.511776   284A      3.526565   285A      3.530239  
     286A      3.545100   287A      3.553725   288A      3.560662  
     289A      3.577631   290A      3.595023   291A      3.606866  
     292A      3.622503   293A      3.629525   294A      3.647274  
     295A      3.653362   296A      3.679522   297A      3.682522  
     298A      3.706557   299A      3.732923   300A      3.750733  
     301A      3.752371   302A      3.775433   303A      3.785271  
     304A      3.795496   305A      3.796165   306A      3.806595  
     307A      3.833513   308A      3.844047   309A      3.863288  
     310A      3.878952   311A      3.889584   312A      3.899610  
     313A      3.916306   314A      3.931630   315A      3.951776  
     316A      3.965447   317A      3.971055   318A      3.984714  
     319A      4.010224   320A      4.043939   321A      4.060234  
     322A      4.081470   323A      4.086527   324A      4.105252  
     325A      4.122139   326A      4.136001   327A      4.169199  
     328A      4.203899   329A      4.219122   330A      4.225245  
     331A      4.233857   332A      4.237933   333A      4.258002  
     334A      4.262406   335A      4.269467   336A      4.282533  
     337A      4.298778   338A      4.305148   339A      4.324542  
     340A      4.332775   341A      4.344374   342A      4.354139  
     343A      4.369538   344A      4.382023   345A      4.386771  
     346A      4.392730   347A      4.414952   348A      4.424109  
     349A      4.426464   350A      4.448047   351A      4.459327  
     352A      4.467249   353A      4.474630   354A      4.485375  
     355A      4.495421   356A      4.498750   357A      4.516917  
     358A      4.528756   359A      4.546669   360A      4.560843  
     361A      4.570898   362A      4.592512   363A      4.604538  
     364A      4.632265   365A      4.643052   366A      4.659693  
     367A      4.670948   368A      4.688053   369A      4.696649  
     370A      4.718115   371A      4.722290   372A      4.738576  
     373A      4.767286   374A      4.785844   375A      4.823580  
     376A      4.826463   377A      4.846817   378A      4.864830  
     379A      4.877021   380A      4.890027   381A      4.928604  
     382A      4.947962   383A      5.003091   384A      5.027490  
     385A      5.049685   386A      5.082661   387A      5.127792  
     388A      5.150765   389A      5.172990   390A      5.196835  
     391A      5.199507   392A      5.209720   393A      5.221083  
     394A      5.243932   395A      5.260560   396A      5.274062  
     397A      5.287706   398A      5.290673   399A      5.310160  
     400A      5.315324   401A      5.351450   402A      5.393184  
     403A      5.424309   404A      5.435341   405A      5.440371  
     406A      5.497410   407A      5.498332   408A      5.522240  
     409A      5.546885   410A      5.598432   411A      5.608979  
     412A      5.615101   413A      5.623656   414A      5.670897  
     415A      5.720111   416A      5.743946   417A      5.757544  
     418A      5.759189   419A      5.774419   420A      5.790006  
     421A      5.820830   422A      5.835242   423A      5.846306  
     424A      5.900068   425A      5.907745   426A      5.922121  
     427A      5.934239   428A      5.961294   429A      5.981492  
     430A      5.990872   431A      6.054377   432A      6.114797  
     433A      6.138725   434A      6.277982   435A      6.330505  
     436A      6.370487   437A      6.466390   438A      6.467111  
     439A      6.482512   440A      6.495762   441A      6.526218  
     442A      6.535652   443A      6.560351   444A      6.606946  
     445A      6.892146   446A      6.975895   447A      7.042357  
     448A      7.069729   449A      7.204183   450A      7.233202  
     451A      7.317253   452A      7.348719   453A      7.376009  
     454A      7.410059   455A      7.531935   456A      7.555286  
     457A      7.640590   458A      7.742018   459A      7.833262  
     460A      7.948430   461A      8.165754   462A      8.223325  
     463A     13.628573   464A     13.709142   465A     13.734303  
     466A     13.909039   467A     14.112741   468A     14.552824  
     469A     14.594026  

    Final Occupation by Irrep:
              A 
    DOCC [    30 ]

  @DF-RHF Final Energy:  -347.34080420038225

   => Energetics <=

    Nuclear Repulsion Energy =            323.2750539262694929
    One-Electron Energy =               -1114.4332064627237742
    Two-Electron Energy =                 443.8173483360720297
    Total Energy =                       -347.3408042003822516

Computation Completed


Properties will be evaluated at   0.000000,   0.000000,   0.000000 [a0]

Properties computed using the SCF density matrix

  Nuclear Dipole Moment: [e a0]
     X:     1.0326      Y:    -0.7054      Z:    -1.2799

  Electronic Dipole Moment: [e a0]
     X:    -1.7775      Y:     1.1864      Z:     1.0488

  Dipole Moment: [e a0]
     X:    -0.7449      Y:     0.4811      Z:    -0.2311     Total:     0.9163

  Dipole Moment: [D]
     X:    -1.8933      Y:     1.2228      Z:    -0.5874     Total:     2.3291


*** tstop() called on r282 at Fri Sep 10 12:17:36 2021
Module time:
	user time   =      50.13 seconds =       0.84 minutes
	system time =       1.16 seconds =       0.02 minutes
	total time  =         52 seconds =       0.87 minutes
Total time:
	user time   =      50.13 seconds =       0.84 minutes
	system time =       1.16 seconds =       0.02 minutes
	total time  =         52 seconds =       0.87 minutes

  //>>>>>>>>>>>>>>>>>>>>>>>>>>>>>>>>>>>//
  //            Monomer A HF           //
  //<<<<<<<<<<<<<<<<<<<<<<<<<<<<<<<<<<<//


*** tstart() called on r282
*** at Fri Sep 10 12:17:36 2021

   => Loading Basis Set <=

    Name: JUN-CC-PVTZ
    Role: ORBITAL
    Keyword: BASIS
    atoms 1-2, 9, 13-14          entry C          line   217 file /home/r08543048/miniconda3/share/psi4/basis/jun-cc-pvtz.gbs 
    atoms 3-4, 6-8, 10-12, 16-21 entry H          line    36 file /home/r08543048/miniconda3/share/psi4/basis/jun-cc-pvtz.gbs 
    atoms 5, 15                  entry O          line   305 file /home/r08543048/miniconda3/share/psi4/basis/jun-cc-pvtz.gbs 


         ---------------------------------------------------------
                                   SCF
               by Justin Turney, Rob Parrish, Andy Simmonett
                          and Daniel G. A. Smith
                              RHF Reference
                        1 Threads,  20980 MiB Core
         ---------------------------------------------------------

  ==> Geometry <==

    Molecular point group: c1
    Full point group: C1

    Geometry (in Angstrom), charge = 0, multiplicity = 1:

       Center              X                  Y                   Z               Mass       
    ------------   -----------------  -----------------  -----------------  -----------------
         C            2.455520325145     0.593868827786     0.151039852277    12.000000000000
         C            1.549214325145    -0.251281172214     1.032514852277    12.000000000000
         H            1.875774325145     1.433630827786    -0.242053147723     1.007825032230
         H            3.244184325145     1.021619827786     0.775905852277     1.007825032230
         O            0.443679325145    -0.793812172214     0.320902852277    15.994914619570
         H            2.103612325145    -1.106847172214     1.421811852277     1.007825032230
         H            1.203361325145     0.338707827786     1.887767852277     1.007825032230
         H           -0.123062674855    -0.052101172214     0.051325852277     1.007825032230
         C            3.062920325145    -0.207717172214    -0.992417147723    12.000000000000
         H            3.684690325145     0.418251827786    -1.631601147723     1.007825032230
         H            3.685035325145    -1.016001172214    -0.605392147723     1.007825032230
         H            2.280098325145    -0.653887172214    -1.603092147723     1.007825032230
      Gh(C)          -2.957100674855    -0.899655172214    -0.441149147723    12.000000000000
      Gh(C)          -2.684513674855     0.393262827786     0.298099852277    12.000000000000
      Gh(O)          -1.583322674855     1.120055827786    -0.270940147723    15.994914619570
      Gh(H)          -3.243280674855    -0.701685172214    -1.475199147723     1.007825032230
      Gh(H)          -3.776044674855    -1.439480172214     0.034511852277     1.007825032230
      Gh(H)          -2.070699674855    -1.531551172214    -0.435564147723     1.007825032230
      Gh(H)          -3.571508674855     1.029963827786     0.321538852277     1.007825032230
      Gh(H)          -2.384718674855     0.192782827786     1.324414852277     1.007825032230
      Gh(H)          -1.800095674855     1.312519827786    -1.189898147723     1.007825032230

  Running in c1 symmetry.

  Rotational constants: A =      0.15350  B =      0.02805  C =      0.02748 [cm^-1]
  Rotational constants: A =   4601.85873  B =    841.02421  C =    823.79550 [MHz]
  Nuclear repulsion =  132.813495558914667

  Charge       = 0
  Multiplicity = 1
  Electrons    = 34
  Nalpha       = 17
  Nbeta        = 17

  ==> Algorithm <==

  SCF Algorithm Type is DF.
  DIIS enabled.
  MOM disabled.
  Fractional occupation disabled.
  Guess Type is SAD.
  Energy threshold   = 1.00e-08
  Density threshold  = 1.00e-08
  Integral threshold = 0.00e+00

  ==> Primary Basis <==

  Basis Set: JUN-CC-PVTZ
    Blend: JUN-CC-PVTZ
    Number of shells: 175
    Number of basis function: 469
    Number of Cartesian functions: 525
    Spherical Harmonics?: true
    Max angular momentum: 3

   => Loading Basis Set <=

    Name: (JUN-CC-PVTZ AUX)
    Role: JKFIT
    Keyword: DF_BASIS_SCF
    atoms 1-2, 9, 13-14          entry C          line   152 file /home/r08543048/miniconda3/share/psi4/basis/jun-cc-pvtz-jkfit.gbs 
    atoms 3-4, 6-8, 10-12, 16-21 entry H          line    70 file /home/r08543048/miniconda3/share/psi4/basis/jun-cc-pvtz-jkfit.gbs 
    atoms 5, 15                  entry O          line   272 file /home/r08543048/miniconda3/share/psi4/basis/jun-cc-pvtz-jkfit.gbs 

  ==> Pre-Iterations <==

   -------------------------------------------------------
    Irrep   Nso     Nmo     Nalpha   Nbeta   Ndocc  Nsocc
   -------------------------------------------------------
     A        469     469       0       0       0       0
   -------------------------------------------------------
    Total     469     469      17      17      17       0
   -------------------------------------------------------

  ==> Integral Setup <==

  ==> DiskDFJK: Density-Fitted J/K Matrices <==

    J tasked:                  Yes
    K tasked:                  Yes
    wK tasked:                  No
    OpenMP threads:              1
    Integrals threads:           1
    Memory [MiB]:            15735
    Algorithm:                Core
    Integral Cache:           LOAD
    Schwarz Cutoff:          1E-12
    Fitting Condition:       1E-10

   => Auxiliary Basis Set <=

  Basis Set: (JUN-CC-PVTZ AUX)
    Blend: JUN-CC-PVTZ-JKFIT
    Number of shells: 343
    Number of basis function: 1085
    Number of Cartesian functions: 1302
    Spherical Harmonics?: true
    Max angular momentum: 4

  Minimum eigenvalue in the overlap matrix is 7.0981507869E-05.
  Using Symmetric Orthogonalization.

  SCF Guess: Superposition of Atomic Densities via on-the-fly atomic UHF.

  ==> Iterations <==

                           Total Energy        Delta E     RMS |[F,P]|

   @DF-RHF iter SAD:  -192.49925875807057   -1.92499e+02   0.00000e+00 
   @DF-RHF iter   1:  -193.01039886434592   -5.11140e-01   1.22060e-03 DIIS
   @DF-RHF iter   2:  -193.15149339146654   -1.41095e-01   6.48565e-04 DIIS
   @DF-RHF iter   3:  -193.18906016880265   -3.75668e-02   1.09836e-04 DIIS
   @DF-RHF iter   4:  -193.19117194071202   -2.11177e-03   4.01099e-05 DIIS
   @DF-RHF iter   5:  -193.19137180143207   -1.99861e-04   9.08381e-06 DIIS
   @DF-RHF iter   6:  -193.19138635390360   -1.45525e-05   1.89899e-06 DIIS
   @DF-RHF iter   7:  -193.19138732145291   -9.67549e-07   4.84559e-07 DIIS
   @DF-RHF iter   8:  -193.19138737892752   -5.74746e-08   1.63268e-07 DIIS
   @DF-RHF iter   9:  -193.19138738549145   -6.56394e-09   4.35116e-08 DIIS
   @DF-RHF iter  10:  -193.19138738604241   -5.50955e-10   9.53926e-09 DIIS
  Energy and wave function converged.


  ==> Post-Iterations <==

    Orbital Energies [Eh]
    ---------------------

    Doubly Occupied:                                                      

       1A    -20.556287     2A    -11.271268     3A    -11.221568  
       4A    -11.208552     5A     -1.355742     6A     -1.050590  
       7A     -0.918993     8A     -0.810398     9A     -0.676876  
      10A     -0.638502    11A     -0.623876    12A     -0.564983  
      13A     -0.529911    14A     -0.521880    15A     -0.484621  
      16A     -0.470807    17A     -0.436343  

    Virtual:                                                              

      18A      0.034830    19A      0.049557    20A      0.054101  
      21A      0.059436    22A      0.065424    23A      0.071281  
      24A      0.079006    25A      0.092413    26A      0.097327  
      27A      0.101588    28A      0.101961    29A      0.112611  
      30A      0.114436    31A      0.119613    32A      0.137725  
      33A      0.140696    34A      0.151187    35A      0.157950  
      36A      0.163334    37A      0.182987    38A      0.193246  
      39A      0.198696    40A      0.214003    41A      0.223454  
      42A      0.240000    43A      0.243168    44A      0.250322  
      45A      0.254861    46A      0.263266    47A      0.282120  
      48A      0.290581    49A      0.293036    50A      0.303858  
      51A      0.305966    52A      0.308653    53A      0.312342  
      54A      0.318173    55A      0.329143    56A      0.333220  
      57A      0.336088    58A      0.338728    59A      0.349263  
      60A      0.354969    61A      0.359737    62A      0.367561  
      63A      0.377029    64A      0.380441    65A      0.383990  
      66A      0.400912    67A      0.411715    68A      0.420246  
      69A      0.425772    70A      0.437651    71A      0.438654  
      72A      0.453194    73A      0.456789    74A      0.463057  
      75A      0.469697    76A      0.482502    77A      0.492771  
      78A      0.498887    79A      0.503187    80A      0.510179  
      81A      0.525098    82A      0.535348    83A      0.542154  
      84A      0.544451    85A      0.546824    86A      0.564624  
      87A      0.566593    88A      0.579334    89A      0.585870  
      90A      0.615650    91A      0.621372    92A      0.639511  
      93A      0.644771    94A      0.649178    95A      0.661231  
      96A      0.671485    97A      0.682884    98A      0.695098  
      99A      0.719760   100A      0.733898   101A      0.750949  
     102A      0.755019   103A      0.760281   104A      0.770025  
     105A      0.777322   106A      0.791101   107A      0.799425  
     108A      0.805165   109A      0.811702   110A      0.821653  
     111A      0.835570   112A      0.849260   113A      0.860327  
     114A      0.869659   115A      0.882450   116A      0.891201  
     117A      0.912415   118A      0.927640   119A      0.941340  
     120A      0.964301   121A      0.971928   122A      0.981565  
     123A      1.006335   124A      1.012719   125A      1.016884  
     126A      1.028485   127A      1.046857   128A      1.058753  
     129A      1.066364   130A      1.089815   131A      1.100628  
     132A      1.106040   133A      1.119126   134A      1.132141  
     135A      1.154964   136A      1.166815   137A      1.170001  
     138A      1.175936   139A      1.191040   140A      1.203116  
     141A      1.219736   142A      1.240372   143A      1.247389  
     144A      1.256854   145A      1.267851   146A      1.275719  
     147A      1.291643   148A      1.294318   149A      1.305994  
     150A      1.326417   151A      1.329357   152A      1.338041  
     153A      1.364838   154A      1.369571   155A      1.373295  
     156A      1.389185   157A      1.391971   158A      1.406542  
     159A      1.410636   160A      1.420685   161A      1.444429  
     162A      1.446616   163A      1.464248   164A      1.477470  
     165A      1.495399   166A      1.514249   167A      1.521372  
     168A      1.530682   169A      1.535616   170A      1.539941  
     171A      1.551370   172A      1.567763   173A      1.575434  
     174A      1.590592   175A      1.600762   176A      1.610573  
     177A      1.616255   178A      1.627877   179A      1.650419  
     180A      1.663593   181A      1.675367   182A      1.678324  
     183A      1.692173   184A      1.705138   185A      1.715682  
     186A      1.736886   187A      1.740522   188A      1.750243  
     189A      1.787010   190A      1.798701   191A      1.810701  
     192A      1.841900   193A      1.856923   194A      1.874190  
     195A      1.890328   196A      1.902174   197A      1.910480  
     198A      1.930137   199A      1.956297   200A      1.976521  
     201A      1.992698   202A      2.006411   203A      2.040165  
     204A      2.067313   205A      2.091533   206A      2.094951  
     207A      2.208429   208A      2.254079   209A      2.275336  
     210A      2.327820   211A      2.361231   212A      2.408625  
     213A      2.418032   214A      2.432121   215A      2.465987  
     216A      2.507454   217A      2.534599   218A      2.554952  
     219A      2.657029   220A      2.695949   221A      2.762014  
     222A      2.787919   223A      2.813493   224A      2.823016  
     225A      2.839939   226A      2.849934   227A      2.858636  
     228A      2.876908   229A      2.890299   230A      2.928630  
     231A      2.940666   232A      2.971960   233A      2.973901  
     234A      3.004971   235A      3.019523   236A      3.035634  
     237A      3.075367   238A      3.117816   239A      3.129389  
     240A      3.136975   241A      3.156681   242A      3.186457  
     243A      3.244324   244A      3.268192   245A      3.288811  
     246A      3.304018   247A      3.315310   248A      3.333658  
     249A      3.358805   250A      3.378586   251A      3.404917  
     252A      3.417009   253A      3.426150   254A      3.447804  
     255A      3.461986   256A      3.473879   257A      3.486201  
     258A      3.498314   259A      3.503479   260A      3.520106  
     261A      3.535377   262A      3.542724   263A      3.568213  
     264A      3.584475   265A      3.596313   266A      3.614963  
     267A      3.623690   268A      3.625897   269A      3.631496  
     270A      3.649149   271A      3.652589   272A      3.665887  
     273A      3.689746   274A      3.709316   275A      3.729290  
     276A      3.749016   277A      3.778827   278A      3.783720  
     279A      3.797626   280A      3.823618   281A      3.832085  
     282A      3.845178   283A      3.863008   284A      3.865838  
     285A      3.872217   286A      3.878747   287A      3.907912  
     288A      3.922663   289A      3.949361   290A      3.954068  
     291A      3.963666   292A      3.972576   293A      3.985336  
     294A      4.012674   295A      4.040699   296A      4.061404  
     297A      4.086825   298A      4.098761   299A      4.115162  
     300A      4.121450   301A      4.130088   302A      4.159487  
     303A      4.192344   304A      4.202770   305A      4.225931  
     306A      4.246687   307A      4.266033   308A      4.279506  
     309A      4.283875   310A      4.294620   311A      4.302714  
     312A      4.316379   313A      4.332927   314A      4.342514  
     315A      4.354176   316A      4.375130   317A      4.386507  
     318A      4.397799   319A      4.411110   320A      4.427142  
     321A      4.440864   322A      4.455902   323A      4.460921  
     324A      4.466735   325A      4.492835   326A      4.498030  
     327A      4.511466   328A      4.519110   329A      4.532471  
     330A      4.538926   331A      4.547728   332A      4.561441  
     333A      4.571924   334A      4.591449   335A      4.628615  
     336A      4.631211   337A      4.648918   338A      4.661578  
     339A      4.674484   340A      4.677576   341A      4.700409  
     342A      4.704157   343A      4.728784   344A      4.735665  
     345A      4.741628   346A      4.753225   347A      4.760818  
     348A      4.766359   349A      4.784054   350A      4.799202  
     351A      4.823037   352A      4.825489   353A      4.850066  
     354A      4.854078   355A      4.860580   356A      4.891510  
     357A      4.901519   358A      4.915938   359A      4.928653  
     360A      4.932781   361A      4.953406   362A      4.969218  
     363A      4.983809   364A      5.010309   365A      5.019974  
     366A      5.037001   367A      5.050562   368A      5.060473  
     369A      5.070240   370A      5.110843   371A      5.123150  
     372A      5.154482   373A      5.164977   374A      5.179507  
     375A      5.192043   376A      5.239852   377A      5.245967  
     378A      5.252184   379A      5.277673   380A      5.285836  
     381A      5.300883   382A      5.330921   383A      5.361339  
     384A      5.397112   385A      5.411627   386A      5.413222  
     387A      5.477477   388A      5.486146   389A      5.514845  
     390A      5.532616   391A      5.590024   392A      5.596303  
     393A      5.616630   394A      5.659069   395A      5.712001  
     396A      5.743205   397A      5.747780   398A      5.764046  
     399A      5.778453   400A      5.807221   401A      5.822917  
     402A      5.831645   403A      5.889206   404A      5.901808  
     405A      5.921433   406A      5.965327   407A      5.972250  
     408A      6.000017   409A      6.072865   410A      6.098651  
     411A      6.118323   412A      6.159076   413A      6.197877  
     414A      6.272211   415A      6.309216   416A      6.335635  
     417A      6.343922   418A      6.448679   419A      6.449488  
     420A      6.482931   421A      6.513895   422A      6.516242  
     423A      6.548692   424A      6.591818   425A      6.722356  
     426A      6.859678   427A      6.943698   428A      6.956817  
     429A      7.034969   430A      7.133193   431A      7.223673  
     432A      7.293547   433A      7.337613   434A      7.370681  
     435A      7.387388   436A      7.456752   437A      7.539765  
     438A      7.555047   439A      7.606244   440A      7.650209  
     441A      7.701017   442A      7.714599   443A      7.803153  
     444A      7.865720   445A      7.898921   446A      7.962084  
     447A      8.001210   448A      8.169878   449A      8.267418  
     450A      8.316291   451A      8.504463   452A      9.522033  
     453A      9.698149   454A      9.826272   455A      9.878019  
     456A     10.053665   457A     10.092961   458A     10.282788  
     459A     11.236597   460A     11.712210   461A     12.716149  
     462A     13.512484   463A     13.701395   464A     13.862735  
     465A     14.093715   466A     14.543364   467A     44.118274  
     468A     45.569949   469A     60.983279  

    Final Occupation by Irrep:
              A 
    DOCC [    17 ]

  @DF-RHF Final Energy:  -193.19138738604241

   => Energetics <=

    Nuclear Repulsion Energy =            132.8134955589146671
    One-Electron Energy =                -525.3273663390167485
    Two-Electron Energy =                 199.3224833940596739
    Total Energy =                       -193.1913873860424076

Computation Completed


Properties will be evaluated at   0.000000,   0.000000,   0.000000 [a0]

Properties computed using the SCF density matrix

  Nuclear Dipole Moment: [e a0]
     X:   120.7706      Y:    -9.7470      Z:     7.1219

  Electronic Dipole Moment: [e a0]
     X:  -120.6169      Y:    10.4290      Z:    -7.0151

  Dipole Moment: [e a0]
     X:     0.1537      Y:     0.6820      Z:     0.1068     Total:     0.7072

  Dipole Moment: [D]
     X:     0.3906      Y:     1.7335      Z:     0.2714     Total:     1.7975


*** tstop() called on r282 at Fri Sep 10 12:18:03 2021
Module time:
	user time   =      27.33 seconds =       0.46 minutes
	system time =       0.57 seconds =       0.01 minutes
	total time  =         27 seconds =       0.45 minutes
Total time:
	user time   =      77.46 seconds =       1.29 minutes
	system time =       1.73 seconds =       0.03 minutes
	total time  =         79 seconds =       1.32 minutes

  //>>>>>>>>>>>>>>>>>>>>>>>>>>>>>>>>>>>//
  //            Monomer B HF           //
  //<<<<<<<<<<<<<<<<<<<<<<<<<<<<<<<<<<<//


*** tstart() called on r282
*** at Fri Sep 10 12:18:03 2021

   => Loading Basis Set <=

    Name: JUN-CC-PVTZ
    Role: ORBITAL
    Keyword: BASIS
    atoms 1-2, 9, 13-14          entry C          line   217 file /home/r08543048/miniconda3/share/psi4/basis/jun-cc-pvtz.gbs 
    atoms 3-4, 6-8, 10-12, 16-21 entry H          line    36 file /home/r08543048/miniconda3/share/psi4/basis/jun-cc-pvtz.gbs 
    atoms 5, 15                  entry O          line   305 file /home/r08543048/miniconda3/share/psi4/basis/jun-cc-pvtz.gbs 


         ---------------------------------------------------------
                                   SCF
               by Justin Turney, Rob Parrish, Andy Simmonett
                          and Daniel G. A. Smith
                              RHF Reference
                        1 Threads,  20980 MiB Core
         ---------------------------------------------------------

  ==> Geometry <==

    Molecular point group: c1
    Full point group: C1

    Geometry (in Angstrom), charge = 0, multiplicity = 1:

       Center              X                  Y                   Z               Mass       
    ------------   -----------------  -----------------  -----------------  -----------------
      Gh(C)           2.455520325145     0.593868827786     0.151039852277    12.000000000000
      Gh(C)           1.549214325145    -0.251281172214     1.032514852277    12.000000000000
      Gh(H)           1.875774325145     1.433630827786    -0.242053147723     1.007825032230
      Gh(H)           3.244184325145     1.021619827786     0.775905852277     1.007825032230
      Gh(O)           0.443679325145    -0.793812172214     0.320902852277    15.994914619570
      Gh(H)           2.103612325145    -1.106847172214     1.421811852277     1.007825032230
      Gh(H)           1.203361325145     0.338707827786     1.887767852277     1.007825032230
      Gh(H)          -0.123062674855    -0.052101172214     0.051325852277     1.007825032230
      Gh(C)           3.062920325145    -0.207717172214    -0.992417147723    12.000000000000
      Gh(H)           3.684690325145     0.418251827786    -1.631601147723     1.007825032230
      Gh(H)           3.685035325145    -1.016001172214    -0.605392147723     1.007825032230
      Gh(H)           2.280098325145    -0.653887172214    -1.603092147723     1.007825032230
         C           -2.957100674855    -0.899655172214    -0.441149147723    12.000000000000
         C           -2.684513674855     0.393262827786     0.298099852277    12.000000000000
         O           -1.583322674855     1.120055827786    -0.270940147723    15.994914619570
         H           -3.243280674855    -0.701685172214    -1.475199147723     1.007825032230
         H           -3.776044674855    -1.439480172214     0.034511852277     1.007825032230
         H           -2.070699674855    -1.531551172214    -0.435564147723     1.007825032230
         H           -3.571508674855     1.029963827786     0.321538852277     1.007825032230
         H           -2.384718674855     0.192782827786     1.324414852277     1.007825032230
         H           -1.800095674855     1.312519827786    -1.189898147723     1.007825032230

  Running in c1 symmetry.

  Rotational constants: A =      0.15350  B =      0.02805  C =      0.02748 [cm^-1]
  Rotational constants: A =   4601.85873  B =    841.02421  C =    823.79550 [MHz]
  Nuclear repulsion =   81.643563707559878

  Charge       = 0
  Multiplicity = 1
  Electrons    = 26
  Nalpha       = 13
  Nbeta        = 13

  ==> Algorithm <==

  SCF Algorithm Type is DF.
  DIIS enabled.
  MOM disabled.
  Fractional occupation disabled.
  Guess Type is SAD.
  Energy threshold   = 1.00e-08
  Density threshold  = 1.00e-08
  Integral threshold = 0.00e+00

  ==> Primary Basis <==

  Basis Set: JUN-CC-PVTZ
    Blend: JUN-CC-PVTZ
    Number of shells: 175
    Number of basis function: 469
    Number of Cartesian functions: 525
    Spherical Harmonics?: true
    Max angular momentum: 3

   => Loading Basis Set <=

    Name: (JUN-CC-PVTZ AUX)
    Role: JKFIT
    Keyword: DF_BASIS_SCF
    atoms 1-2, 9, 13-14          entry C          line   152 file /home/r08543048/miniconda3/share/psi4/basis/jun-cc-pvtz-jkfit.gbs 
    atoms 3-4, 6-8, 10-12, 16-21 entry H          line    70 file /home/r08543048/miniconda3/share/psi4/basis/jun-cc-pvtz-jkfit.gbs 
    atoms 5, 15                  entry O          line   272 file /home/r08543048/miniconda3/share/psi4/basis/jun-cc-pvtz-jkfit.gbs 

  ==> Pre-Iterations <==

   -------------------------------------------------------
    Irrep   Nso     Nmo     Nalpha   Nbeta   Ndocc  Nsocc
   -------------------------------------------------------
     A        469     469       0       0       0       0
   -------------------------------------------------------
    Total     469     469      13      13      13       0
   -------------------------------------------------------

  ==> Integral Setup <==

  ==> DiskDFJK: Density-Fitted J/K Matrices <==

    J tasked:                  Yes
    K tasked:                  Yes
    wK tasked:                  No
    OpenMP threads:              1
    Integrals threads:           1
    Memory [MiB]:            15735
    Algorithm:                Core
    Integral Cache:           LOAD
    Schwarz Cutoff:          1E-12
    Fitting Condition:       1E-10

   => Auxiliary Basis Set <=

  Basis Set: (JUN-CC-PVTZ AUX)
    Blend: JUN-CC-PVTZ-JKFIT
    Number of shells: 343
    Number of basis function: 1085
    Number of Cartesian functions: 1302
    Spherical Harmonics?: true
    Max angular momentum: 4

  Minimum eigenvalue in the overlap matrix is 7.0981507869E-05.
  Using Symmetric Orthogonalization.

  SCF Guess: Superposition of Atomic Densities via on-the-fly atomic UHF.

  ==> Iterations <==

                           Total Energy        Delta E     RMS |[F,P]|

   @DF-RHF iter SAD:  -153.41907485687983   -1.53419e+02   0.00000e+00 
   @DF-RHF iter   1:  -154.01215117036520   -5.93076e-01   1.06947e-03 DIIS
   @DF-RHF iter   2:  -154.11605943380917   -1.03908e-01   5.71814e-04 DIIS
   @DF-RHF iter   3:  -154.14238480658423   -2.63254e-02   9.90444e-05 DIIS
   @DF-RHF iter   4:  -154.14392995341811   -1.54515e-03   3.75971e-05 DIIS
   @DF-RHF iter   5:  -154.14411802582305   -1.88072e-04   7.12104e-06 DIIS
   @DF-RHF iter   6:  -154.14412790512631   -9.87930e-06   1.61479e-06 DIIS
   @DF-RHF iter   7:  -154.14412860166681   -6.96540e-07   4.53651e-07 DIIS
   @DF-RHF iter   8:  -154.14412865323479   -5.15680e-08   1.47229e-07 DIIS
   @DF-RHF iter   9:  -154.14412865905626   -5.82148e-09   3.84124e-08 DIIS
   @DF-RHF iter  10:  -154.14412865948148   -4.25217e-10   7.60363e-09 DIIS
  Energy and wave function converged.


  ==> Post-Iterations <==

    Orbital Energies [Eh]
    ---------------------

    Doubly Occupied:                                                      

       1A    -20.554065     2A    -11.274695     3A    -11.218938  
       4A     -1.351127     5A     -1.015108     6A     -0.848052  
       7A     -0.683499     8A     -0.620985     9A     -0.607949  
      10A     -0.545271    11A     -0.524875    12A     -0.484174  
      13A     -0.444871  

    Virtual:                                                              

      14A      0.037834    15A      0.051401    16A      0.052684  
      17A      0.059851    18A      0.066372    19A      0.071154  
      20A      0.078277    21A      0.091821    22A      0.095217  
      23A      0.101954    24A      0.107647    25A      0.112484  
      26A      0.116253    27A      0.119638    28A      0.129127  
      29A      0.142490    30A      0.150470    31A      0.156131  
      32A      0.169839    33A      0.187693    34A      0.196273  
      35A      0.207730    36A      0.213576    37A      0.222906  
      38A      0.227946    39A      0.236319    40A      0.252888  
      41A      0.256092    42A      0.266354    43A      0.273395  
      44A      0.277050    45A      0.288748    46A      0.294026  
      47A      0.299231    48A      0.309222    49A      0.315098  
      50A      0.323279    51A      0.327591    52A      0.334082  
      53A      0.338595    54A      0.341082    55A      0.348507  
      56A      0.358633    57A      0.365567    58A      0.374583  
      59A      0.383301    60A      0.393382    61A      0.402645  
      62A      0.409593    63A      0.416410    64A      0.422381  
      65A      0.429165    66A      0.439949    67A      0.448524  
      68A      0.452089    69A      0.467753    70A      0.471812  
      71A      0.479550    72A      0.487181    73A      0.502814  
      74A      0.506814    75A      0.513095    76A      0.519176  
      77A      0.523851    78A      0.531545    79A      0.539722  
      80A      0.557703    81A      0.571644    82A      0.574078  
      83A      0.586021    84A      0.593974    85A      0.609897  
      86A      0.619936    87A      0.636681    88A      0.639973  
      89A      0.650886    90A      0.651359    91A      0.664509  
      92A      0.676202    93A      0.679974    94A      0.696780  
      95A      0.699400    96A      0.708646    97A      0.719364  
      98A      0.748784    99A      0.767293   100A      0.772391  
     101A      0.782806   102A      0.794145   103A      0.803986  
     104A      0.814494   105A      0.825903   106A      0.838564  
     107A      0.854826   108A      0.870905   109A      0.882117  
     110A      0.886996   111A      0.891864   112A      0.915934  
     113A      0.939957   114A      0.958161   115A      0.969464  
     116A      0.984498   117A      1.001440   118A      1.024901  
     119A      1.030086   120A      1.034663   121A      1.051225  
     122A      1.064626   123A      1.074531   124A      1.090557  
     125A      1.092576   126A      1.104849   127A      1.120311  
     128A      1.123083   129A      1.131069   130A      1.149685  
     131A      1.168321   132A      1.172698   133A      1.194755  
     134A      1.201260   135A      1.217193   136A      1.220694  
     137A      1.246707   138A      1.267724   139A      1.274616  
     140A      1.278958   141A      1.292606   142A      1.308311  
     143A      1.322485   144A      1.325617   145A      1.327830  
     146A      1.343530   147A      1.352043   148A      1.359886  
     149A      1.366688   150A      1.378968   151A      1.382148  
     152A      1.402618   153A      1.410820   154A      1.424345  
     155A      1.442564   156A      1.449647   157A      1.466527  
     158A      1.468686   159A      1.483039   160A      1.495433  
     161A      1.519544   162A      1.520132   163A      1.528480  
     164A      1.536097   165A      1.553639   166A      1.566080  
     167A      1.570772   168A      1.583237   169A      1.590828  
     170A      1.596378   171A      1.605850   172A      1.621823  
     173A      1.627911   174A      1.646987   175A      1.669244  
     176A      1.682659   177A      1.688366   178A      1.702884  
     179A      1.707120   180A      1.731211   181A      1.746332  
     182A      1.758184   183A      1.771839   184A      1.788111  
     185A      1.802104   186A      1.826465   187A      1.831786  
     188A      1.854218   189A      1.863124   190A      1.882905  
     191A      1.906751   192A      1.927308   193A      1.946596  
     194A      1.955404   195A      1.977166   196A      1.994844  
     197A      2.032056   198A      2.087032   199A      2.091895  
     200A      2.131563   201A      2.175133   202A      2.203527  
     203A      2.213750   204A      2.232214   205A      2.252603  
     206A      2.317658   207A      2.355101   208A      2.392521  
     209A      2.400426   210A      2.407331   211A      2.443065  
     212A      2.478301   213A      2.497572   214A      2.539387  
     215A      2.559208   216A      2.571942   217A      2.590068  
     218A      2.611431   219A      2.692739   220A      2.765354  
     221A      2.814836   222A      2.825337   223A      2.832564  
     224A      2.848801   225A      2.879471   226A      2.906328  
     227A      2.931107   228A      2.955850   229A      2.990434  
     230A      3.036558   231A      3.063481   232A      3.083974  
     233A      3.108749   234A      3.122233   235A      3.181517  
     236A      3.224124   237A      3.238711   238A      3.274452  
     239A      3.290304   240A      3.322520   241A      3.363970  
     242A      3.385416   243A      3.397576   244A      3.426514  
     245A      3.448521   246A      3.461171   247A      3.477064  
     248A      3.498395   249A      3.501317   250A      3.507700  
     251A      3.528744   252A      3.556426   253A      3.567279  
     254A      3.573479   255A      3.583635   256A      3.605075  
     257A      3.607867   258A      3.620712   259A      3.628482  
     260A      3.639991   261A      3.646955   262A      3.662378  
     263A      3.713865   264A      3.731010   265A      3.757002  
     266A      3.764079   267A      3.774862   268A      3.783348  
     269A      3.799482   270A      3.809293   271A      3.817971  
     272A      3.833566   273A      3.844038   274A      3.853890  
     275A      3.886543   276A      3.891458   277A      3.904393  
     278A      3.918430   279A      3.929648   280A      3.950929  
     281A      3.960103   282A      3.967880   283A      3.982216  
     284A      4.003975   285A      4.047017   286A      4.052124  
     287A      4.071315   288A      4.090312   289A      4.104882  
     290A      4.123732   291A      4.147646   292A      4.174240  
     293A      4.207604   294A      4.220793   295A      4.229037  
     296A      4.240284   297A      4.242196   298A      4.269356  
     299A      4.276914   300A      4.284053   301A      4.294037  
     302A      4.314728   303A      4.340727   304A      4.343835  
     305A      4.356552   306A      4.370578   307A      4.387859  
     308A      4.402183   309A      4.415017   310A      4.435032  
     311A      4.442946   312A      4.445656   313A      4.454387  
     314A      4.470612   315A      4.480441   316A      4.486129  
     317A      4.497385   318A      4.512202   319A      4.516320  
     320A      4.534804   321A      4.550304   322A      4.581027  
     323A      4.585106   324A      4.610485   325A      4.626854  
     326A      4.634648   327A      4.648910   328A      4.662315  
     329A      4.671348   330A      4.678229   331A      4.700651  
     332A      4.718984   333A      4.735712   334A      4.751476  
     335A      4.759600   336A      4.763218   337A      4.779860  
     338A      4.792925   339A      4.794107   340A      4.805349  
     341A      4.820843   342A      4.830423   343A      4.839394  
     344A      4.851232   345A      4.865982   346A      4.888559  
     347A      4.899218   348A      4.920556   349A      4.926851  
     350A      4.940058   351A      4.945438   352A      4.961053  
     353A      4.972660   354A      4.979799   355A      4.999478  
     356A      5.010409   357A      5.035033   358A      5.050350  
     359A      5.063855   360A      5.086286   361A      5.098259  
     362A      5.107868   363A      5.125529   364A      5.142556  
     365A      5.153096   366A      5.167103   367A      5.195549  
     368A      5.207628   369A      5.219056   370A      5.229999  
     371A      5.275189   372A      5.288018   373A      5.302935  
     374A      5.318310   375A      5.320488   376A      5.328338  
     377A      5.378581   378A      5.409961   379A      5.445325  
     380A      5.460055   381A      5.517651   382A      5.561956  
     383A      5.579147   384A      5.600051   385A      5.610896  
     386A      5.625008   387A      5.631122   388A      5.719076  
     389A      5.724970   390A      5.735550   391A      5.752935  
     392A      5.778986   393A      5.820741   394A      5.829248  
     395A      5.883816   396A      5.908412   397A      5.915961  
     398A      5.944389   399A      5.966285   400A      5.974106  
     401A      6.037058   402A      6.073424   403A      6.092560  
     404A      6.170484   405A      6.204908   406A      6.234237  
     407A      6.303321   408A      6.310506   409A      6.332187  
     410A      6.357200   411A      6.383591   412A      6.419486  
     413A      6.452066   414A      6.473368   415A      6.477158  
     416A      6.490949   417A      6.549566   418A      6.602235  
     419A      6.693371   420A      6.881323   421A      6.922010  
     422A      6.950888   423A      7.020577   424A      7.078892  
     425A      7.159243   426A      7.227120   427A      7.303122  
     428A      7.329584   429A      7.369315   430A      7.418665  
     431A      7.498619   432A      7.502910   433A      7.550612  
     434A      7.577944   435A      7.617514   436A      7.628191  
     437A      7.690855   438A      7.730526   439A      7.765315  
     440A      7.814159   441A      7.857992   442A      7.868065  
     443A      7.942738   444A      8.018907   445A      8.051818  
     446A      8.180652   447A      8.211698   448A      8.385282  
     449A      8.499651   450A      8.612031   451A      9.540717  
     452A      9.628975   453A      9.786181   454A      9.881212  
     455A      9.925611   456A     10.063624   457A     10.181829  
     458A     10.408851   459A     11.265911   460A     11.715275  
     461A     12.809213   462A     13.619494   463A     13.737943  
     464A     13.762623   465A     14.596624   466A     43.916977  
     467A     44.926492   468A     45.545763   469A     61.537072  

    Final Occupation by Irrep:
              A 
    DOCC [    13 ]

  @DF-RHF Final Energy:  -154.14412865948148

   => Energetics <=

    Nuclear Repulsion Energy =             81.6435637075598777
    One-Electron Energy =                -371.2281653859032531
    Two-Electron Energy =                 135.4404730188618657
    Total Energy =                       -154.1441286594814812

Computation Completed


Properties will be evaluated at   0.000000,   0.000000,   0.000000 [a0]

Properties computed using the SCF density matrix

  Nuclear Dipole Moment: [e a0]
     X:  -119.7380      Y:     9.0417      Z:    -8.4017

  Electronic Dipole Moment: [e a0]
     X:   119.1097      Y:    -9.3007      Z:     8.0999

  Dipole Moment: [e a0]
     X:    -0.6283      Y:    -0.2590      Z:    -0.3019     Total:     0.7437

  Dipole Moment: [D]
     X:    -1.5970      Y:    -0.6584      Z:    -0.7673     Total:     1.8902


*** tstop() called on r282 at Fri Sep 10 12:18:30 2021
Module time:
	user time   =      26.40 seconds =       0.44 minutes
	system time =       0.49 seconds =       0.01 minutes
	total time  =         27 seconds =       0.45 minutes
Total time:
	user time   =     103.86 seconds =       1.73 minutes
	system time =       2.22 seconds =       0.04 minutes
	total time  =        106 seconds =       1.77 minutes
  Constructing Basis Sets for SAPT...

   => Loading Basis Set <=

    Name: (JUN-CC-PVTZ AUX)
    Role: RIFIT
    Keyword: DF_BASIS_SAPT
    atoms 1-2, 9, 13-14          entry C          line   132 file /home/r08543048/miniconda3/share/psi4/basis/jun-cc-pvtz-ri.gbs 
    atoms 3-4, 6-8, 10-12, 16-21 entry H          line    30 file /home/r08543048/miniconda3/share/psi4/basis/jun-cc-pvtz-ri.gbs 
    atoms 5, 15                  entry O          line   244 file /home/r08543048/miniconda3/share/psi4/basis/jun-cc-pvtz-ri.gbs 


  //>>>>>>>>>>>>>>>>>>>>>>>>>>>>>>>>>>>//
  //               SAPT0               //
  //<<<<<<<<<<<<<<<<<<<<<<<<<<<<<<<<<<<//


*** tstart() called on r282
*** at Fri Sep 10 12:18:31 2021

        SAPT0  
    Ed Hohenstein
     6 June 2009

      Orbital Information
  --------------------------
    NSO        =       469
    NMO        =       469
    NRI        =      1099
    NOCC A     =        17
    NOCC B     =        13
    FOCC A     =         0
    FOCC B     =         0
    NVIR A     =       452
    NVIR B     =       456

    Elst10,r            =    -0.016123316006 [Eh]
    Exch10              =     0.015855017210 [Eh]
    Exch10 (S^2)        =     0.015723981238 [Eh]

    Iter     Energy [mEh]          dE [mEh]         Residual      Time [s]
       1      -2.38602849       2.386028491       7.124721316             1
       2      -2.68135401       0.295325517       2.357305223             1
       3      -2.73640803       0.055054024       0.666767907             2
       4      -2.73362217      -0.002785865       0.278323788             3
       5      -2.72788649      -0.005735677       0.067868272             4
       6      -2.72856082       0.000674335       0.022203188             5
       7      -2.72887178       0.000310957       0.005653628             5
       8      -2.72880146      -0.000070319       0.001725745             6
       9      -2.72879465      -0.000006811       0.000458538             7
      10      -2.72879899       0.000004338       0.000140105             8
      11      -2.72879961       0.000000621       0.000037903             9
      12      -2.72879920      -0.000000411       0.000007663             9
      13      -2.72879923       0.000000031       0.000002025            10
      14      -2.72879924       0.000000010       0.000000558            11

    CHF Iterations converged


    Iter     Energy [mEh]          dE [mEh]         Residual      Time [s]
       1      -3.47928157       3.479281565      11.652639215             1
       2      -4.42584422       0.946562658       5.109985050             2
       3      -4.52196390       0.096119676       1.423156360             2
       4      -4.50123098      -0.020732918       0.398795999             3
       5      -4.49573716      -0.005493824       0.082657953             4
       6      -4.49695640       0.001219241       0.028220373             5
       7      -4.49720554       0.000249144       0.007139665             5
       8      -4.49711066      -0.000094878       0.001842733             6
       9      -4.49710554      -0.000005125       0.000411694             7
      10      -4.49711046       0.000004918       0.000111061             8
      11      -4.49711054       0.000000085       0.000031601             8
      12      -4.49711019      -0.000000354       0.000008724             9
      13      -4.49711023       0.000000043       0.000002365            10
      14      -4.49711024       0.000000012       0.000000526            11

    CHF Iterations converged

    Ind20,r (A<-B)      =    -0.002728799240 [Eh]
    Ind20,r (B<-A)      =    -0.004497110243 [Eh]
    Ind20,r             =    -0.007225909483 [Eh]
    Exch-Ind20,r (A<-B) =     0.002005904374 [Eh]
    Exch-Ind20,r (B<-A) =     0.002296194648 [Eh]
    Exch-Ind20,r        =     0.004302099022 [Eh]
    Disp20              =    -0.007908204841 [Eh]
    Disp20 (SS)         =    -0.003954102420 [Eh]
    Disp20 (OS)         =    -0.003954102420 [Eh]
    Exch-Disp20         =     0.001224904370 [Eh]
    Exch-Disp20 (SS)    =     0.000771372475 [Eh]
    Exch-Disp20 (OS)    =     0.000453531895 [Eh]

    SAPT Results 
  --------------------------------------------------------------------------------------------------------
    Electrostatics                -16.12331601 [mEh]     -10.11753354 [kcal/mol]     -42.33176034 [kJ/mol]
      Elst10,r                    -16.12331601 [mEh]     -10.11753354 [kcal/mol]     -42.33176034 [kJ/mol]

    Exchange                       15.85501721 [mEh]       9.94917351 [kcal/mol]      41.62734195 [kJ/mol]
      Exch10                       15.85501721 [mEh]       9.94917351 [kcal/mol]      41.62734195 [kJ/mol]
      Exch10(S^2)                  15.72398124 [mEh]       9.86694719 [kcal/mol]      41.28330705 [kJ/mol]

    Induction                      -5.01985606 [mEh]      -3.15000724 [kcal/mol]     -13.17963028 [kJ/mol]
      Ind20,r                      -7.22590948 [mEh]      -4.53432666 [kcal/mol]     -18.97162273 [kJ/mol]
      Exch-Ind20,r                  4.30209902 [mEh]       2.69960789 [kcal/mol]      11.29515943 [kJ/mol]
      delta HF,r (2)               -2.09604560 [mEh]      -1.31528847 [kcal/mol]      -5.50316697 [kJ/mol]

    Dispersion                     -6.68330047 [mEh]      -4.19383436 [kcal/mol]     -17.54700297 [kJ/mol]
      Disp20                       -7.90820484 [mEh]      -4.96247346 [kcal/mol]     -20.76298895 [kJ/mol]
      Exch-Disp20                   1.22490437 [mEh]       0.76863910 [kcal/mol]       3.21598598 [kJ/mol]
      Disp20 (SS)                  -3.95410242 [mEh]      -2.48123673 [kcal/mol]     -10.38149447 [kJ/mol]
      Disp20 (OS)                  -3.95410242 [mEh]      -2.48123673 [kcal/mol]     -10.38149447 [kJ/mol]
      Exch-Disp20 (SS)              0.77137248 [mEh]       0.48404354 [kcal/mol]       2.02523816 [kJ/mol]
      Exch-Disp20 (OS)              0.45353189 [mEh]       0.28459556 [kcal/mol]       1.19074783 [kJ/mol]

  Total HF                         -5.28815486 [mEh]      -3.31836727 [kcal/mol]     -13.88404867 [kJ/mol]
  Total SAPT0                     -11.97145533 [mEh]      -7.51220163 [kcal/mol]     -31.43105164 [kJ/mol]

  Special recipe for scaled SAPT0 (see Manual):
    Electrostatics sSAPT0         -16.12331601 [mEh]     -10.11753354 [kcal/mol]     -42.33176034 [kJ/mol]
    Exchange sSAPT0                15.85501721 [mEh]       9.94917351 [kcal/mol]      41.62734195 [kJ/mol]
    Induction sSAPT0               -4.91140249 [mEh]      -3.08195159 [kcal/mol]     -12.89488547 [kJ/mol]
    Dispersion sSAPT0              -6.65242130 [mEh]      -4.17445739 [kcal/mol]     -17.46592972 [kJ/mol]
  Total sSAPT0                    -11.83212259 [mEh]      -7.42476902 [kcal/mol]     -31.06523358 [kJ/mol]
  --------------------------------------------------------------------------------------------------------

*** tstop() called on r282 at Fri Sep 10 12:20:04 2021
Module time:
	user time   =      78.36 seconds =       1.31 minutes
	system time =      14.14 seconds =       0.24 minutes
	total time  =         93 seconds =       1.55 minutes
Total time:
	user time   =     182.36 seconds =       3.04 minutes
	system time =      16.36 seconds =       0.27 minutes
	total time  =        200 seconds =       3.33 minutes

    Psi4 stopped on: Friday, 10 September 2021 12:20PM
    Psi4 wall time for execution: 0:03:19.53

*** Psi4 exiting successfully. Buy a developer a beer!
