
    -----------------------------------------------------------------------
          Psi4: An Open-Source Ab Initio Electronic Structure Package
                               Psi4 1.3.2 release

                         Git: Rev {HEAD} ecbda83 


    R. M. Parrish, L. A. Burns, D. G. A. Smith, A. C. Simmonett,
    A. E. DePrince III, E. G. Hohenstein, U. Bozkaya, A. Yu. Sokolov,
    R. Di Remigio, R. M. Richard, J. F. Gonthier, A. M. James,
    H. R. McAlexander, A. Kumar, M. Saitow, X. Wang, B. P. Pritchard,
    P. Verma, H. F. Schaefer III, K. Patkowski, R. A. King, E. F. Valeev,
    F. A. Evangelista, J. M. Turney, T. D. Crawford, and C. D. Sherrill,
    J. Chem. Theory Comput. 13(7) pp 3185--3197 (2017).
    (doi: 10.1021/acs.jctc.7b00174)


                         Additional Contributions by
    P. Kraus, H. Kruse, M. H. Lechner, M. C. Schieber, R. A. Shaw,
    A. Alenaizan, R. Galvelis, Z. L. Glick, S. Lehtola, and J. P. Misiewicz

    -----------------------------------------------------------------------


    Psi4 started on: Thursday, 09 September 2021 09:59AM

    Process ID: 53727
    Host:       r282
    PSIDATADIR: /home/r08543048/miniconda3/share/psi4
    Memory:     500.0 MiB
    Threads:    1
    
  ==> Input File <==

--------------------------------------------------------------------------
# Any line starting with the # character is a comment line
#! Sample  computation

memory 22 gb

molecule Dimer {
 
0 1                               
 C    2.73191000    0.41847000   -0.12436500
 C    1.66162300   -0.02873600   -1.10243400
 H    3.51669300   -0.34339300   -0.08440000
 H    3.19894900    1.31892100   -0.53128800
 O    1.03415100   -1.25943800   -0.71524100
 H    0.85167700    0.70027800   -1.13673400
 H    2.07349900   -0.12734800   -2.10979100
 H    1.71737300   -1.93618700   -0.65215100
 C    2.18584800    0.69158400    1.27107300
 H    2.97887500    1.01798800    1.94244800
 H    1.42467400    1.47146300    1.24052800
 H    1.72320100   -0.19623400    1.69803600











 
 --
0 1
 C    -2.30480700    0.12506100   -0.70920900
 C    -2.26806800   -0.81153400    0.48920000
 H    -1.52876400   -0.18274700   -1.41552900
 H    -3.26257200   -0.00390700   -1.22048300
 O    -1.03663100   -0.74738100    1.19600800
 H    -3.03937000   -0.52669400    1.20681700
 H    -2.47621200   -1.83708700    0.16656100
 H    -0.33682500   -1.02361800    0.58218800
 C    -2.11134400    1.58257800   -0.31160900
 H    -1.17363000    1.71062200    0.22753800
 H    -2.10229000    2.23692000   -1.18307100
 H    -2.91641700    1.91104900    0.34725900

















 
 
 
units angstrom

no_reorient
symmetry c1
}

set globals{
  basis jun-cc-pVTZ
  scf_type DF 
  freeze_core True
}

energy('sapt0')


--------------------------------------------------------------------------

  Memory set to  20.489 GiB by Python driver.

  //>>>>>>>>>>>>>>>>>>>>>>>>>>>>>>>>>>>//
  //              Dimer HF             //
  //<<<<<<<<<<<<<<<<<<<<<<<<<<<<<<<<<<<//


*** tstart() called on r282
*** at Thu Sep  9 09:59:17 2021

   => Loading Basis Set <=

    Name: JUN-CC-PVTZ
    Role: ORBITAL
    Keyword: BASIS
    atoms 1-2, 9, 13-14, 21                    entry C          line   217 file /home/r08543048/miniconda3/share/psi4/basis/jun-cc-pvtz.gbs 
    atoms 3-4, 6-8, 10-12, 15-16, 18-20, 22-24 entry H          line    36 file /home/r08543048/miniconda3/share/psi4/basis/jun-cc-pvtz.gbs 
    atoms 5, 17                                entry O          line   305 file /home/r08543048/miniconda3/share/psi4/basis/jun-cc-pvtz.gbs 


         ---------------------------------------------------------
                                   SCF
               by Justin Turney, Rob Parrish, Andy Simmonett
                          and Daniel G. A. Smith
                              RHF Reference
                        1 Threads,  20980 MiB Core
         ---------------------------------------------------------

  ==> Geometry <==

    Molecular point group: c1
    Full point group: C1

    Geometry (in Angstrom), charge = 0, multiplicity = 1:

       Center              X                  Y                   Z               Mass       
    ------------   -----------------  -----------------  -----------------  -----------------
         C            2.737269737506     0.452995316956    -0.131961150754    12.000000000000
         C            1.666982737506     0.005789316956    -1.110030150754    12.000000000000
         H            3.522052737506    -0.308867683044    -0.091996150754     1.007825032230
         H            3.204308737506     1.353446316956    -0.538884150754     1.007825032230
         O            1.039510737506    -1.224912683044    -0.722837150754    15.994914619570
         H            0.857036737506     0.734803316956    -1.144330150754     1.007825032230
         H            2.078858737506    -0.092822683044    -2.117387150754     1.007825032230
         H            1.722732737506    -1.901661683044    -0.659747150754     1.007825032230
         C            2.191207737506     0.726109316956     1.263476849246    12.000000000000
         H            2.984234737506     1.052513316956     1.934851849246     1.007825032230
         H            1.430033737506     1.505988316956     1.232931849246     1.007825032230
         H            1.728560737506    -0.161708683044     1.690439849246     1.007825032230
         C           -2.299447262494     0.159586316956    -0.716805150754    12.000000000000
         C           -2.262708262494    -0.777008683044     0.481603849246    12.000000000000
         H           -1.523404262494    -0.148221683044    -1.423125150754     1.007825032230
         H           -3.257212262494     0.030618316956    -1.228079150754     1.007825032230
         O           -1.031271262494    -0.712855683044     1.188411849246    15.994914619570
         H           -3.034010262494    -0.492168683044     1.199220849246     1.007825032230
         H           -2.470852262494    -1.802561683044     0.158964849246     1.007825032230
         H           -0.331465262494    -0.989092683044     0.574591849246     1.007825032230
         C           -2.105984262494     1.617103316956    -0.319205150754    12.000000000000
         H           -1.168270262494     1.745147316956     0.219941849246     1.007825032230
         H           -2.096930262494     2.271445316956    -1.190667150754     1.007825032230
         H           -2.911057262494     1.945574316956     0.339662849246     1.007825032230

  Running in c1 symmetry.

  Rotational constants: A =      0.08306  B =      0.02916  C =      0.02870 [cm^-1]
  Rotational constants: A =   2490.08973  B =    874.14948  C =    860.48480 [MHz]
  Nuclear repulsion =  413.517067577139244

  Charge       = 0
  Multiplicity = 1
  Electrons    = 68
  Nalpha       = 34
  Nbeta        = 34

  ==> Algorithm <==

  SCF Algorithm Type is DF.
  DIIS enabled.
  MOM disabled.
  Fractional occupation disabled.
  Guess Type is SAD.
  Energy threshold   = 1.00e-08
  Density threshold  = 1.00e-08
  Integral threshold = 0.00e+00

  ==> Primary Basis <==

  Basis Set: JUN-CC-PVTZ
    Blend: JUN-CC-PVTZ
    Number of shells: 200
    Number of basis function: 536
    Number of Cartesian functions: 600
    Spherical Harmonics?: true
    Max angular momentum: 3

   => Loading Basis Set <=

    Name: (JUN-CC-PVTZ AUX)
    Role: JKFIT
    Keyword: DF_BASIS_SCF
    atoms 1-2, 9, 13-14, 21                    entry C          line   152 file /home/r08543048/miniconda3/share/psi4/basis/jun-cc-pvtz-jkfit.gbs 
    atoms 3-4, 6-8, 10-12, 15-16, 18-20, 22-24 entry H          line    70 file /home/r08543048/miniconda3/share/psi4/basis/jun-cc-pvtz-jkfit.gbs 
    atoms 5, 17                                entry O          line   272 file /home/r08543048/miniconda3/share/psi4/basis/jun-cc-pvtz-jkfit.gbs 

  ==> Pre-Iterations <==

   -------------------------------------------------------
    Irrep   Nso     Nmo     Nalpha   Nbeta   Ndocc  Nsocc
   -------------------------------------------------------
     A        536     536       0       0       0       0
   -------------------------------------------------------
    Total     536     536      34      34      34       0
   -------------------------------------------------------

  ==> Integral Setup <==

  ==> DiskDFJK: Density-Fitted J/K Matrices <==

    J tasked:                  Yes
    K tasked:                  Yes
    wK tasked:                  No
    OpenMP threads:              1
    Integrals threads:           1
    Memory [MiB]:            15735
    Algorithm:                Core
    Integral Cache:           SAVE
    Schwarz Cutoff:          1E-12
    Fitting Condition:       1E-10

   => Auxiliary Basis Set <=

  Basis Set: (JUN-CC-PVTZ AUX)
    Blend: JUN-CC-PVTZ-JKFIT
    Number of shells: 392
    Number of basis function: 1240
    Number of Cartesian functions: 1488
    Spherical Harmonics?: true
    Max angular momentum: 4

  Minimum eigenvalue in the overlap matrix is 5.3042561662E-05.
  Using Symmetric Orthogonalization.

  SCF Guess: Superposition of Atomic Densities via on-the-fly atomic UHF.

  ==> Iterations <==

                           Total Energy        Delta E     RMS |[F,P]|

   @DF-RHF iter SAD:  -385.17319038300292   -3.85173e+02   0.00000e+00 
   @DF-RHF iter   1:  -386.03830996479036   -8.65120e-01   1.47397e-03 DIIS
   @DF-RHF iter   2:  -386.31431337408469   -2.76003e-01   7.54201e-04 DIIS
   @DF-RHF iter   3:  -386.38238525105891   -6.80719e-02   1.33389e-04 DIIS
   @DF-RHF iter   4:  -386.38655411421718   -4.16886e-03   4.36240e-05 DIIS
   @DF-RHF iter   5:  -386.38687216942338   -3.18055e-04   1.13450e-05 DIIS
   @DF-RHF iter   6:  -386.38689951431058   -2.73449e-05   2.41925e-06 DIIS
   @DF-RHF iter   7:  -386.38690141134447   -1.89703e-06   5.82536e-07 DIIS
   @DF-RHF iter   8:  -386.38690151854649   -1.07202e-07   1.87861e-07 DIIS
   @DF-RHF iter   9:  -386.38690152993001   -1.13835e-08   5.44901e-08 DIIS
   @DF-RHF iter  10:  -386.38690153091773   -9.87711e-10   1.52085e-08 DIIS
   @DF-RHF iter  11:  -386.38690153097980   -6.20730e-11   4.80042e-09 DIIS
  Energy and wave function converged.


  ==> Post-Iterations <==

    Orbital Energies [Eh]
    ---------------------

    Doubly Occupied:                                                      

       1A    -20.576469     2A    -20.524198     3A    -11.283767  
       4A    -11.253343     5A    -11.229515     6A    -11.210254  
       7A    -11.208267     8A    -11.201574     9A     -1.376856  
      10A     -1.329088    11A     -1.059001    12A     -1.037664  
      13A     -0.929100    14A     -0.905829    15A     -0.821644  
      16A     -0.796664    17A     -0.696598    18A     -0.657345  
      19A     -0.646252    20A     -0.638766    21A     -0.621918  
      22A     -0.610884    23A     -0.574050    24A     -0.549541  
      25A     -0.541022    26A     -0.532795    27A     -0.516447  
      28A     -0.505294    29A     -0.490157    30A     -0.481971  
      31A     -0.472634    32A     -0.456262    33A     -0.449324  
      34A     -0.415024  

    Virtual:                                                              

      35A      0.049518    36A      0.055117    37A      0.056468  
      38A      0.060345    39A      0.072232    40A      0.073446  
      41A      0.075915    42A      0.090459    43A      0.093805  
      44A      0.109169    45A      0.111985    46A      0.113775  
      47A      0.115784    48A      0.119901    49A      0.134596  
      50A      0.139909    51A      0.145040    52A      0.152595  
      53A      0.159729    54A      0.175717    55A      0.184535  
      56A      0.191922    57A      0.196681    58A      0.205381  
      59A      0.222568    60A      0.225570    61A      0.236137  
      62A      0.238309    63A      0.257935    64A      0.257980  
      65A      0.263891    66A      0.272872    67A      0.281120  
      68A      0.284311    69A      0.289318    70A      0.293603  
      71A      0.302062    72A      0.306737    73A      0.311883  
      74A      0.324120    75A      0.326922    76A      0.331776  
      77A      0.333413    78A      0.339781    79A      0.344609  
      80A      0.350759    81A      0.355844    82A      0.359428  
      83A      0.369252    84A      0.373941    85A      0.376731  
      86A      0.381990    87A      0.389466    88A      0.390547  
      89A      0.401081    90A      0.405493    91A      0.413999  
      92A      0.428083    93A      0.430775    94A      0.437295  
      95A      0.441632    96A      0.451016    97A      0.454832  
      98A      0.475152    99A      0.478582   100A      0.491372  
     101A      0.496581   102A      0.507301   103A      0.516055  
     104A      0.523562   105A      0.527456   106A      0.531431  
     107A      0.536920   108A      0.546012   109A      0.553108  
     110A      0.556713   111A      0.565508   112A      0.568787  
     113A      0.579913   114A      0.583989   115A      0.595605  
     116A      0.604277   117A      0.614671   118A      0.620556  
     119A      0.639082   120A      0.662168   121A      0.663307  
     122A      0.676328   123A      0.683412   124A      0.689867  
     125A      0.700237   126A      0.702972   127A      0.717890  
     128A      0.738462   129A      0.742234   130A      0.749769  
     131A      0.758375   132A      0.767794   133A      0.771300  
     134A      0.779408   135A      0.793311   136A      0.795832  
     137A      0.807631   138A      0.810328   139A      0.817623  
     140A      0.819945   141A      0.827542   142A      0.830528  
     143A      0.841423   144A      0.848291   145A      0.858562  
     146A      0.861959   147A      0.873744   148A      0.881583  
     149A      0.888461   150A      0.899187   151A      0.908200  
     152A      0.914760   153A      0.926328   154A      0.945008  
     155A      0.953933   156A      0.963014   157A      0.973811  
     158A      0.978027   159A      0.992236   160A      0.996473  
     161A      1.006779   162A      1.029853   163A      1.034360  
     164A      1.045142   165A      1.053459   166A      1.076893  
     167A      1.093802   168A      1.099225   169A      1.119212  
     170A      1.139837   171A      1.154125   172A      1.169109  
     173A      1.178347   174A      1.182900   175A      1.193377  
     176A      1.211114   177A      1.221653   178A      1.245375  
     179A      1.246029   180A      1.266591   181A      1.278107  
     182A      1.285719   183A      1.296437   184A      1.318353  
     185A      1.324068   186A      1.339494   187A      1.342517  
     188A      1.357148   189A      1.370896   190A      1.376656  
     191A      1.386957   192A      1.399687   193A      1.405526  
     194A      1.407545   195A      1.414371   196A      1.418032  
     197A      1.438184   198A      1.452386   199A      1.457416  
     200A      1.471997   201A      1.487700   202A      1.488798  
     203A      1.494587   204A      1.509273   205A      1.516081  
     206A      1.523936   207A      1.535101   208A      1.549428  
     209A      1.553889   210A      1.562670   211A      1.571411  
     212A      1.584268   213A      1.593618   214A      1.610546  
     215A      1.612811   216A      1.620123   217A      1.634014  
     218A      1.650521   219A      1.654278   220A      1.661583  
     221A      1.666606   222A      1.680801   223A      1.687326  
     224A      1.690975   225A      1.699471   226A      1.704847  
     227A      1.712835   228A      1.725416   229A      1.747971  
     230A      1.754093   231A      1.761817   232A      1.774638  
     233A      1.783727   234A      1.813214   235A      1.823584  
     236A      1.849309   237A      1.852314   238A      1.868554  
     239A      1.874931   240A      1.881262   241A      1.889900  
     242A      1.899468   243A      1.928684   244A      1.955932  
     245A      1.964344   246A      1.971585   247A      2.005079  
     248A      2.007091   249A      2.020796   250A      2.059495  
     251A      2.092513   252A      2.188141   253A      2.243570  
     254A      2.318118   255A      2.390552   256A      2.415168  
     257A      2.431364   258A      2.451245   259A      2.467223  
     260A      2.501966   261A      2.579529   262A      2.604406  
     263A      2.643278   264A      2.664977   265A      2.781483  
     266A      2.810683   267A      2.822640   268A      2.832943  
     269A      2.839790   270A      2.851112   271A      2.860079  
     272A      2.875836   273A      2.880981   274A      2.898573  
     275A      2.916627   276A      2.939126   277A      2.941239  
     278A      2.953723   279A      2.964747   280A      2.990148  
     281A      3.000286   282A      3.004214   283A      3.033701  
     284A      3.045972   285A      3.066081   286A      3.093812  
     287A      3.111200   288A      3.118614   289A      3.122646  
     290A      3.137501   291A      3.152367   292A      3.160975  
     293A      3.177347   294A      3.189361   295A      3.200538  
     296A      3.214659   297A      3.253798   298A      3.262336  
     299A      3.278604   300A      3.287765   301A      3.301413  
     302A      3.305391   303A      3.326967   304A      3.338066  
     305A      3.349291   306A      3.363132   307A      3.365322  
     308A      3.384077   309A      3.386955   310A      3.405950  
     311A      3.421238   312A      3.422416   313A      3.430250  
     314A      3.434410   315A      3.453175   316A      3.462212  
     317A      3.466020   318A      3.469089   319A      3.477802  
     320A      3.488279   321A      3.492139   322A      3.510681  
     323A      3.517718   324A      3.522508   325A      3.530027  
     326A      3.533643   327A      3.545548   328A      3.557496  
     329A      3.568719   330A      3.569426   331A      3.579739  
     332A      3.597540   333A      3.615371   334A      3.626411  
     335A      3.651321   336A      3.653064   337A      3.661140  
     338A      3.673681   339A      3.684502   340A      3.713216  
     341A      3.715680   342A      3.734384   343A      3.739979  
     344A      3.754041   345A      3.759927   346A      3.768872  
     347A      3.783646   348A      3.809566   349A      3.811433  
     350A      3.823549   351A      3.842640   352A      3.848973  
     353A      3.855061   354A      3.868563   355A      3.896604  
     356A      3.909470   357A      3.913634   358A      3.920623  
     359A      3.924032   360A      3.938152   361A      3.956791  
     362A      3.965590   363A      3.976989   364A      3.984551  
     365A      3.992394   366A      4.016200   367A      4.052119  
     368A      4.058267   369A      4.088519   370A      4.094910  
     371A      4.122752   372A      4.127477   373A      4.135795  
     374A      4.145660   375A      4.172840   376A      4.180647  
     377A      4.193134   378A      4.214480   379A      4.238659  
     380A      4.250604   381A      4.263931   382A      4.274212  
     383A      4.281179   384A      4.283214   385A      4.293681  
     386A      4.308474   387A      4.317382   388A      4.336441  
     389A      4.346411   390A      4.353248   391A      4.358645  
     392A      4.373605   393A      4.381854   394A      4.395728  
     395A      4.399295   396A      4.405724   397A      4.415943  
     398A      4.430005   399A      4.437699   400A      4.453736  
     401A      4.462027   402A      4.475169   403A      4.486328  
     404A      4.488543   405A      4.497235   406A      4.506674  
     407A      4.511101   408A      4.522358   409A      4.526676  
     410A      4.550018   411A      4.560545   412A      4.570846  
     413A      4.580892   414A      4.586608   415A      4.599770  
     416A      4.614502   417A      4.624060   418A      4.645214  
     419A      4.656349   420A      4.675221   421A      4.688687  
     422A      4.701399   423A      4.708756   424A      4.717431  
     425A      4.754218   426A      4.764257   427A      4.768457  
     428A      4.772312   429A      4.797819   430A      4.806709  
     431A      4.838994   432A      4.849180   433A      4.857846  
     434A      4.880773   435A      4.898055   436A      4.908396  
     437A      4.916937   438A      4.958378   439A      4.989440  
     440A      5.023041   441A      5.033291   442A      5.056432  
     443A      5.069392   444A      5.093203   445A      5.139123  
     446A      5.150235   447A      5.171522   448A      5.185651  
     449A      5.200311   450A      5.211239   451A      5.219318  
     452A      5.233881   453A      5.257375   454A      5.271337  
     455A      5.283531   456A      5.293876   457A      5.310512  
     458A      5.322943   459A      5.336224   460A      5.349993  
     461A      5.393044   462A      5.401571   463A      5.417410  
     464A      5.433664   465A      5.466782   466A      5.475120  
     467A      5.502620   468A      5.511038   469A      5.526177  
     470A      5.535436   471A      5.577036   472A      5.596991  
     473A      5.615437   474A      5.637036   475A      5.666526  
     476A      5.682604   477A      5.750315   478A      5.755924  
     479A      5.766562   480A      5.784598   481A      5.795209  
     482A      5.807599   483A      5.831440   484A      5.843178  
     485A      5.849427   486A      5.855375   487A      5.888195  
     488A      5.908309   489A      5.931732   490A      5.936946  
     491A      5.944404   492A      5.975773   493A      5.996815  
     494A      6.009115   495A      6.096839   496A      6.112775  
     497A      6.145913   498A      6.158759   499A      6.277934  
     500A      6.334744   501A      6.406779   502A      6.470916  
     503A      6.492742   504A      6.496487   505A      6.519458  
     506A      6.552159   507A      6.553414   508A      6.569265  
     509A      6.604850   510A      6.615082   511A      6.915600  
     512A      6.979791   513A      7.052037   514A      7.083557  
     515A      7.222643   516A      7.257098   517A      7.317479  
     518A      7.376023   519A      7.407929   520A      7.446169  
     521A      7.532061   522A      7.584658   523A      7.634898  
     524A      7.731130   525A      7.860473   526A      7.934438  
     527A      8.199250   528A      8.234419   529A     13.661337  
     530A     13.741742   531A     13.926652   532A     13.982704  
     533A     14.144263   534A     14.236709   535A     14.613447  
     536A     14.701712  

    Final Occupation by Irrep:
              A 
    DOCC [    34 ]

  @DF-RHF Final Energy:  -386.38690153097980

   => Energetics <=

    Nuclear Repulsion Energy =            413.5170675771392439
    One-Electron Energy =               -1346.6089022092205596
    Two-Electron Energy =                 546.7049331011015738
    Total Energy =                       -386.3869015309797987

Computation Completed


Properties will be evaluated at   0.000000,   0.000000,   0.000000 [a0]

Properties computed using the SCF density matrix

  Nuclear Dipole Moment: [e a0]
     X:     0.6887      Y:     4.4366      Z:    -0.9761

  Electronic Dipole Moment: [e a0]
     X:     0.1772      Y:    -4.4782      Z:     0.1453

  Dipole Moment: [e a0]
     X:     0.8659      Y:    -0.0416      Z:    -0.8308     Total:     1.2007

  Dipole Moment: [D]
     X:     2.2009      Y:    -0.1058      Z:    -2.1117     Total:     3.0520


*** tstop() called on r282 at Thu Sep  9 10:00:34 2021
Module time:
	user time   =      75.89 seconds =       1.26 minutes
	system time =       1.69 seconds =       0.03 minutes
	total time  =         77 seconds =       1.28 minutes
Total time:
	user time   =      75.89 seconds =       1.26 minutes
	system time =       1.69 seconds =       0.03 minutes
	total time  =         77 seconds =       1.28 minutes

  //>>>>>>>>>>>>>>>>>>>>>>>>>>>>>>>>>>>//
  //            Monomer A HF           //
  //<<<<<<<<<<<<<<<<<<<<<<<<<<<<<<<<<<<//


*** tstart() called on r282
*** at Thu Sep  9 10:00:34 2021

   => Loading Basis Set <=

    Name: JUN-CC-PVTZ
    Role: ORBITAL
    Keyword: BASIS
    atoms 1-2, 9, 13-14, 21                    entry C          line   217 file /home/r08543048/miniconda3/share/psi4/basis/jun-cc-pvtz.gbs 
    atoms 3-4, 6-8, 10-12, 15-16, 18-20, 22-24 entry H          line    36 file /home/r08543048/miniconda3/share/psi4/basis/jun-cc-pvtz.gbs 
    atoms 5, 17                                entry O          line   305 file /home/r08543048/miniconda3/share/psi4/basis/jun-cc-pvtz.gbs 


         ---------------------------------------------------------
                                   SCF
               by Justin Turney, Rob Parrish, Andy Simmonett
                          and Daniel G. A. Smith
                              RHF Reference
                        1 Threads,  20980 MiB Core
         ---------------------------------------------------------

  ==> Geometry <==

    Molecular point group: c1
    Full point group: C1

    Geometry (in Angstrom), charge = 0, multiplicity = 1:

       Center              X                  Y                   Z               Mass       
    ------------   -----------------  -----------------  -----------------  -----------------
         C            2.737269737506     0.452995316956    -0.131961150754    12.000000000000
         C            1.666982737506     0.005789316956    -1.110030150754    12.000000000000
         H            3.522052737506    -0.308867683044    -0.091996150754     1.007825032230
         H            3.204308737506     1.353446316956    -0.538884150754     1.007825032230
         O            1.039510737506    -1.224912683044    -0.722837150754    15.994914619570
         H            0.857036737506     0.734803316956    -1.144330150754     1.007825032230
         H            2.078858737506    -0.092822683044    -2.117387150754     1.007825032230
         H            1.722732737506    -1.901661683044    -0.659747150754     1.007825032230
         C            2.191207737506     0.726109316956     1.263476849246    12.000000000000
         H            2.984234737506     1.052513316956     1.934851849246     1.007825032230
         H            1.430033737506     1.505988316956     1.232931849246     1.007825032230
         H            1.728560737506    -0.161708683044     1.690439849246     1.007825032230
      Gh(C)          -2.299447262494     0.159586316956    -0.716805150754    12.000000000000
      Gh(C)          -2.262708262494    -0.777008683044     0.481603849246    12.000000000000
      Gh(H)          -1.523404262494    -0.148221683044    -1.423125150754     1.007825032230
      Gh(H)          -3.257212262494     0.030618316956    -1.228079150754     1.007825032230
      Gh(O)          -1.031271262494    -0.712855683044     1.188411849246    15.994914619570
      Gh(H)          -3.034010262494    -0.492168683044     1.199220849246     1.007825032230
      Gh(H)          -2.470852262494    -1.802561683044     0.158964849246     1.007825032230
      Gh(H)          -0.331465262494    -0.989092683044     0.574591849246     1.007825032230
      Gh(C)          -2.105984262494     1.617103316956    -0.319205150754    12.000000000000
      Gh(H)          -1.168270262494     1.745147316956     0.219941849246     1.007825032230
      Gh(H)          -2.096930262494     2.271445316956    -1.190667150754     1.007825032230
      Gh(H)          -2.911057262494     1.945574316956     0.339662849246     1.007825032230

  Running in c1 symmetry.

  Rotational constants: A =      0.08306  B =      0.02916  C =      0.02870 [cm^-1]
  Rotational constants: A =   2490.08973  B =    874.14948  C =    860.48480 [MHz]
  Nuclear repulsion =  132.565734816821475

  Charge       = 0
  Multiplicity = 1
  Electrons    = 34
  Nalpha       = 17
  Nbeta        = 17

  ==> Algorithm <==

  SCF Algorithm Type is DF.
  DIIS enabled.
  MOM disabled.
  Fractional occupation disabled.
  Guess Type is SAD.
  Energy threshold   = 1.00e-08
  Density threshold  = 1.00e-08
  Integral threshold = 0.00e+00

  ==> Primary Basis <==

  Basis Set: JUN-CC-PVTZ
    Blend: JUN-CC-PVTZ
    Number of shells: 200
    Number of basis function: 536
    Number of Cartesian functions: 600
    Spherical Harmonics?: true
    Max angular momentum: 3

   => Loading Basis Set <=

    Name: (JUN-CC-PVTZ AUX)
    Role: JKFIT
    Keyword: DF_BASIS_SCF
    atoms 1-2, 9, 13-14, 21                    entry C          line   152 file /home/r08543048/miniconda3/share/psi4/basis/jun-cc-pvtz-jkfit.gbs 
    atoms 3-4, 6-8, 10-12, 15-16, 18-20, 22-24 entry H          line    70 file /home/r08543048/miniconda3/share/psi4/basis/jun-cc-pvtz-jkfit.gbs 
    atoms 5, 17                                entry O          line   272 file /home/r08543048/miniconda3/share/psi4/basis/jun-cc-pvtz-jkfit.gbs 

  ==> Pre-Iterations <==

   -------------------------------------------------------
    Irrep   Nso     Nmo     Nalpha   Nbeta   Ndocc  Nsocc
   -------------------------------------------------------
     A        536     536       0       0       0       0
   -------------------------------------------------------
    Total     536     536      17      17      17       0
   -------------------------------------------------------

  ==> Integral Setup <==

  ==> DiskDFJK: Density-Fitted J/K Matrices <==

    J tasked:                  Yes
    K tasked:                  Yes
    wK tasked:                  No
    OpenMP threads:              1
    Integrals threads:           1
    Memory [MiB]:            15735
    Algorithm:                Core
    Integral Cache:           LOAD
    Schwarz Cutoff:          1E-12
    Fitting Condition:       1E-10

   => Auxiliary Basis Set <=

  Basis Set: (JUN-CC-PVTZ AUX)
    Blend: JUN-CC-PVTZ-JKFIT
    Number of shells: 392
    Number of basis function: 1240
    Number of Cartesian functions: 1488
    Spherical Harmonics?: true
    Max angular momentum: 4

  Minimum eigenvalue in the overlap matrix is 5.3042561662E-05.
  Using Symmetric Orthogonalization.

  SCF Guess: Superposition of Atomic Densities via on-the-fly atomic UHF.

  ==> Iterations <==

                           Total Energy        Delta E     RMS |[F,P]|

   @DF-RHF iter SAD:  -192.48532611235771   -1.92485e+02   0.00000e+00 
   @DF-RHF iter   1:  -193.01168266200602   -5.26357e-01   1.06563e-03 DIIS
   @DF-RHF iter   2:  -193.15234822556451   -1.40666e-01   5.64509e-04 DIIS
   @DF-RHF iter   3:  -193.18929029781768   -3.69421e-02   9.62040e-05 DIIS
   @DF-RHF iter   4:  -193.19139194375040   -2.10165e-03   3.52477e-05 DIIS
   @DF-RHF iter   5:  -193.19159357568137   -2.01632e-04   7.91151e-06 DIIS
   @DF-RHF iter   6:  -193.19160785126419   -1.42756e-05   1.63614e-06 DIIS
   @DF-RHF iter   7:  -193.19160878365636   -9.32392e-07   4.11550e-07 DIIS
   @DF-RHF iter   8:  -193.19160883829480   -5.46384e-08   1.38122e-07 DIIS
   @DF-RHF iter   9:  -193.19160884440248   -6.10768e-09   3.73148e-08 DIIS
   @DF-RHF iter  10:  -193.19160884492740   -5.24921e-10   8.16523e-09 DIIS
  Energy and wave function converged.


  ==> Post-Iterations <==

    Orbital Energies [Eh]
    ---------------------

    Doubly Occupied:                                                      

       1A    -20.553566     2A    -11.271683     3A    -11.223671  
       4A    -11.210453     5A     -1.351683     6A     -1.052366  
       7A     -0.921165     8A     -0.812483     9A     -0.671775  
      10A     -0.636926    11A     -0.627814    12A     -0.562980  
      13A     -0.533927    14A     -0.520361    15A     -0.485344  
      16A     -0.472102    17A     -0.438246  

    Virtual:                                                              

      18A      0.037576    19A      0.050264    20A      0.053968  
      21A      0.054721    22A      0.070010    23A      0.071331  
      24A      0.074648    25A      0.087197    26A      0.090125  
      27A      0.101125    28A      0.107817    29A      0.112969  
      30A      0.113339    31A      0.115933    32A      0.125335  
      33A      0.135513    34A      0.143392    35A      0.146963  
      36A      0.148617    37A      0.157595    38A      0.160980  
      39A      0.171270    40A      0.189329    41A      0.197634  
      42A      0.203570    43A      0.214536    44A      0.218586  
      45A      0.225083    46A      0.239111    47A      0.251819  
      48A      0.260594    49A      0.263970    50A      0.267747  
      51A      0.271524    52A      0.284608    53A      0.287862  
      54A      0.294376    55A      0.307782    56A      0.310984  
      57A      0.317251    58A      0.323353    59A      0.328737  
      60A      0.334868    61A      0.338380    62A      0.343317  
      63A      0.352972    64A      0.355549    65A      0.360127  
      66A      0.366806    67A      0.374603    68A      0.379526  
      69A      0.387539    70A      0.389480    71A      0.395266  
      72A      0.402676    73A      0.413043    74A      0.419269  
      75A      0.427851    76A      0.434695    77A      0.443318  
      78A      0.448366    79A      0.471571    80A      0.475546  
      81A      0.478210    82A      0.481463    83A      0.487111  
      84A      0.502422    85A      0.510549    86A      0.515247  
      87A      0.525716    88A      0.532398    89A      0.535106  
      90A      0.537002    91A      0.548634    92A      0.548796  
      93A      0.556892    94A      0.562072    95A      0.574562  
      96A      0.592559    97A      0.596289    98A      0.614439  
      99A      0.619139   100A      0.619355   101A      0.627714  
     102A      0.630492   103A      0.639069   104A      0.643247  
     105A      0.655898   106A      0.676929   107A      0.680467  
     108A      0.691349   109A      0.706753   110A      0.710430  
     111A      0.716338   112A      0.724267   113A      0.740084  
     114A      0.746401   115A      0.757790   116A      0.778326  
     117A      0.781317   118A      0.789198   119A      0.795235  
     120A      0.809621   121A      0.821213   122A      0.828633  
     123A      0.830837   124A      0.853946   125A      0.859357  
     126A      0.867097   127A      0.880271   128A      0.892860  
     129A      0.900035   130A      0.919361   131A      0.926867  
     132A      0.942814   133A      0.947804   134A      0.975793  
     135A      0.978245   136A      0.991757   137A      1.004279  
     138A      1.020696   139A      1.035137   140A      1.048015  
     141A      1.056441   142A      1.060328   143A      1.079002  
     144A      1.087377   145A      1.106187   146A      1.116257  
     147A      1.134784   148A      1.137349   149A      1.148335  
     150A      1.157242   151A      1.171248   152A      1.190821  
     153A      1.199215   154A      1.208933   155A      1.212660  
     156A      1.229168   157A      1.229652   158A      1.233995  
     159A      1.243480   160A      1.271252   161A      1.278695  
     162A      1.281408   163A      1.290910   164A      1.312072  
     165A      1.329605   166A      1.334334   167A      1.340547  
     168A      1.352330   169A      1.357528   170A      1.362721  
     171A      1.372834   172A      1.377647   173A      1.387632  
     174A      1.405656   175A      1.412636   176A      1.418817  
     177A      1.426202   178A      1.436101   179A      1.448355  
     180A      1.460391   181A      1.466078   182A      1.476591  
     183A      1.494115   184A      1.500028   185A      1.512608  
     186A      1.528533   187A      1.534161   188A      1.540934  
     189A      1.550188   190A      1.559866   191A      1.566482  
     192A      1.576806   193A      1.582235   194A      1.590995  
     195A      1.596369   196A      1.611840   197A      1.620527  
     198A      1.631779   199A      1.639569   200A      1.649509  
     201A      1.656655   202A      1.679329   203A      1.689888  
     204A      1.697420   205A      1.698501   206A      1.709880  
     207A      1.719850   208A      1.738423   209A      1.756899  
     210A      1.764050   211A      1.774491   212A      1.785241  
     213A      1.804038   214A      1.821016   215A      1.830014  
     216A      1.851972   217A      1.871157   218A      1.875539  
     219A      1.880948   220A      1.895554   221A      1.901039  
     222A      1.917597   223A      1.929556   224A      1.954799  
     225A      1.958394   226A      1.976971   227A      1.996351  
     228A      2.033109   229A      2.048580   230A      2.065579  
     231A      2.098056   232A      2.124879   233A      2.150571  
     234A      2.191736   235A      2.210137   236A      2.220968  
     237A      2.273491   238A      2.289694   239A      2.358419  
     240A      2.369113   241A      2.412010   242A      2.422249  
     243A      2.443179   244A      2.467503   245A      2.498570  
     246A      2.504942   247A      2.545261   248A      2.582670  
     249A      2.605726   250A      2.625489   251A      2.630093  
     252A      2.713967   253A      2.788411   254A      2.809998  
     255A      2.823582   256A      2.846919   257A      2.854291  
     258A      2.880852   259A      2.898740   260A      2.947091  
     261A      2.963017   262A      2.975773   263A      2.990293  
     264A      3.015594   265A      3.031821   266A      3.036345  
     267A      3.077161   268A      3.085524   269A      3.108352  
     270A      3.123181   271A      3.134720   272A      3.165794  
     273A      3.183361   274A      3.196377   275A      3.256476  
     276A      3.297878   277A      3.309054   278A      3.324759  
     279A      3.349814   280A      3.366146   281A      3.391973  
     282A      3.417515   283A      3.434504   284A      3.443092  
     285A      3.454100   286A      3.470156   287A      3.474291  
     288A      3.488112   289A      3.502573   290A      3.511626  
     291A      3.523744   292A      3.538641   293A      3.545398  
     294A      3.546380   295A      3.574809   296A      3.588061  
     297A      3.597005   298A      3.609496   299A      3.630014  
     300A      3.634849   301A      3.642183   302A      3.647251  
     303A      3.657163   304A      3.686588   305A      3.700971  
     306A      3.718391   307A      3.726169   308A      3.742121  
     309A      3.755785   310A      3.760942   311A      3.779511  
     312A      3.790906   313A      3.801362   314A      3.808738  
     315A      3.825234   316A      3.834933   317A      3.850159  
     318A      3.853487   319A      3.864443   320A      3.875172  
     321A      3.906815   322A      3.912728   323A      3.918287  
     324A      3.919519   325A      3.939831   326A      3.954935  
     327A      3.969995   328A      3.985061   329A      3.985975  
     330A      3.998234   331A      4.009611   332A      4.041198  
     333A      4.070435   334A      4.096578   335A      4.097847  
     336A      4.117344   337A      4.129127   338A      4.139716  
     339A      4.158141   340A      4.160585   341A      4.195207  
     342A      4.197789   343A      4.232433   344A      4.240093  
     345A      4.258458   346A      4.276066   347A      4.283975  
     348A      4.286770   349A      4.295661   350A      4.304596  
     351A      4.323564   352A      4.340567   353A      4.358025  
     354A      4.360327   355A      4.385932   356A      4.394699  
     357A      4.405172   358A      4.419501   359A      4.423717  
     360A      4.432607   361A      4.444755   362A      4.447020  
     363A      4.455279   364A      4.464918   365A      4.478813  
     366A      4.494399   367A      4.507642   368A      4.514551  
     369A      4.521409   370A      4.529814   371A      4.538885  
     372A      4.562701   373A      4.564302   374A      4.580239  
     375A      4.590677   376A      4.615462   377A      4.619930  
     378A      4.628752   379A      4.640236   380A      4.644794  
     381A      4.666822   382A      4.672121   383A      4.691211  
     384A      4.710093   385A      4.720253   386A      4.731314  
     387A      4.754439   388A      4.757427   389A      4.761893  
     390A      4.772672   391A      4.779162   392A      4.785237  
     393A      4.793293   394A      4.805463   395A      4.818329  
     396A      4.833934   397A      4.849299   398A      4.851803  
     399A      4.855945   400A      4.890546   401A      4.891399  
     402A      4.899439   403A      4.915701   404A      4.925185  
     405A      4.932320   406A      4.945946   407A      4.954995  
     408A      4.962799   409A      4.967001   410A      4.992758  
     411A      5.002327   412A      5.003570   413A      5.029435  
     414A      5.053096   415A      5.062695   416A      5.069404  
     417A      5.081108   418A      5.094663   419A      5.111627  
     420A      5.127059   421A      5.151285   422A      5.155945  
     423A      5.177107   424A      5.181611   425A      5.189051  
     426A      5.207726   427A      5.221447   428A      5.252586  
     429A      5.275546   430A      5.289604   431A      5.303497  
     432A      5.306564   433A      5.321211   434A      5.334971  
     435A      5.351653   436A      5.381398   437A      5.408494  
     438A      5.426659   439A      5.438003   440A      5.478687  
     441A      5.486136   442A      5.513706   443A      5.543108  
     444A      5.578153   445A      5.587571   446A      5.605297  
     447A      5.619519   448A      5.635230   449A      5.682073  
     450A      5.720730   451A      5.746447   452A      5.761263  
     453A      5.775926   454A      5.803963   455A      5.824465  
     456A      5.839778   457A      5.850393   458A      5.889402  
     459A      5.905925   460A      5.908746   461A      5.941186  
     462A      5.946456   463A      5.974848   464A      6.010695  
     465A      6.028489   466A      6.079198   467A      6.110346  
     468A      6.140650   469A      6.181195   470A      6.225720  
     471A      6.275709   472A      6.306224   473A      6.314009  
     474A      6.353871   475A      6.369803   476A      6.424920  
     477A      6.438808   478A      6.469881   479A      6.483573  
     480A      6.513339   481A      6.519088   482A      6.560420  
     483A      6.603782   484A      6.623307   485A      6.692767  
     486A      6.876240   487A      6.943999   488A      6.961458  
     489A      7.027162   490A      7.079125   491A      7.173958  
     492A      7.248215   493A      7.300258   494A      7.335056  
     495A      7.413812   496A      7.443279   497A      7.508694  
     498A      7.538210   499A      7.568726   500A      7.590343  
     501A      7.617892   502A      7.655017   503A      7.698054  
     504A      7.730776   505A      7.752451   506A      7.820512  
     507A      7.870195   508A      7.879731   509A      7.950277  
     510A      8.030365   511A      8.062816   512A      8.216788  
     513A      8.242136   514A      8.380510   515A      8.528077  
     516A      8.648996   517A      9.564227   518A      9.642730  
     519A      9.797388   520A      9.902586   521A      9.952568  
     522A     10.069339   523A     10.193343   524A     10.406212  
     525A     11.299142   526A     11.729604   527A     12.826918  
     528A     13.631907   529A     13.750245   530A     13.958091  
     531A     14.189889   532A     14.650082   533A     44.014583  
     534A     45.008761   535A     45.726533   536A     61.772208  

    Final Occupation by Irrep:
              A 
    DOCC [    17 ]

  @DF-RHF Final Energy:  -193.19160884492740

   => Energetics <=

    Nuclear Repulsion Energy =            132.5657348168214753
    One-Electron Energy =                -524.8215935618653702
    Two-Electron Energy =                 199.0642499001164936
    Total Energy =                       -193.1916088449274014

Computation Completed


Properties will be evaluated at   0.000000,   0.000000,   0.000000 [a0]

Properties computed using the SCF density matrix

  Nuclear Dipole Moment: [e a0]
     X:   123.6196      Y:    -0.9604      Z:   -10.1061

  Electronic Dipole Moment: [e a0]
     X:  -122.9142      Y:     1.1142      Z:    10.0232

  Dipole Moment: [e a0]
     X:     0.7054      Y:     0.1537      Z:    -0.0829     Total:     0.7267

  Dipole Moment: [D]
     X:     1.7930      Y:     0.3908      Z:    -0.2107     Total:     1.8471


*** tstop() called on r282 at Thu Sep  9 10:01:09 2021
Module time:
	user time   =      34.01 seconds =       0.57 minutes
	system time =       0.78 seconds =       0.01 minutes
	total time  =         35 seconds =       0.58 minutes
Total time:
	user time   =     109.90 seconds =       1.83 minutes
	system time =       2.47 seconds =       0.04 minutes
	total time  =        112 seconds =       1.87 minutes

  //>>>>>>>>>>>>>>>>>>>>>>>>>>>>>>>>>>>//
  //            Monomer B HF           //
  //<<<<<<<<<<<<<<<<<<<<<<<<<<<<<<<<<<<//


*** tstart() called on r282
*** at Thu Sep  9 10:01:09 2021

   => Loading Basis Set <=

    Name: JUN-CC-PVTZ
    Role: ORBITAL
    Keyword: BASIS
    atoms 1-2, 9, 13-14, 21                    entry C          line   217 file /home/r08543048/miniconda3/share/psi4/basis/jun-cc-pvtz.gbs 
    atoms 3-4, 6-8, 10-12, 15-16, 18-20, 22-24 entry H          line    36 file /home/r08543048/miniconda3/share/psi4/basis/jun-cc-pvtz.gbs 
    atoms 5, 17                                entry O          line   305 file /home/r08543048/miniconda3/share/psi4/basis/jun-cc-pvtz.gbs 


         ---------------------------------------------------------
                                   SCF
               by Justin Turney, Rob Parrish, Andy Simmonett
                          and Daniel G. A. Smith
                              RHF Reference
                        1 Threads,  20980 MiB Core
         ---------------------------------------------------------

  ==> Geometry <==

    Molecular point group: c1
    Full point group: C1

    Geometry (in Angstrom), charge = 0, multiplicity = 1:

       Center              X                  Y                   Z               Mass       
    ------------   -----------------  -----------------  -----------------  -----------------
      Gh(C)           2.737269737506     0.452995316956    -0.131961150754    12.000000000000
      Gh(C)           1.666982737506     0.005789316956    -1.110030150754    12.000000000000
      Gh(H)           3.522052737506    -0.308867683044    -0.091996150754     1.007825032230
      Gh(H)           3.204308737506     1.353446316956    -0.538884150754     1.007825032230
      Gh(O)           1.039510737506    -1.224912683044    -0.722837150754    15.994914619570
      Gh(H)           0.857036737506     0.734803316956    -1.144330150754     1.007825032230
      Gh(H)           2.078858737506    -0.092822683044    -2.117387150754     1.007825032230
      Gh(H)           1.722732737506    -1.901661683044    -0.659747150754     1.007825032230
      Gh(C)           2.191207737506     0.726109316956     1.263476849246    12.000000000000
      Gh(H)           2.984234737506     1.052513316956     1.934851849246     1.007825032230
      Gh(H)           1.430033737506     1.505988316956     1.232931849246     1.007825032230
      Gh(H)           1.728560737506    -0.161708683044     1.690439849246     1.007825032230
         C           -2.299447262494     0.159586316956    -0.716805150754    12.000000000000
         C           -2.262708262494    -0.777008683044     0.481603849246    12.000000000000
         H           -1.523404262494    -0.148221683044    -1.423125150754     1.007825032230
         H           -3.257212262494     0.030618316956    -1.228079150754     1.007825032230
         O           -1.031271262494    -0.712855683044     1.188411849246    15.994914619570
         H           -3.034010262494    -0.492168683044     1.199220849246     1.007825032230
         H           -2.470852262494    -1.802561683044     0.158964849246     1.007825032230
         H           -0.331465262494    -0.989092683044     0.574591849246     1.007825032230
         C           -2.105984262494     1.617103316956    -0.319205150754    12.000000000000
         H           -1.168270262494     1.745147316956     0.219941849246     1.007825032230
         H           -2.096930262494     2.271445316956    -1.190667150754     1.007825032230
         H           -2.911057262494     1.945574316956     0.339662849246     1.007825032230

  Running in c1 symmetry.

  Rotational constants: A =      0.08306  B =      0.02916  C =      0.02870 [cm^-1]
  Rotational constants: A =   2490.08973  B =    874.14948  C =    860.48480 [MHz]
  Nuclear repulsion =  132.910338235682246

  Charge       = 0
  Multiplicity = 1
  Electrons    = 34
  Nalpha       = 17
  Nbeta        = 17

  ==> Algorithm <==

  SCF Algorithm Type is DF.
  DIIS enabled.
  MOM disabled.
  Fractional occupation disabled.
  Guess Type is SAD.
  Energy threshold   = 1.00e-08
  Density threshold  = 1.00e-08
  Integral threshold = 0.00e+00

  ==> Primary Basis <==

  Basis Set: JUN-CC-PVTZ
    Blend: JUN-CC-PVTZ
    Number of shells: 200
    Number of basis function: 536
    Number of Cartesian functions: 600
    Spherical Harmonics?: true
    Max angular momentum: 3

   => Loading Basis Set <=

    Name: (JUN-CC-PVTZ AUX)
    Role: JKFIT
    Keyword: DF_BASIS_SCF
    atoms 1-2, 9, 13-14, 21                    entry C          line   152 file /home/r08543048/miniconda3/share/psi4/basis/jun-cc-pvtz-jkfit.gbs 
    atoms 3-4, 6-8, 10-12, 15-16, 18-20, 22-24 entry H          line    70 file /home/r08543048/miniconda3/share/psi4/basis/jun-cc-pvtz-jkfit.gbs 
    atoms 5, 17                                entry O          line   272 file /home/r08543048/miniconda3/share/psi4/basis/jun-cc-pvtz-jkfit.gbs 

  ==> Pre-Iterations <==

   -------------------------------------------------------
    Irrep   Nso     Nmo     Nalpha   Nbeta   Ndocc  Nsocc
   -------------------------------------------------------
     A        536     536       0       0       0       0
   -------------------------------------------------------
    Total     536     536      17      17      17       0
   -------------------------------------------------------

  ==> Integral Setup <==

  ==> DiskDFJK: Density-Fitted J/K Matrices <==

    J tasked:                  Yes
    K tasked:                  Yes
    wK tasked:                  No
    OpenMP threads:              1
    Integrals threads:           1
    Memory [MiB]:            15735
    Algorithm:                Core
    Integral Cache:           LOAD
    Schwarz Cutoff:          1E-12
    Fitting Condition:       1E-10

   => Auxiliary Basis Set <=

  Basis Set: (JUN-CC-PVTZ AUX)
    Blend: JUN-CC-PVTZ-JKFIT
    Number of shells: 392
    Number of basis function: 1240
    Number of Cartesian functions: 1488
    Spherical Harmonics?: true
    Max angular momentum: 4

  Minimum eigenvalue in the overlap matrix is 5.3042561662E-05.
  Using Symmetric Orthogonalization.

  SCF Guess: Superposition of Atomic Densities via on-the-fly atomic UHF.

  ==> Iterations <==

                           Total Energy        Delta E     RMS |[F,P]|

   @DF-RHF iter SAD:  -192.50284864685938   -1.92503e+02   0.00000e+00 
   @DF-RHF iter   1:  -193.01105556034011   -5.08207e-01   1.06552e-03 DIIS
   @DF-RHF iter   2:  -193.15189995230119   -1.40844e-01   5.64268e-04 DIIS
   @DF-RHF iter   3:  -193.18902188384965   -3.71219e-02   9.59599e-05 DIIS
   @DF-RHF iter   4:  -193.19113007275038   -2.10819e-03   3.48874e-05 DIIS
   @DF-RHF iter   5:  -193.19132825025079   -1.98178e-04   7.98418e-06 DIIS
   @DF-RHF iter   6:  -193.19134283169777   -1.45814e-05   1.67536e-06 DIIS
   @DF-RHF iter   7:  -193.19134381334842   -9.81651e-07   4.23712e-07 DIIS
   @DF-RHF iter   8:  -193.19134387157089   -5.82225e-08   1.42446e-07 DIIS
   @DF-RHF iter   9:  -193.19134387805786   -6.48697e-09   3.81225e-08 DIIS
   @DF-RHF iter  10:  -193.19134387860277   -5.44901e-10   8.30213e-09 DIIS
  Energy and wave function converged.


  ==> Post-Iterations <==

    Orbital Energies [Eh]
    ---------------------

    Doubly Occupied:                                                      

       1A    -20.556338     2A    -11.271200     3A    -11.222377  
       4A    -11.209267     5A     -1.356453     6A     -1.050710  
       7A     -0.919389     8A     -0.811176     9A     -0.674983  
      10A     -0.638672    11A     -0.626473    12A     -0.565358  
      13A     -0.531623    14A     -0.520557    15A     -0.484959  
      16A     -0.471054    17A     -0.436677  

    Virtual:                                                              

      18A      0.032231    19A      0.047256    20A      0.052870  
      21A      0.054607    22A      0.066889    23A      0.069832  
      24A      0.073840    25A      0.085585    26A      0.091353  
      27A      0.098733    28A      0.105528    29A      0.110416  
      30A      0.111678    31A      0.114098    32A      0.128884  
      33A      0.136013    34A      0.140758    35A      0.145981  
      36A      0.149832    37A      0.152432    38A      0.169816  
      39A      0.172265    40A      0.174268    41A      0.181393  
      42A      0.196803    43A      0.208312    44A      0.215783  
      45A      0.223764    46A      0.235564    47A      0.243987  
      48A      0.255292    49A      0.267362    50A      0.268046  
      51A      0.280169    52A      0.282627    53A      0.285188  
      54A      0.293880    55A      0.300978    56A      0.309300  
      57A      0.315718    58A      0.317038    59A      0.329984  
      60A      0.335084    61A      0.338061    62A      0.341875  
      63A      0.345975    64A      0.353233    65A      0.364224  
      66A      0.367074    67A      0.372904    68A      0.374589  
      69A      0.380454    70A      0.396287    71A      0.400228  
      72A      0.405239    73A      0.410926    74A      0.425511  
      75A      0.427841    76A      0.430817    77A      0.435951  
      78A      0.444487    79A      0.451652    80A      0.454443  
      81A      0.467063    82A      0.474934    83A      0.478733  
      84A      0.495832    85A      0.503681    86A      0.512822  
      87A      0.518162    88A      0.526422    89A      0.534047  
      90A      0.541025    91A      0.544742    92A      0.551629  
      93A      0.556357    94A      0.559522    95A      0.566146  
      96A      0.579682    97A      0.584906    98A      0.594979  
      99A      0.604100   100A      0.615991   101A      0.624224  
     102A      0.633884   103A      0.639644   104A      0.648603  
     105A      0.656449   106A      0.660387   107A      0.672886  
     108A      0.674651   109A      0.678015   110A      0.704544  
     111A      0.714086   112A      0.725582   113A      0.736767  
     114A      0.744757   115A      0.759306   116A      0.772677  
     117A      0.779063   118A      0.793643   119A      0.801635  
     120A      0.803765   121A      0.813196   122A      0.822919  
     123A      0.826786   124A      0.836303   125A      0.843774  
     126A      0.859040   127A      0.874512   128A      0.888852  
     129A      0.903295   130A      0.915358   131A      0.917243  
     132A      0.941392   133A      0.952186   134A      0.960425  
     135A      0.976717   136A      0.985498   137A      0.990654  
     138A      1.011839   139A      1.020014   140A      1.029440  
     141A      1.046118   142A      1.071788   143A      1.075075  
     144A      1.079586   145A      1.102452   146A      1.107078  
     147A      1.134974   148A      1.147630   149A      1.157738  
     150A      1.160976   151A      1.167269   152A      1.175866  
     153A      1.185812   154A      1.191638   155A      1.213434  
     156A      1.224378   157A      1.234712   158A      1.238697  
     159A      1.240625   160A      1.254924   161A      1.270263  
     162A      1.280937   163A      1.289057   164A      1.295889  
     165A      1.302759   166A      1.318569   167A      1.322468  
     168A      1.339152   169A      1.355462   170A      1.360808  
     171A      1.365280   172A      1.369946   173A      1.386097  
     174A      1.393108   175A      1.398573   176A      1.411770  
     177A      1.418196   178A      1.431435   179A      1.439205  
     180A      1.446525   181A      1.450055   182A      1.468793  
     183A      1.477028   184A      1.491836   185A      1.506898  
     186A      1.513929   187A      1.521837   188A      1.525011  
     189A      1.541065   190A      1.550543   191A      1.553734  
     192A      1.561966   193A      1.571254   194A      1.579143  
     195A      1.589123   196A      1.608120   197A      1.611736  
     198A      1.625203   199A      1.637496   200A      1.645204  
     201A      1.650983   202A      1.667346   203A      1.679503  
     204A      1.685726   205A      1.694925   206A      1.698350  
     207A      1.709563   208A      1.726340   209A      1.735910  
     210A      1.753761   211A      1.769646   212A      1.782359  
     213A      1.783574   214A      1.798921   215A      1.806321  
     216A      1.835116   217A      1.849229   218A      1.865873  
     219A      1.872523   220A      1.884019   221A      1.892962  
     222A      1.914260   223A      1.934423   224A      1.944414  
     225A      1.973827   226A      1.987702   227A      2.007830  
     228A      2.013672   229A      2.049969   230A      2.055597  
     231A      2.086734   232A      2.132934   233A      2.135253  
     234A      2.186299   235A      2.203018   236A      2.233923  
     237A      2.267807   238A      2.299754   239A      2.345872  
     240A      2.393304   241A      2.409148   242A      2.433330  
     243A      2.447999   244A      2.472576   245A      2.476092  
     246A      2.516363   247A      2.537477   248A      2.557153  
     249A      2.576334   250A      2.616037   251A      2.677460  
     252A      2.729330   253A      2.742931   254A      2.808517  
     255A      2.831462   256A      2.843554   257A      2.860993  
     258A      2.878687   259A      2.902268   260A      2.904076  
     261A      2.914055   262A      2.937323   263A      2.984494  
     264A      2.994018   265A      3.001559   266A      3.026103  
     267A      3.049277   268A      3.055374   269A      3.089681  
     270A      3.115405   271A      3.134475   272A      3.155254  
     273A      3.188701   274A      3.198853   275A      3.236102  
     276A      3.259139   277A      3.289533   278A      3.318511  
     279A      3.338369   280A      3.346142   281A      3.375819  
     282A      3.394211   283A      3.410051   284A      3.418709  
     285A      3.434833   286A      3.445520   287A      3.468933  
     288A      3.482674   289A      3.494472   290A      3.505032  
     291A      3.515812   292A      3.530236   293A      3.542458  
     294A      3.546089   295A      3.570080   296A      3.575800  
     297A      3.584200   298A      3.603293   299A      3.612249  
     300A      3.623313   301A      3.639292   302A      3.640324  
     303A      3.643194   304A      3.676053   305A      3.682247  
     306A      3.696640   307A      3.725267   308A      3.734032  
     309A      3.746194   310A      3.759127   311A      3.762829  
     312A      3.778266   313A      3.800635   314A      3.804455  
     315A      3.817631   316A      3.817885   317A      3.836558  
     318A      3.842603   319A      3.850217   320A      3.853352  
     321A      3.885910   322A      3.900540   323A      3.913774  
     324A      3.925743   325A      3.928207   326A      3.945536  
     327A      3.954912   328A      3.960958   329A      3.977930  
     330A      3.988426   331A      4.001835   332A      4.043364  
     333A      4.058828   334A      4.083008   335A      4.106644  
     336A      4.110913   337A      4.115288   338A      4.125304  
     339A      4.134793   340A      4.164527   341A      4.174026  
     342A      4.204701   343A      4.219731   344A      4.230924  
     345A      4.250465   346A      4.254292   347A      4.270672  
     348A      4.272645   349A      4.290474   350A      4.296907  
     351A      4.316480   352A      4.342474   353A      4.349383  
     354A      4.374307   355A      4.384146   356A      4.391299  
     357A      4.393545   358A      4.413165   359A      4.424426  
     360A      4.427170   361A      4.438908   362A      4.454886  
     363A      4.460310   364A      4.473950   365A      4.491242  
     366A      4.494038   367A      4.498343   368A      4.518478  
     369A      4.522034   370A      4.532270   371A      4.534789  
     372A      4.540299   373A      4.552271   374A      4.581399  
     375A      4.600228   376A      4.605864   377A      4.613157  
     378A      4.623062   379A      4.637549   380A      4.642366  
     381A      4.658365   382A      4.677964   383A      4.683391  
     384A      4.695453   385A      4.705807   386A      4.718065  
     387A      4.725287   388A      4.743376   389A      4.748378  
     390A      4.756719   391A      4.775559   392A      4.787101  
     393A      4.794695   394A      4.798421   395A      4.806134  
     396A      4.827810   397A      4.832783   398A      4.842748  
     399A      4.858176   400A      4.877805   401A      4.885465  
     402A      4.895546   403A      4.900796   404A      4.915002  
     405A      4.927547   406A      4.941938   407A      4.961209  
     408A      4.963807   409A      4.978885   410A      4.993429  
     411A      5.004589   412A      5.021464   413A      5.024702  
     414A      5.034063   415A      5.043814   416A      5.055398  
     417A      5.062146   418A      5.076284   419A      5.099933  
     420A      5.104825   421A      5.151827   422A      5.154768  
     423A      5.163018   424A      5.179305   425A      5.191643  
     426A      5.206991   427A      5.225553   428A      5.229497  
     429A      5.259305   430A      5.266571   431A      5.298746  
     432A      5.304120   433A      5.313840   434A      5.321296  
     435A      5.345881   436A      5.367431   437A      5.400976  
     438A      5.420765   439A      5.454134   440A      5.483924  
     441A      5.489009   442A      5.509303   443A      5.521108  
     444A      5.558095   445A      5.588940   446A      5.596171  
     447A      5.615318   448A      5.619005   449A      5.661095  
     450A      5.677933   451A      5.728285   452A      5.753360  
     453A      5.773101   454A      5.787590   455A      5.814343  
     456A      5.831948   457A      5.834444   458A      5.859803  
     459A      5.899764   460A      5.905891   461A      5.924233  
     462A      5.957986   463A      5.962940   464A      5.983088  
     465A      6.029302   466A      6.088478   467A      6.095979  
     468A      6.127313   469A      6.158055   470A      6.208102  
     471A      6.235409   472A      6.303681   473A      6.322655  
     474A      6.358042   475A      6.372427   476A      6.405022  
     477A      6.452419   478A      6.464273   479A      6.474376  
     480A      6.483375   481A      6.545053   482A      6.555764  
     483A      6.596966   484A      6.647956   485A      6.696919  
     486A      6.863967   487A      6.947795   488A      6.955631  
     489A      7.000974   490A      7.079046   491A      7.113010  
     492A      7.234877   493A      7.288996   494A      7.348791  
     495A      7.367897   496A      7.405931   497A      7.462867  
     498A      7.498135   499A      7.542491   500A      7.568504  
     501A      7.626470   502A      7.682222   503A      7.694505  
     504A      7.717767   505A      7.760325   506A      7.811021  
     507A      7.875600   508A      7.903305   509A      7.937070  
     510A      7.967588   511A      8.065446   512A      8.163156  
     513A      8.217858   514A      8.343774   515A      8.488793  
     516A      8.608775   517A      9.555233   518A      9.619961  
     519A      9.778205   520A      9.856605   521A      9.927773  
     522A     10.041941   523A     10.142656   524A     10.314706  
     525A     11.306173   526A     11.679543   527A     12.737002  
     528A     13.523663   529A     13.748911   530A     13.970559  
     531A     14.168001   532A     14.653581   533A     43.986773  
     534A     45.158804   535A     45.730866   536A     61.426953  

    Final Occupation by Irrep:
              A 
    DOCC [    17 ]

  @DF-RHF Final Energy:  -193.19134387860277

   => Energetics <=

    Nuclear Repulsion Energy =            132.9103382356822465
    One-Electron Energy =                -525.5088290722924285
    Two-Electron Energy =                 199.4071469580073881
    Total Energy =                       -193.1913438786027655

Computation Completed


Properties will be evaluated at   0.000000,   0.000000,   0.000000 [a0]

Properties computed using the SCF density matrix

  Nuclear Dipole Moment: [e a0]
     X:  -122.9309      Y:     5.3970      Z:     9.1300

  Electronic Dipole Moment: [e a0]
     X:   122.8263      Y:    -5.5481      Z:    -9.8157

  Dipole Moment: [e a0]
     X:    -0.1046      Y:    -0.1511      Z:    -0.6857     Total:     0.7099

  Dipole Moment: [D]
     X:    -0.2658      Y:    -0.3840      Z:    -1.7429     Total:     1.8044


*** tstop() called on r282 at Thu Sep  9 10:01:58 2021
Module time:
	user time   =      47.70 seconds =       0.80 minutes
	system time =       0.79 seconds =       0.01 minutes
	total time  =         49 seconds =       0.82 minutes
Total time:
	user time   =     157.60 seconds =       2.63 minutes
	system time =       3.26 seconds =       0.05 minutes
	total time  =        161 seconds =       2.68 minutes
  Constructing Basis Sets for SAPT...

   => Loading Basis Set <=

    Name: (JUN-CC-PVTZ AUX)
    Role: RIFIT
    Keyword: DF_BASIS_SAPT
    atoms 1-2, 9, 13-14, 21                    entry C          line   132 file /home/r08543048/miniconda3/share/psi4/basis/jun-cc-pvtz-ri.gbs 
    atoms 3-4, 6-8, 10-12, 15-16, 18-20, 22-24 entry H          line    30 file /home/r08543048/miniconda3/share/psi4/basis/jun-cc-pvtz-ri.gbs 
    atoms 5, 17                                entry O          line   244 file /home/r08543048/miniconda3/share/psi4/basis/jun-cc-pvtz-ri.gbs 


  //>>>>>>>>>>>>>>>>>>>>>>>>>>>>>>>>>>>//
  //               SAPT0               //
  //<<<<<<<<<<<<<<<<<<<<<<<<<<<<<<<<<<<//


*** tstart() called on r282
*** at Thu Sep  9 10:01:58 2021

        SAPT0  
    Ed Hohenstein
     6 June 2009

      Orbital Information
  --------------------------
    NSO        =       536
    NMO        =       536
    NRI        =      1256
    NOCC A     =        17
    NOCC B     =        17
    FOCC A     =         4
    FOCC B     =         4
    NVIR A     =       519
    NVIR B     =       519

    Elst10,r            =    -0.015559798658 [Eh]
    Exch10              =     0.016643045661 [Eh]
    Exch10 (S^2)        =     0.016524057103 [Eh]

    Iter     Energy [mEh]          dE [mEh]         Residual      Time [s]
       1      -3.14684995       3.146849954      11.171701820             1
       2      -3.90871725       0.761867298       5.228051096             3
       3      -4.03143085       0.122713597       1.313207316             4
       4      -4.01754479      -0.013886056       0.380228963             5
       5      -4.01111100      -0.006433793       0.081469614             6
       6      -4.01194170       0.000830703       0.029166835             8
       7      -4.01231731       0.000375610       0.006943797             9
       8      -4.01223430      -0.000083017       0.001723325            10
       9      -4.01222794      -0.000006355       0.000409085            11
      10      -4.01223237       0.000004425       0.000108347            13
      11      -4.01223248       0.000000112       0.000028483            14
      12      -4.01223224      -0.000000234       0.000008251            15
      13      -4.01223224      -0.000000004       0.000002307            16
      14      -4.01223226       0.000000017       0.000000593            18

    CHF Iterations converged


    Iter     Energy [mEh]          dE [mEh]         Residual      Time [s]
       1      -2.67236592       2.672365916       7.324872858             1
       2      -3.01117535       0.338809433       2.340745372             2
       3      -3.06462212       0.053446771       0.644208698             3
       4      -3.06030336      -0.004318757       0.266127135             5
       5      -3.05505901      -0.005244351       0.066350230             6
       6      -3.05567005       0.000611038       0.022073212             7
       7      -3.05601440       0.000344352       0.005464535             8
       8      -3.05594964      -0.000064766       0.001693023            10
       9      -3.05593952      -0.000010113       0.000461959            11
      10      -3.05594417       0.000004650       0.000148022            12
      11      -3.05594501       0.000000833       0.000039467            14
      12      -3.05594454      -0.000000464       0.000008558            15
      13      -3.05594457       0.000000027       0.000002311            16
      14      -3.05594458       0.000000014       0.000000616            18

    CHF Iterations converged

    Ind20,r (A<-B)      =    -0.004012232256 [Eh]
    Ind20,r (B<-A)      =    -0.003055944584 [Eh]
    Ind20,r             =    -0.007068176840 [Eh]
    Exch-Ind20,r (A<-B) =     0.001948758785 [Eh]
    Exch-Ind20,r (B<-A) =     0.002236527248 [Eh]
    Exch-Ind20,r        =     0.004185286033 [Eh]
    Disp20              =    -0.010349807402 [Eh]
    Disp20 (SS)         =    -0.005174903701 [Eh]
    Disp20 (OS)         =    -0.005174903701 [Eh]
    Exch-Disp20         =     0.001358702402 [Eh]
    Exch-Disp20 (SS)    =     0.000857922099 [Eh]
    Exch-Disp20 (OS)    =     0.000500780303 [Eh]

    SAPT Results 
  --------------------------------------------------------------------------------------------------------
    Electrostatics                -15.55979866 [mEh]      -9.76392107 [kcal/mol]     -40.85224575 [kJ/mol]
      Elst10,r                    -15.55979866 [mEh]      -9.76392107 [kcal/mol]     -40.85224575 [kJ/mol]

    Exchange                       16.64304566 [mEh]      10.44366882 [kcal/mol]      43.69631036 [kJ/mol]
      Exch10                       16.64304566 [mEh]      10.44366882 [kcal/mol]      43.69631036 [kJ/mol]
      Exch10(S^2)                  16.52405710 [mEh]      10.36900238 [kcal/mol]      43.38390595 [kJ/mol]

    Induction                      -5.03205445 [mEh]      -3.15766184 [kcal/mol]     -13.21165714 [kJ/mol]
      Ind20,r                      -7.06817684 [mEh]      -4.43534793 [kcal/mol]     -18.55749574 [kJ/mol]
      Exch-Ind20,r                  4.18528603 [mEh]       2.62630664 [kcal/mol]      10.98846697 [kJ/mol]
      delta HF,r (2)               -2.14916364 [mEh]      -1.34862055 [kcal/mol]      -5.64262837 [kJ/mol]

    Dispersion                     -8.99110500 [mEh]      -5.64200357 [kcal/mol]     -23.60614292 [kJ/mol]
      Disp20                      -10.34980740 [mEh]      -6.49460220 [kcal/mol]     -27.17341559 [kJ/mol]
      Exch-Disp20                   1.35870240 [mEh]       0.85259863 [kcal/mol]       3.56727266 [kJ/mol]
      Disp20 (SS)                  -5.17490370 [mEh]      -3.24730110 [kcal/mol]     -13.58670779 [kJ/mol]
      Disp20 (OS)                  -5.17490370 [mEh]      -3.24730110 [kcal/mol]     -13.58670779 [kJ/mol]
      Exch-Disp20 (SS)              0.85792210 [mEh]       0.53835424 [kcal/mol]       2.25247416 [kJ/mol]
      Exch-Disp20 (OS)              0.50078030 [mEh]       0.31424438 [kcal/mol]       1.31479851 [kJ/mol]

  Total HF                         -3.94880745 [mEh]      -2.47791408 [kcal/mol]     -10.36759253 [kJ/mol]
  Total SAPT0                     -12.93991245 [mEh]      -8.11991765 [kcal/mol]     -33.97373546 [kJ/mol]

  Special recipe for scaled SAPT0 (see Manual):
    Electrostatics sSAPT0         -15.55979866 [mEh]      -9.76392107 [kcal/mol]     -40.85224575 [kJ/mol]
    Exchange sSAPT0                16.64304566 [mEh]      10.44366882 [kcal/mol]      43.69631036 [kJ/mol]
    Induction sSAPT0               -4.94098799 [mEh]      -3.10051677 [kcal/mol]     -12.97256217 [kJ/mol]
    Dispersion sSAPT0              -8.96154138 [mEh]      -5.62345211 [kcal/mol]     -23.52852364 [kJ/mol]
  Total sSAPT0                    -12.81928236 [mEh]      -8.04422113 [kcal/mol]     -33.65702120 [kJ/mol]
  --------------------------------------------------------------------------------------------------------

*** tstop() called on r282 at Thu Sep  9 10:04:21 2021
Module time:
	user time   =     120.27 seconds =       2.00 minutes
	system time =      21.21 seconds =       0.35 minutes
	total time  =        143 seconds =       2.38 minutes
Total time:
	user time   =     278.03 seconds =       4.63 minutes
	system time =      24.47 seconds =       0.41 minutes
	total time  =        304 seconds =       5.07 minutes

    Psi4 stopped on: Thursday, 09 September 2021 10:04AM
    Psi4 wall time for execution: 0:05:04.76

*** Psi4 exiting successfully. Buy a developer a beer!
