
    -----------------------------------------------------------------------
          Psi4: An Open-Source Ab Initio Electronic Structure Package
                               Psi4 1.3.2 release

                         Git: Rev {HEAD} ecbda83 


    R. M. Parrish, L. A. Burns, D. G. A. Smith, A. C. Simmonett,
    A. E. DePrince III, E. G. Hohenstein, U. Bozkaya, A. Yu. Sokolov,
    R. Di Remigio, R. M. Richard, J. F. Gonthier, A. M. James,
    H. R. McAlexander, A. Kumar, M. Saitow, X. Wang, B. P. Pritchard,
    P. Verma, H. F. Schaefer III, K. Patkowski, R. A. King, E. F. Valeev,
    F. A. Evangelista, J. M. Turney, T. D. Crawford, and C. D. Sherrill,
    J. Chem. Theory Comput. 13(7) pp 3185--3197 (2017).
    (doi: 10.1021/acs.jctc.7b00174)


                         Additional Contributions by
    P. Kraus, H. Kruse, M. H. Lechner, M. C. Schieber, R. A. Shaw,
    A. Alenaizan, R. Galvelis, Z. L. Glick, S. Lehtola, and J. P. Misiewicz

    -----------------------------------------------------------------------


    Psi4 started on: Friday, 10 September 2021 12:05PM

    Process ID: 56587
    Host:       r282
    PSIDATADIR: /home/r08543048/miniconda3/share/psi4
    Memory:     500.0 MiB
    Threads:    1
    
  ==> Input File <==

--------------------------------------------------------------------------
# Any line starting with the # character is a comment line
#! Sample  computation

memory 22 gb

molecule Dimer {
0 1
 C -2.278410   -0.539836   -0.653203
 C -1.931968   -1.276555    0.633806
 H -1.428933   -0.609795   -1.341059
 H -3.103457   -1.083827   -1.123386
 O -0.741018   -0.818726    1.261832
 H -2.730798   -1.133028    1.363956
 H -1.863903   -2.350465    0.428083
 H -0.004440   -1.026838    0.663880
 C -2.687158    0.921420   -0.471610
 H -3.159278    1.268561   -1.393905
 H -3.455289    0.976792    0.305237
 C -1.537338    1.861296   -0.121250
 H -0.769959    1.826796   -0.897662
 H -1.886405    2.891801   -0.047911
 H -1.072988    1.578322    0.820184
    
    
    
 --
0 1
 C  3.043233    0.429577   -0.137891
 C  2.089751   -0.242892   -1.107808
 H  3.809535   -0.291632    0.162843
 H  3.564260    1.223217   -0.679412
 O  1.416416   -1.371351   -0.532141
 H  1.292505    0.443428   -1.392748
 H  2.613384   -0.551886   -2.015737
 H  2.085078   -2.010460   -0.261196
 C  2.340764    1.000466    1.087303
 H  1.817253    0.225171    1.644101
 H  3.054228    1.476602    1.758471
 H  1.602786    1.746994    0.792654







units angstrom

no_reorient
symmetry c1
}

set globals{
  basis jun-cc-pvtz
}

energy('sapt0')


--------------------------------------------------------------------------

  Memory set to  20.489 GiB by Python driver.

  //>>>>>>>>>>>>>>>>>>>>>>>>>>>>>>>>>>>//
  //              Dimer HF             //
  //<<<<<<<<<<<<<<<<<<<<<<<<<<<<<<<<<<<//


*** tstart() called on r282
*** at Fri Sep 10 12:05:07 2021

   => Loading Basis Set <=

    Name: JUN-CC-PVTZ
    Role: ORBITAL
    Keyword: BASIS
    atoms 1-2, 9, 12, 16-17, 24                       entry C          line   217 file /home/r08543048/miniconda3/share/psi4/basis/jun-cc-pvtz.gbs 
    atoms 3-4, 6-8, 10-11, 13-15, 18-19, 21-23, 25-27 entry H          line    36 file /home/r08543048/miniconda3/share/psi4/basis/jun-cc-pvtz.gbs 
    atoms 5, 20                                       entry O          line   305 file /home/r08543048/miniconda3/share/psi4/basis/jun-cc-pvtz.gbs 


         ---------------------------------------------------------
                                   SCF
               by Justin Turney, Rob Parrish, Andy Simmonett
                          and Daniel G. A. Smith
                              RHF Reference
                        1 Threads,  20980 MiB Core
         ---------------------------------------------------------

  ==> Geometry <==

    Molecular point group: c1
    Full point group: C1

    Geometry (in Angstrom), charge = 0, multiplicity = 1:

       Center              X                  Y                   Z               Mass       
    ------------   -----------------  -----------------  -----------------  -----------------
         C           -2.275695075727    -0.505894202225    -0.662152523937    12.000000000000
         C           -1.929253075727    -1.242613202225     0.624856476063    12.000000000000
         H           -1.426218075727    -0.575853202225    -1.350008523937     1.007825032230
         H           -3.100742075727    -1.049885202225    -1.132335523937     1.007825032230
         O           -0.738303075727    -0.784784202225     1.252882476063    15.994914619570
         H           -2.728083075727    -1.099086202225     1.355006476063     1.007825032230
         H           -1.861188075727    -2.316523202225     0.419133476063     1.007825032230
         H           -0.001725075727    -0.992896202225     0.654930476063     1.007825032230
         C           -2.684443075727     0.955361797775    -0.480559523937    12.000000000000
         H           -3.156563075727     1.302502797775    -1.402854523937     1.007825032230
         H           -3.452574075727     1.010733797775     0.296287476063     1.007825032230
         C           -1.534623075727     1.895237797775    -0.130199523937    12.000000000000
         H           -0.767244075727     1.860737797775    -0.906611523937     1.007825032230
         H           -1.883690075727     2.925742797775    -0.056860523937     1.007825032230
         H           -1.070273075727     1.612263797775     0.811234476063     1.007825032230
         C            3.045947924273     0.463518797775    -0.146840523937    12.000000000000
         C            2.092465924273    -0.208950202225    -1.116757523937    12.000000000000
         H            3.812249924273    -0.257690202225     0.153893476063     1.007825032230
         H            3.566974924273     1.257158797775    -0.688361523937     1.007825032230
         O            1.419130924273    -1.337409202225    -0.541090523937    15.994914619570
         H            1.295219924273     0.477369797775    -1.401697523937     1.007825032230
         H            2.616098924273    -0.517944202225    -2.024686523937     1.007825032230
         H            2.087792924273    -1.976518202225    -0.270145523937     1.007825032230
         C            2.343478924273     1.034407797775     1.078353476063    12.000000000000
         H            1.819967924273     0.259112797775     1.635151476063     1.007825032230
         H            3.056942924273     1.510543797775     1.749521476063     1.007825032230
         H            1.605500924273     1.780935797775     0.783704476063     1.007825032230

  Running in c1 symmetry.

  Rotational constants: A =      0.06426  B =      0.02435  C =      0.02199 [cm^-1]
  Rotational constants: A =   1926.37576  B =    730.01649  C =    659.34316 [MHz]
  Nuclear repulsion =  498.231881886658357

  Charge       = 0
  Multiplicity = 1
  Electrons    = 76
  Nalpha       = 38
  Nbeta        = 38

  ==> Algorithm <==

  SCF Algorithm Type is DF.
  DIIS enabled.
  MOM disabled.
  Fractional occupation disabled.
  Guess Type is SAD.
  Energy threshold   = 1.00e-08
  Density threshold  = 1.00e-08
  Integral threshold = 0.00e+00

  ==> Primary Basis <==

  Basis Set: JUN-CC-PVTZ
    Blend: JUN-CC-PVTZ
    Number of shells: 225
    Number of basis function: 603
    Number of Cartesian functions: 675
    Spherical Harmonics?: true
    Max angular momentum: 3

   => Loading Basis Set <=

    Name: (JUN-CC-PVTZ AUX)
    Role: JKFIT
    Keyword: DF_BASIS_SCF
    atoms 1-2, 9, 12, 16-17, 24                       entry C          line   152 file /home/r08543048/miniconda3/share/psi4/basis/jun-cc-pvtz-jkfit.gbs 
    atoms 3-4, 6-8, 10-11, 13-15, 18-19, 21-23, 25-27 entry H          line    70 file /home/r08543048/miniconda3/share/psi4/basis/jun-cc-pvtz-jkfit.gbs 
    atoms 5, 20                                       entry O          line   272 file /home/r08543048/miniconda3/share/psi4/basis/jun-cc-pvtz-jkfit.gbs 

  ==> Pre-Iterations <==

   -------------------------------------------------------
    Irrep   Nso     Nmo     Nalpha   Nbeta   Ndocc  Nsocc
   -------------------------------------------------------
     A        603     603       0       0       0       0
   -------------------------------------------------------
    Total     603     603      38      38      38       0
   -------------------------------------------------------

  ==> Integral Setup <==

  ==> DiskDFJK: Density-Fitted J/K Matrices <==

    J tasked:                  Yes
    K tasked:                  Yes
    wK tasked:                  No
    OpenMP threads:              1
    Integrals threads:           1
    Memory [MiB]:            15735
    Algorithm:                Core
    Integral Cache:           SAVE
    Schwarz Cutoff:          1E-12
    Fitting Condition:       1E-10

   => Auxiliary Basis Set <=

  Basis Set: (JUN-CC-PVTZ AUX)
    Blend: JUN-CC-PVTZ-JKFIT
    Number of shells: 441
    Number of basis function: 1395
    Number of Cartesian functions: 1674
    Spherical Harmonics?: true
    Max angular momentum: 4

  Minimum eigenvalue in the overlap matrix is 4.1696521299E-05.
  Using Symmetric Orthogonalization.

  SCF Guess: Superposition of Atomic Densities via on-the-fly atomic UHF.

  ==> Iterations <==

                           Total Energy        Delta E     RMS |[F,P]|

   @DF-RHF iter SAD:  -424.23314805139808   -4.24233e+02   0.00000e+00 
   @DF-RHF iter   1:  -425.03502544518716   -8.01877e-01   1.38663e-03 DIIS
   @DF-RHF iter   2:  -425.34674189054255   -3.11716e-01   7.15074e-04 DIIS
   @DF-RHF iter   3:  -425.42651025520922   -7.97684e-02   1.26314e-04 DIIS
   @DF-RHF iter   4:  -425.43134694483871   -4.83669e-03   3.93468e-05 DIIS
   @DF-RHF iter   5:  -425.43168493831581   -3.37993e-04   1.08112e-05 DIIS
   @DF-RHF iter   6:  -425.43171470883976   -2.97705e-05   2.46953e-06 DIIS
   @DF-RHF iter   7:  -425.43171693752868   -2.22869e-06   5.93265e-07 DIIS
   @DF-RHF iter   8:  -425.43171707121240   -1.33684e-07   1.91752e-07 DIIS
   @DF-RHF iter   9:  -425.43171708569434   -1.44819e-08   5.67776e-08 DIIS
   @DF-RHF iter  10:  -425.43171708702772   -1.33338e-09   1.58678e-08 DIIS
   @DF-RHF iter  11:  -425.43171708712390   -9.61791e-11   4.99290e-09 DIIS
  Energy and wave function converged.


  ==> Post-Iterations <==

    Orbital Energies [Eh]
    ---------------------

    Doubly Occupied:                                                      

       1A    -20.577009     2A    -20.523427     3A    -11.284350  
       4A    -11.253607     5A    -11.229611     6A    -11.210075  
       7A    -11.207434     8A    -11.205952     9A    -11.195320  
      10A     -1.377410    11A     -1.328734    12A     -1.059263  
      13A     -1.056109    14A     -0.959931    15A     -0.929283  
      16A     -0.852248    17A     -0.821763    18A     -0.778029  
      19A     -0.696866    20A     -0.661370    21A     -0.647402  
      22A     -0.639084    23A     -0.623582    24A     -0.610184  
      25A     -0.577319    26A     -0.564914    27A     -0.546333  
      28A     -0.541372    29A     -0.531578    30A     -0.522078  
      31A     -0.494092    32A     -0.489878    33A     -0.483735  
      34A     -0.476265    35A     -0.461433    36A     -0.454564  
      37A     -0.443448    38A     -0.405056  

    Virtual:                                                              

      39A      0.048354    40A      0.055214    41A      0.056645  
      42A      0.059669    43A      0.068015    44A      0.072610  
      45A      0.074817    46A      0.083612    47A      0.091245  
      48A      0.098475    49A      0.106846    50A      0.111013  
      51A      0.113317    52A      0.115169    53A      0.128478  
      54A      0.135376    55A      0.140009    56A      0.144826  
      57A      0.150015    58A      0.155770    59A      0.158634  
      60A      0.173190    61A      0.178279    62A      0.190107  
      63A      0.195400    64A      0.202723    65A      0.210497  
      66A      0.214680    67A      0.226185    68A      0.228992  
      69A      0.236888    70A      0.242632    71A      0.259103  
      72A      0.260266    73A      0.268017    74A      0.274056  
      75A      0.279931    76A      0.284863    77A      0.291748  
      78A      0.295332    79A      0.302620    80A      0.304980  
      81A      0.308506    82A      0.316869    83A      0.322677  
      84A      0.328916    85A      0.335005    86A      0.340482  
      87A      0.341516    88A      0.347120    89A      0.355084  
      90A      0.358727    91A      0.361703    92A      0.365277  
      93A      0.369187    94A      0.371427    95A      0.380505  
      96A      0.383272    97A      0.395472    98A      0.396625  
      99A      0.405768   100A      0.407456   101A      0.414711  
     102A      0.420701   103A      0.424517   104A      0.426262  
     105A      0.440297   106A      0.448551   107A      0.455750  
     108A      0.464020   109A      0.471682   110A      0.478293  
     111A      0.479175   112A      0.490396   113A      0.503224  
     114A      0.512373   115A      0.516626   116A      0.519017  
     117A      0.527360   118A      0.540421   119A      0.545041  
     120A      0.546667   121A      0.551751   122A      0.557093  
     123A      0.559256   124A      0.566859   125A      0.572537  
     126A      0.574356   127A      0.583273   128A      0.591872  
     129A      0.599967   130A      0.604420   131A      0.615303  
     132A      0.620841   133A      0.635386   134A      0.643367  
     135A      0.649316   136A      0.667505   137A      0.674383  
     138A      0.682281   139A      0.689223   140A      0.701903  
     141A      0.706904   142A      0.719411   143A      0.720656  
     144A      0.727376   145A      0.733879   146A      0.739857  
     147A      0.752791   148A      0.759772   149A      0.771274  
     150A      0.774259   151A      0.779522   152A      0.787062  
     153A      0.794514   154A      0.804512   155A      0.806891  
     156A      0.814678   157A      0.816524   158A      0.821479  
     159A      0.831320   160A      0.849196   161A      0.853133  
     162A      0.862895   163A      0.863974   164A      0.872213  
     165A      0.876036   166A      0.881319   167A      0.885800  
     168A      0.899279   169A      0.907931   170A      0.910006  
     171A      0.924922   172A      0.930558   173A      0.938986  
     174A      0.943624   175A      0.951541   176A      0.965954  
     177A      0.974405   178A      0.982658   179A      0.990516  
     180A      1.001794   181A      1.016968   182A      1.023772  
     183A      1.029118   184A      1.038131   185A      1.050496  
     186A      1.072555   187A      1.094424   188A      1.106979  
     189A      1.112822   190A      1.134247   191A      1.139001  
     192A      1.147941   193A      1.153435   194A      1.173849  
     195A      1.183951   196A      1.195612   197A      1.209997  
     198A      1.227334   199A      1.233847   200A      1.244639  
     201A      1.262826   202A      1.267595   203A      1.282291  
     204A      1.285724   205A      1.299716   206A      1.303614  
     207A      1.321627   208A      1.332485   209A      1.340800  
     210A      1.349019   211A      1.355160   212A      1.371012  
     213A      1.380449   214A      1.391604   215A      1.393544  
     216A      1.405700   217A      1.412255   218A      1.422498  
     219A      1.424926   220A      1.433975   221A      1.440880  
     222A      1.460023   223A      1.462837   224A      1.469682  
     225A      1.475930   226A      1.480434   227A      1.493257  
     228A      1.495000   229A      1.517022   230A      1.519756  
     231A      1.523383   232A      1.536590   233A      1.543846  
     234A      1.546973   235A      1.555976   236A      1.566944  
     237A      1.572479   238A      1.577522   239A      1.596917  
     240A      1.601660   241A      1.605035   242A      1.614795  
     243A      1.628318   244A      1.636856   245A      1.647847  
     246A      1.654634   247A      1.664133   248A      1.670002  
     249A      1.679662   250A      1.686223   251A      1.696183  
     252A      1.707179   253A      1.711774   254A      1.719184  
     255A      1.722575   256A      1.729454   257A      1.736857  
     258A      1.744948   259A      1.758044   260A      1.766334  
     261A      1.785466   262A      1.798117   263A      1.818625  
     264A      1.821656   265A      1.831454   266A      1.844367  
     267A      1.856285   268A      1.869270   269A      1.882243  
     270A      1.891632   271A      1.910537   272A      1.917201  
     273A      1.918472   274A      1.927825   275A      1.955784  
     276A      1.971415   277A      1.976381   278A      1.991707  
     279A      2.004185   280A      2.017816   281A      2.049367  
     282A      2.063882   283A      2.106859   284A      2.122459  
     285A      2.195118   286A      2.257898   287A      2.334703  
     288A      2.391232   289A      2.421475   290A      2.428511  
     291A      2.460396   292A      2.493765   293A      2.513804  
     294A      2.582535   295A      2.602801   296A      2.652870  
     297A      2.668475   298A      2.784503   299A      2.799912  
     300A      2.812272   301A      2.815602   302A      2.829784  
     303A      2.832389   304A      2.844651   305A      2.863841  
     306A      2.878638   307A      2.889351   308A      2.910809  
     309A      2.925245   310A      2.928873   311A      2.948870  
     312A      2.958434   313A      2.970855   314A      2.981602  
     315A      3.000758   316A      3.004955   317A      3.019155  
     318A      3.040442   319A      3.061488   320A      3.075475  
     321A      3.078850   322A      3.094573   323A      3.104978  
     324A      3.109340   325A      3.117275   326A      3.123111  
     327A      3.131845   328A      3.149090   329A      3.175720  
     330A      3.180621   331A      3.201694   332A      3.211066  
     333A      3.215582   334A      3.228804   335A      3.253281  
     336A      3.272547   337A      3.286451   338A      3.289288  
     339A      3.297743   340A      3.305768   341A      3.316704  
     342A      3.337446   343A      3.351618   344A      3.362948  
     345A      3.372668   346A      3.379829   347A      3.389234  
     348A      3.409705   349A      3.413029   350A      3.421488  
     351A      3.433573   352A      3.440972   353A      3.446846  
     354A      3.452984   355A      3.460570   356A      3.462266  
     357A      3.470010   358A      3.472403   359A      3.487295  
     360A      3.489622   361A      3.497840   362A      3.509947  
     363A      3.513859   364A      3.518442   365A      3.524399  
     366A      3.530585   367A      3.540462   368A      3.549128  
     369A      3.556500   370A      3.559740   371A      3.569485  
     372A      3.571776   373A      3.583957   374A      3.593899  
     375A      3.613692   376A      3.622622   377A      3.626365  
     378A      3.632938   379A      3.636050   380A      3.663751  
     381A      3.683347   382A      3.685225   383A      3.694561  
     384A      3.708248   385A      3.724928   386A      3.741224  
     387A      3.759364   388A      3.759996   389A      3.777026  
     390A      3.789737   391A      3.798926   392A      3.806816  
     393A      3.810964   394A      3.816819   395A      3.824080  
     396A      3.832697   397A      3.853583   398A      3.864222  
     399A      3.865212   400A      3.887821   401A      3.897982  
     402A      3.918385   403A      3.922807   404A      3.937508  
     405A      3.944798   406A      3.950854   407A      3.966795  
     408A      3.969833   409A      3.977211   410A      3.989433  
     411A      4.000016   412A      4.008113   413A      4.021362  
     414A      4.037643   415A      4.053619   416A      4.084989  
     417A      4.107166   418A      4.109194   419A      4.126625  
     420A      4.132881   421A      4.149145   422A      4.155004  
     423A      4.172151   424A      4.186817   425A      4.197248  
     426A      4.219574   427A      4.231901   428A      4.241090  
     429A      4.249563   430A      4.267514   431A      4.269033  
     432A      4.278985   433A      4.287085   434A      4.291342  
     435A      4.308859   436A      4.327817   437A      4.329697  
     438A      4.341513   439A      4.353685   440A      4.360902  
     441A      4.372759   442A      4.385283   443A      4.388461  
     444A      4.394374   445A      4.401732   446A      4.411867  
     447A      4.422050   448A      4.423578   449A      4.440675  
     450A      4.443219   451A      4.455077   452A      4.468116  
     453A      4.474786   454A      4.478051   455A      4.487834  
     456A      4.491591   457A      4.503393   458A      4.509147  
     459A      4.533098   460A      4.544488   461A      4.546815  
     462A      4.551273   463A      4.569305   464A      4.577127  
     465A      4.583492   466A      4.591512   467A      4.599479  
     468A      4.607628   469A      4.613356   470A      4.639361  
     471A      4.650137   472A      4.654186   473A      4.665103  
     474A      4.678063   475A      4.680415   476A      4.693004  
     477A      4.708632   478A      4.728041   479A      4.739820  
     480A      4.758638   481A      4.759918   482A      4.783780  
     483A      4.794387   484A      4.807262   485A      4.825401  
     486A      4.843311   487A      4.854659   488A      4.859017  
     489A      4.865997   490A      4.878355   491A      4.897739  
     492A      4.914693   493A      4.933315   494A      4.941358  
     495A      4.981623   496A      4.990375   497A      5.030120  
     498A      5.053961   499A      5.057379   500A      5.078114  
     501A      5.093693   502A      5.109760   503A      5.133323  
     504A      5.147789   505A      5.160453   506A      5.180522  
     507A      5.207503   508A      5.211291   509A      5.217730  
     510A      5.239971   511A      5.261302   512A      5.269874  
     513A      5.284300   514A      5.298086   515A      5.309822  
     516A      5.322389   517A      5.331169   518A      5.341427  
     519A      5.355431   520A      5.379929   521A      5.384588  
     522A      5.403543   523A      5.413795   524A      5.446456  
     525A      5.454045   526A      5.476284   527A      5.492121  
     528A      5.508584   529A      5.518122   530A      5.524203  
     531A      5.573915   532A      5.579564   533A      5.593845  
     534A      5.605753   535A      5.629470   536A      5.659684  
     537A      5.665115   538A      5.691622   539A      5.754071  
     540A      5.773650   541A      5.776492   542A      5.791580  
     543A      5.798511   544A      5.811315   545A      5.825935  
     546A      5.839279   547A      5.847775   548A      5.857289  
     549A      5.876561   550A      5.883013   551A      5.890306  
     552A      5.923201   553A      5.936370   554A      5.954062  
     555A      5.967741   556A      5.987582   557A      5.996651  
     558A      6.029438   559A      6.084781   560A      6.103538  
     561A      6.132748   562A      6.170691   563A      6.226580  
     564A      6.280695   565A      6.353343   566A      6.408646  
     567A      6.478035   568A      6.495710   569A      6.527017  
     570A      6.544701   571A      6.549682   572A      6.558681  
     573A      6.580959   574A      6.598284   575A      6.604897  
     576A      6.651068   577A      6.917943   578A      7.005597  
     579A      7.049989   580A      7.093029   581A      7.220824  
     582A      7.261507   583A      7.306697   584A      7.373859  
     585A      7.403931   586A      7.452661   587A      7.540014  
     588A      7.585396   589A      7.631154   590A      7.752447  
     591A      7.862990   592A      7.947597   593A      8.202850  
     594A      8.274638   595A     13.624474   596A     13.650565  
     597A     13.828989   598A     13.871115   599A     14.059153  
     600A     14.180800   601A     14.276527   602A     14.706114  
     603A     14.800813  

    Final Occupation by Irrep:
              A 
    DOCC [    38 ]

  @DF-RHF Final Energy:  -425.43171708712390

   => Energetics <=

    Nuclear Repulsion Energy =            498.2318818866583570
    One-Electron Energy =               -1567.8869794962013202
    Two-Electron Energy =                 644.2233805224191201
    Total Energy =                       -425.4317170871238432

Computation Completed


Properties will be evaluated at   0.000000,   0.000000,   0.000000 [a0]

Properties computed using the SCF density matrix

  Nuclear Dipole Moment: [e a0]
     X:     0.3899      Y:     4.8747      Z:    -1.2853

  Electronic Dipole Moment: [e a0]
     X:     0.5193      Y:    -5.0509      Z:     0.5653

  Dipole Moment: [e a0]
     X:     0.9092      Y:    -0.1763      Z:    -0.7200     Total:     1.1731

  Dipole Moment: [D]
     X:     2.3110      Y:    -0.4480      Z:    -1.8302     Total:     2.9818


*** tstop() called on r282 at Fri Sep 10 12:07:21 2021
Module time:
	user time   =     130.98 seconds =       2.18 minutes
	system time =       2.32 seconds =       0.04 minutes
	total time  =        134 seconds =       2.23 minutes
Total time:
	user time   =     130.98 seconds =       2.18 minutes
	system time =       2.32 seconds =       0.04 minutes
	total time  =        134 seconds =       2.23 minutes

  //>>>>>>>>>>>>>>>>>>>>>>>>>>>>>>>>>>>//
  //            Monomer A HF           //
  //<<<<<<<<<<<<<<<<<<<<<<<<<<<<<<<<<<<//


*** tstart() called on r282
*** at Fri Sep 10 12:07:21 2021

   => Loading Basis Set <=

    Name: JUN-CC-PVTZ
    Role: ORBITAL
    Keyword: BASIS
    atoms 1-2, 9, 12, 16-17, 24                       entry C          line   217 file /home/r08543048/miniconda3/share/psi4/basis/jun-cc-pvtz.gbs 
    atoms 3-4, 6-8, 10-11, 13-15, 18-19, 21-23, 25-27 entry H          line    36 file /home/r08543048/miniconda3/share/psi4/basis/jun-cc-pvtz.gbs 
    atoms 5, 20                                       entry O          line   305 file /home/r08543048/miniconda3/share/psi4/basis/jun-cc-pvtz.gbs 


         ---------------------------------------------------------
                                   SCF
               by Justin Turney, Rob Parrish, Andy Simmonett
                          and Daniel G. A. Smith
                              RHF Reference
                        1 Threads,  20980 MiB Core
         ---------------------------------------------------------

  ==> Geometry <==

    Molecular point group: c1
    Full point group: C1

    Geometry (in Angstrom), charge = 0, multiplicity = 1:

       Center              X                  Y                   Z               Mass       
    ------------   -----------------  -----------------  -----------------  -----------------
         C           -2.275695075727    -0.505894202225    -0.662152523937    12.000000000000
         C           -1.929253075727    -1.242613202225     0.624856476063    12.000000000000
         H           -1.426218075727    -0.575853202225    -1.350008523937     1.007825032230
         H           -3.100742075727    -1.049885202225    -1.132335523937     1.007825032230
         O           -0.738303075727    -0.784784202225     1.252882476063    15.994914619570
         H           -2.728083075727    -1.099086202225     1.355006476063     1.007825032230
         H           -1.861188075727    -2.316523202225     0.419133476063     1.007825032230
         H           -0.001725075727    -0.992896202225     0.654930476063     1.007825032230
         C           -2.684443075727     0.955361797775    -0.480559523937    12.000000000000
         H           -3.156563075727     1.302502797775    -1.402854523937     1.007825032230
         H           -3.452574075727     1.010733797775     0.296287476063     1.007825032230
         C           -1.534623075727     1.895237797775    -0.130199523937    12.000000000000
         H           -0.767244075727     1.860737797775    -0.906611523937     1.007825032230
         H           -1.883690075727     2.925742797775    -0.056860523937     1.007825032230
         H           -1.070273075727     1.612263797775     0.811234476063     1.007825032230
      Gh(C)           3.045947924273     0.463518797775    -0.146840523937    12.000000000000
      Gh(C)           2.092465924273    -0.208950202225    -1.116757523937    12.000000000000
      Gh(H)           3.812249924273    -0.257690202225     0.153893476063     1.007825032230
      Gh(H)           3.566974924273     1.257158797775    -0.688361523937     1.007825032230
      Gh(O)           1.419130924273    -1.337409202225    -0.541090523937    15.994914619570
      Gh(H)           1.295219924273     0.477369797775    -1.401697523937     1.007825032230
      Gh(H)           2.616098924273    -0.517944202225    -2.024686523937     1.007825032230
      Gh(H)           2.087792924273    -1.976518202225    -0.270145523937     1.007825032230
      Gh(C)           2.343478924273     1.034407797775     1.078353476063    12.000000000000
      Gh(H)           1.819967924273     0.259112797775     1.635151476063     1.007825032230
      Gh(H)           3.056942924273     1.510543797775     1.749521476063     1.007825032230
      Gh(H)           1.605500924273     1.780935797775     0.783704476063     1.007825032230

  Running in c1 symmetry.

  Rotational constants: A =      0.06426  B =      0.02435  C =      0.02199 [cm^-1]
  Rotational constants: A =   1926.37576  B =    730.01649  C =    659.34316 [MHz]
  Nuclear repulsion =  192.221643541581244

  Charge       = 0
  Multiplicity = 1
  Electrons    = 42
  Nalpha       = 21
  Nbeta        = 21

  ==> Algorithm <==

  SCF Algorithm Type is DF.
  DIIS enabled.
  MOM disabled.
  Fractional occupation disabled.
  Guess Type is SAD.
  Energy threshold   = 1.00e-08
  Density threshold  = 1.00e-08
  Integral threshold = 0.00e+00

  ==> Primary Basis <==

  Basis Set: JUN-CC-PVTZ
    Blend: JUN-CC-PVTZ
    Number of shells: 225
    Number of basis function: 603
    Number of Cartesian functions: 675
    Spherical Harmonics?: true
    Max angular momentum: 3

   => Loading Basis Set <=

    Name: (JUN-CC-PVTZ AUX)
    Role: JKFIT
    Keyword: DF_BASIS_SCF
    atoms 1-2, 9, 12, 16-17, 24                       entry C          line   152 file /home/r08543048/miniconda3/share/psi4/basis/jun-cc-pvtz-jkfit.gbs 
    atoms 3-4, 6-8, 10-11, 13-15, 18-19, 21-23, 25-27 entry H          line    70 file /home/r08543048/miniconda3/share/psi4/basis/jun-cc-pvtz-jkfit.gbs 
    atoms 5, 20                                       entry O          line   272 file /home/r08543048/miniconda3/share/psi4/basis/jun-cc-pvtz-jkfit.gbs 

  ==> Pre-Iterations <==

   -------------------------------------------------------
    Irrep   Nso     Nmo     Nalpha   Nbeta   Ndocc  Nsocc
   -------------------------------------------------------
     A        603     603       0       0       0       0
   -------------------------------------------------------
    Total     603     603      21      21      21       0
   -------------------------------------------------------

  ==> Integral Setup <==

  ==> DiskDFJK: Density-Fitted J/K Matrices <==

    J tasked:                  Yes
    K tasked:                  Yes
    wK tasked:                  No
    OpenMP threads:              1
    Integrals threads:           1
    Memory [MiB]:            15735
    Algorithm:                Core
    Integral Cache:           LOAD
    Schwarz Cutoff:          1E-12
    Fitting Condition:       1E-10

   => Auxiliary Basis Set <=

  Basis Set: (JUN-CC-PVTZ AUX)
    Blend: JUN-CC-PVTZ-JKFIT
    Number of shells: 441
    Number of basis function: 1395
    Number of Cartesian functions: 1674
    Spherical Harmonics?: true
    Max angular momentum: 4

  Minimum eigenvalue in the overlap matrix is 4.1696521299E-05.
  Using Symmetric Orthogonalization.

  SCF Guess: Superposition of Atomic Densities via on-the-fly atomic UHF.

  ==> Iterations <==

                           Total Energy        Delta E     RMS |[F,P]|

   @DF-RHF iter SAD:  -231.56581639349810   -2.31566e+02   0.00000e+00 
   @DF-RHF iter   1:  -232.00716832439062   -4.41352e-01   1.05060e-03 DIIS
   @DF-RHF iter   2:  -232.18435468174479   -1.77186e-01   5.58233e-04 DIIS
   @DF-RHF iter   3:  -232.23288642286965   -4.85317e-02   9.54972e-05 DIIS
   @DF-RHF iter   4:  -232.23563128511418   -2.74486e-03   3.23440e-05 DIIS
   @DF-RHF iter   5:  -232.23584961372296   -2.18329e-04   8.22179e-06 DIIS
   @DF-RHF iter   6:  -232.23586723309728   -1.76194e-05   1.86953e-06 DIIS
   @DF-RHF iter   7:  -232.23586853951107   -1.30641e-06   4.59021e-07 DIIS
   @DF-RHF iter   8:  -232.23586862144347   -8.19324e-08   1.45836e-07 DIIS
   @DF-RHF iter   9:  -232.23586863020751   -8.76403e-09   4.04479e-08 DIIS
   @DF-RHF iter  10:  -232.23586863098680   -7.79295e-10   9.49044e-09 DIIS
  Energy and wave function converged.


  ==> Post-Iterations <==

    Orbital Energies [Eh]
    ---------------------

    Doubly Occupied:                                                      

       1A    -20.556051     2A    -11.271814     3A    -11.220309  
       4A    -11.216171     5A    -11.201065     6A     -1.356481  
       7A     -1.067701     8A     -0.971927     9A     -0.865198  
      10A     -0.790147    11A     -0.679557    12A     -0.637756  
      13A     -0.627513    14A     -0.579911    15A     -0.559658  
      16A     -0.536385    17A     -0.506172    18A     -0.493236  
      19A     -0.472663    20A     -0.459315    21A     -0.424576  

    Virtual:                                                              

      22A      0.031360    23A      0.046927    24A      0.053238  
      25A      0.055295    26A      0.063943    27A      0.069038  
      28A      0.070811    29A      0.081351    30A      0.088380  
      31A      0.093861    32A      0.100091    33A      0.103936  
      34A      0.108310    35A      0.111041    36A      0.122808  
      37A      0.128298    38A      0.134977    39A      0.138542  
      40A      0.140221    41A      0.147098    42A      0.152768  
      43A      0.157998    44A      0.161645    45A      0.169396  
      46A      0.176334    47A      0.181397    48A      0.194227  
      49A      0.203792    50A      0.207784    51A      0.216184  
      52A      0.221713    53A      0.224443    54A      0.241771  
      55A      0.247203    56A      0.255361    57A      0.267922  
      58A      0.271404    59A      0.278488    60A      0.284009  
      61A      0.287223    62A      0.295170    63A      0.302877  
      64A      0.308706    65A      0.312243    66A      0.316611  
      67A      0.320822    68A      0.325406    69A      0.340136  
      70A      0.342496    71A      0.343890    72A      0.350627  
      73A      0.351424    74A      0.355171    75A      0.361400  
      76A      0.362766    77A      0.380315    78A      0.383939  
      79A      0.391265    80A      0.396901    81A      0.402137  
      82A      0.405896    83A      0.414526    84A      0.423061  
      85A      0.425784    86A      0.429920    87A      0.434105  
      88A      0.437479    89A      0.442109    90A      0.451921  
      91A      0.453500    92A      0.475011    93A      0.478275  
      94A      0.480325    95A      0.486316    96A      0.499733  
      97A      0.500471    98A      0.509821    99A      0.519489  
     100A      0.527674   101A      0.530027   102A      0.536680  
     103A      0.542164   104A      0.548317   105A      0.553506  
     106A      0.556830   107A      0.567356   108A      0.570670  
     109A      0.575655   110A      0.584705   111A      0.590049  
     112A      0.598342   113A      0.609040   114A      0.619460  
     115A      0.621244   116A      0.629843   117A      0.632264  
     118A      0.640529   119A      0.653036   120A      0.654369  
     121A      0.663540   122A      0.676375   123A      0.679244  
     124A      0.694200   125A      0.701042   126A      0.707420  
     127A      0.710997   128A      0.724615   129A      0.726639  
     130A      0.733675   131A      0.748683   132A      0.760360  
     133A      0.768373   134A      0.779993   135A      0.789503  
     136A      0.796744   137A      0.802172   138A      0.815168  
     139A      0.821537   140A      0.832580   141A      0.838430  
     142A      0.847451   143A      0.854330   144A      0.863310  
     145A      0.868979   146A      0.882253   147A      0.889457  
     148A      0.894632   149A      0.907596   150A      0.917410  
     151A      0.929888   152A      0.948678   153A      0.959872  
     154A      0.966592   155A      0.983437   156A      0.998396  
     157A      1.006187   158A      1.008964   159A      1.016268  
     160A      1.034335   161A      1.045490   162A      1.065810  
     163A      1.079439   164A      1.086528   165A      1.104612  
     166A      1.108727   167A      1.113502   168A      1.125581  
     169A      1.128339   170A      1.149614   171A      1.157489  
     172A      1.167112   173A      1.172333   174A      1.188253  
     175A      1.193522   176A      1.197959   177A      1.215712  
     178A      1.219115   179A      1.232477   180A      1.243917  
     181A      1.250903   182A      1.263261   183A      1.275631  
     184A      1.282473   185A      1.286365   186A      1.294434  
     187A      1.304443   188A      1.313279   189A      1.324174  
     190A      1.329864   191A      1.337470   192A      1.362217  
     193A      1.367389   194A      1.374829   195A      1.381290  
     196A      1.389336   197A      1.392110   198A      1.409761  
     199A      1.419054   200A      1.422989   201A      1.432386  
     202A      1.432779   203A      1.441764   204A      1.450237  
     205A      1.467192   206A      1.469762   207A      1.473860  
     208A      1.487456   209A      1.490809   210A      1.493730  
     211A      1.505875   212A      1.525173   213A      1.528543  
     214A      1.536006   215A      1.541643   216A      1.560508  
     217A      1.564096   218A      1.570890   219A      1.578171  
     220A      1.591336   221A      1.597449   222A      1.601320  
     223A      1.604394   224A      1.619352   225A      1.625970  
     226A      1.633814   227A      1.643421   228A      1.645029  
     229A      1.662800   230A      1.672009   231A      1.685292  
     232A      1.691213   233A      1.703882   234A      1.708570  
     235A      1.719236   236A      1.720910   237A      1.733000  
     238A      1.748711   239A      1.754206   240A      1.764521  
     241A      1.770267   242A      1.794420   243A      1.796901  
     244A      1.812385   245A      1.832584   246A      1.841810  
     247A      1.852041   248A      1.860800   249A      1.876225  
     250A      1.896310   251A      1.901073   252A      1.910461  
     253A      1.922827   254A      1.945623   255A      1.960953  
     256A      1.975488   257A      1.981063   258A      1.997907  
     259A      2.004416   260A      2.023253   261A      2.051747  
     262A      2.061483   263A      2.097500   264A      2.108745  
     265A      2.134674   266A      2.140216   267A      2.201650  
     268A      2.210235   269A      2.226194   270A      2.297760  
     271A      2.337202   272A      2.357015   273A      2.397375  
     274A      2.410040   275A      2.441572   276A      2.459527  
     277A      2.477371   278A      2.495359   279A      2.522093  
     280A      2.534351   281A      2.550810   282A      2.568686  
     283A      2.613705   284A      2.689893   285A      2.733571  
     286A      2.743433   287A      2.796658   288A      2.805280  
     289A      2.820575   290A      2.846631   291A      2.860247  
     292A      2.878889   293A      2.890338   294A      2.917088  
     295A      2.932819   296A      2.941529   297A      2.962430  
     298A      2.979065   299A      3.007405   300A      3.028014  
     301A      3.050367   302A      3.058402   303A      3.070310  
     304A      3.086574   305A      3.097348   306A      3.107553  
     307A      3.113966   308A      3.139666   309A      3.169439  
     310A      3.182311   311A      3.201719   312A      3.222657  
     313A      3.245130   314A      3.267045   315A      3.285183  
     316A      3.297078   317A      3.330384   318A      3.340360  
     319A      3.372989   320A      3.400992   321A      3.406188  
     322A      3.413320   323A      3.432817   324A      3.441779  
     325A      3.450696   326A      3.461802   327A      3.473096  
     328A      3.482584   329A      3.487988   330A      3.501766  
     331A      3.510295   332A      3.517807   333A      3.526591  
     334A      3.540842   335A      3.546746   336A      3.559226  
     337A      3.565316   338A      3.578643   339A      3.583748  
     340A      3.601084   341A      3.601627   342A      3.603961  
     343A      3.620641   344A      3.639188   345A      3.646213  
     346A      3.670560   347A      3.672060   348A      3.681792  
     349A      3.703762   350A      3.714304   351A      3.737365  
     352A      3.748582   353A      3.754453   354A      3.767159  
     355A      3.769700   356A      3.783495   357A      3.797120  
     358A      3.798783   359A      3.802829   360A      3.813932  
     361A      3.822046   362A      3.834586   363A      3.840679  
     364A      3.850180   365A      3.860115   366A      3.872860  
     367A      3.900584   368A      3.913479   369A      3.927252  
     370A      3.935246   371A      3.938170   372A      3.950078  
     373A      3.961570   374A      3.972794   375A      3.979561  
     376A      3.987608   377A      3.989529   378A      4.010778  
     379A      4.026136   380A      4.054192   381A      4.093151  
     382A      4.101125   383A      4.113360   384A      4.115333  
     385A      4.124354   386A      4.135518   387A      4.147638  
     388A      4.165755   389A      4.186758   390A      4.201332  
     391A      4.218632   392A      4.220385   393A      4.241484  
     394A      4.249527   395A      4.256050   396A      4.273024  
     397A      4.280331   398A      4.288647   399A      4.295169  
     400A      4.319973   401A      4.334832   402A      4.350370  
     403A      4.360274   404A      4.380259   405A      4.388029  
     406A      4.397882   407A      4.405674   408A      4.412556  
     409A      4.423306   410A      4.428819   411A      4.444265  
     412A      4.448588   413A      4.457301   414A      4.462418  
     415A      4.479750   416A      4.493075   417A      4.506368  
     418A      4.513552   419A      4.519192   420A      4.527665  
     421A      4.534003   422A      4.542194   423A      4.552547  
     424A      4.555456   425A      4.558812   426A      4.580772  
     427A      4.587636   428A      4.590887   429A      4.618296  
     430A      4.621635   431A      4.626611   432A      4.630680  
     433A      4.641631   434A      4.652269   435A      4.659700  
     436A      4.674202   437A      4.691159   438A      4.699225  
     439A      4.706939   440A      4.717255   441A      4.730827  
     442A      4.735024   443A      4.744453   444A      4.756196  
     445A      4.773307   446A      4.783376   447A      4.789671  
     448A      4.800507   449A      4.810873   450A      4.818766  
     451A      4.826941   452A      4.838210   453A      4.843014  
     454A      4.853805   455A      4.855472   456A      4.876455  
     457A      4.888743   458A      4.902451   459A      4.910699  
     460A      4.914387   461A      4.927229   462A      4.941374  
     463A      4.944694   464A      4.963141   465A      4.979345  
     466A      4.981505   467A      4.997840   468A      5.019819  
     469A      5.026888   470A      5.041632   471A      5.044268  
     472A      5.051494   473A      5.059771   474A      5.067666  
     475A      5.073549   476A      5.082930   477A      5.104158  
     478A      5.113123   479A      5.145390   480A      5.146398  
     481A      5.162037   482A      5.164630   483A      5.188198  
     484A      5.210359   485A      5.222884   486A      5.237579  
     487A      5.250066   488A      5.277674   489A      5.296124  
     490A      5.309589   491A      5.318238   492A      5.320845  
     493A      5.336658   494A      5.347265   495A      5.364787  
     496A      5.380241   497A      5.398539   498A      5.434157  
     499A      5.440160   500A      5.459759   501A      5.490224  
     502A      5.496197   503A      5.513083   504A      5.557122  
     505A      5.559585   506A      5.584023   507A      5.595486  
     508A      5.609968   509A      5.621735   510A      5.648925  
     511A      5.664837   512A      5.678415   513A      5.729957  
     514A      5.774092   515A      5.776411   516A      5.796122  
     517A      5.813217   518A      5.828203   519A      5.841293  
     520A      5.854596   521A      5.864541   522A      5.875728  
     523A      5.903188   524A      5.938658   525A      5.949103  
     526A      5.959814   527A      5.977344   528A      6.017725  
     529A      6.026444   530A      6.076613   531A      6.095626  
     532A      6.115360   533A      6.155675   534A      6.206454  
     535A      6.215463   536A      6.232205   537A      6.314844  
     538A      6.325078   539A      6.357749   540A      6.382206  
     541A      6.409237   542A      6.460812   543A      6.465024  
     544A      6.470939   545A      6.531386   546A      6.540248  
     547A      6.576862   548A      6.588206   549A      6.635806  
     550A      6.645226   551A      6.694536   552A      6.867434  
     553A      6.951613   554A      6.976950   555A      7.012761  
     556A      7.069231   557A      7.109337   558A      7.241231  
     559A      7.286564   560A      7.350641   561A      7.371279  
     562A      7.419140   563A      7.462957   564A      7.498569  
     565A      7.540340   566A      7.579625   567A      7.623437  
     568A      7.687334   569A      7.696036   570A      7.723404  
     571A      7.773231   572A      7.814602   573A      7.873097  
     574A      7.913965   575A      7.935137   576A      7.970181  
     577A      8.062133   578A      8.184075   579A      8.215587  
     580A      8.349155   581A      8.485096   582A      8.598143  
     583A      9.549797   584A      9.608534   585A      9.775213  
     586A      9.847273   587A      9.941246   588A     10.051902  
     589A     10.152564   590A     10.333914   591A     11.287725  
     592A     11.682523   593A     12.739469   594A     13.527103  
     595A     13.627394   596A     13.840411   597A     14.064368  
     598A     14.231286   599A     14.762145   600A     43.925069  
     601A     45.078744   602A     45.871730   603A     61.422949  

    Final Occupation by Irrep:
              A 
    DOCC [    21 ]

  @DF-RHF Final Energy:  -232.23586863098680

   => Energetics <=

    Nuclear Repulsion Energy =            192.2216435415812441
    One-Electron Energy =                -695.9278047974397623
    Two-Electron Energy =                 271.4702926248717176
    Total Energy =                       -232.2358686309868290

Computation Completed


Properties will be evaluated at   0.000000,   0.000000,   0.000000 [a0]

Properties computed using the SCF density matrix

  Nuclear Dipole Moment: [e a0]
     X:  -143.4280      Y:     5.6919      Z:     9.1135

  Electronic Dipole Moment: [e a0]
     X:   143.3431      Y:    -5.9894      Z:    -9.7263

  Dipole Moment: [e a0]
     X:    -0.0849      Y:    -0.2975      Z:    -0.6128     Total:     0.6865

  Dipole Moment: [D]
     X:    -0.2157      Y:    -0.7561      Z:    -1.5576     Total:     1.7448


*** tstop() called on r282 at Fri Sep 10 12:08:38 2021
Module time:
	user time   =      75.91 seconds =       1.27 minutes
	system time =       1.10 seconds =       0.02 minutes
	total time  =         77 seconds =       1.28 minutes
Total time:
	user time   =     206.89 seconds =       3.45 minutes
	system time =       3.42 seconds =       0.06 minutes
	total time  =        211 seconds =       3.52 minutes

  //>>>>>>>>>>>>>>>>>>>>>>>>>>>>>>>>>>>//
  //            Monomer B HF           //
  //<<<<<<<<<<<<<<<<<<<<<<<<<<<<<<<<<<<//


*** tstart() called on r282
*** at Fri Sep 10 12:08:38 2021

   => Loading Basis Set <=

    Name: JUN-CC-PVTZ
    Role: ORBITAL
    Keyword: BASIS
    atoms 1-2, 9, 12, 16-17, 24                       entry C          line   217 file /home/r08543048/miniconda3/share/psi4/basis/jun-cc-pvtz.gbs 
    atoms 3-4, 6-8, 10-11, 13-15, 18-19, 21-23, 25-27 entry H          line    36 file /home/r08543048/miniconda3/share/psi4/basis/jun-cc-pvtz.gbs 
    atoms 5, 20                                       entry O          line   305 file /home/r08543048/miniconda3/share/psi4/basis/jun-cc-pvtz.gbs 


         ---------------------------------------------------------
                                   SCF
               by Justin Turney, Rob Parrish, Andy Simmonett
                          and Daniel G. A. Smith
                              RHF Reference
                        1 Threads,  20980 MiB Core
         ---------------------------------------------------------

  ==> Geometry <==

    Molecular point group: c1
    Full point group: C1

    Geometry (in Angstrom), charge = 0, multiplicity = 1:

       Center              X                  Y                   Z               Mass       
    ------------   -----------------  -----------------  -----------------  -----------------
      Gh(C)          -2.275695075727    -0.505894202225    -0.662152523937    12.000000000000
      Gh(C)          -1.929253075727    -1.242613202225     0.624856476063    12.000000000000
      Gh(H)          -1.426218075727    -0.575853202225    -1.350008523937     1.007825032230
      Gh(H)          -3.100742075727    -1.049885202225    -1.132335523937     1.007825032230
      Gh(O)          -0.738303075727    -0.784784202225     1.252882476063    15.994914619570
      Gh(H)          -2.728083075727    -1.099086202225     1.355006476063     1.007825032230
      Gh(H)          -1.861188075727    -2.316523202225     0.419133476063     1.007825032230
      Gh(H)          -0.001725075727    -0.992896202225     0.654930476063     1.007825032230
      Gh(C)          -2.684443075727     0.955361797775    -0.480559523937    12.000000000000
      Gh(H)          -3.156563075727     1.302502797775    -1.402854523937     1.007825032230
      Gh(H)          -3.452574075727     1.010733797775     0.296287476063     1.007825032230
      Gh(C)          -1.534623075727     1.895237797775    -0.130199523937    12.000000000000
      Gh(H)          -0.767244075727     1.860737797775    -0.906611523937     1.007825032230
      Gh(H)          -1.883690075727     2.925742797775    -0.056860523937     1.007825032230
      Gh(H)          -1.070273075727     1.612263797775     0.811234476063     1.007825032230
         C            3.045947924273     0.463518797775    -0.146840523937    12.000000000000
         C            2.092465924273    -0.208950202225    -1.116757523937    12.000000000000
         H            3.812249924273    -0.257690202225     0.153893476063     1.007825032230
         H            3.566974924273     1.257158797775    -0.688361523937     1.007825032230
         O            1.419130924273    -1.337409202225    -0.541090523937    15.994914619570
         H            1.295219924273     0.477369797775    -1.401697523937     1.007825032230
         H            2.616098924273    -0.517944202225    -2.024686523937     1.007825032230
         H            2.087792924273    -1.976518202225    -0.270145523937     1.007825032230
         C            2.343478924273     1.034407797775     1.078353476063    12.000000000000
         H            1.819967924273     0.259112797775     1.635151476063     1.007825032230
         H            3.056942924273     1.510543797775     1.749521476063     1.007825032230
         H            1.605500924273     1.780935797775     0.783704476063     1.007825032230

  Running in c1 symmetry.

  Rotational constants: A =      0.06426  B =      0.02435  C =      0.02199 [cm^-1]
  Rotational constants: A =   1926.37576  B =    730.01649  C =    659.34316 [MHz]
  Nuclear repulsion =  132.542523232657061

  Charge       = 0
  Multiplicity = 1
  Electrons    = 34
  Nalpha       = 17
  Nbeta        = 17

  ==> Algorithm <==

  SCF Algorithm Type is DF.
  DIIS enabled.
  MOM disabled.
  Fractional occupation disabled.
  Guess Type is SAD.
  Energy threshold   = 1.00e-08
  Density threshold  = 1.00e-08
  Integral threshold = 0.00e+00

  ==> Primary Basis <==

  Basis Set: JUN-CC-PVTZ
    Blend: JUN-CC-PVTZ
    Number of shells: 225
    Number of basis function: 603
    Number of Cartesian functions: 675
    Spherical Harmonics?: true
    Max angular momentum: 3

   => Loading Basis Set <=

    Name: (JUN-CC-PVTZ AUX)
    Role: JKFIT
    Keyword: DF_BASIS_SCF
    atoms 1-2, 9, 12, 16-17, 24                       entry C          line   152 file /home/r08543048/miniconda3/share/psi4/basis/jun-cc-pvtz-jkfit.gbs 
    atoms 3-4, 6-8, 10-11, 13-15, 18-19, 21-23, 25-27 entry H          line    70 file /home/r08543048/miniconda3/share/psi4/basis/jun-cc-pvtz-jkfit.gbs 
    atoms 5, 20                                       entry O          line   272 file /home/r08543048/miniconda3/share/psi4/basis/jun-cc-pvtz-jkfit.gbs 

  ==> Pre-Iterations <==

   -------------------------------------------------------
    Irrep   Nso     Nmo     Nalpha   Nbeta   Ndocc  Nsocc
   -------------------------------------------------------
     A        603     603       0       0       0       0
   -------------------------------------------------------
    Total     603     603      17      17      17       0
   -------------------------------------------------------

  ==> Integral Setup <==

  ==> DiskDFJK: Density-Fitted J/K Matrices <==

    J tasked:                  Yes
    K tasked:                  Yes
    wK tasked:                  No
    OpenMP threads:              1
    Integrals threads:           1
    Memory [MiB]:            15735
    Algorithm:                Core
    Integral Cache:           LOAD
    Schwarz Cutoff:          1E-12
    Fitting Condition:       1E-10

   => Auxiliary Basis Set <=

  Basis Set: (JUN-CC-PVTZ AUX)
    Blend: JUN-CC-PVTZ-JKFIT
    Number of shells: 441
    Number of basis function: 1395
    Number of Cartesian functions: 1674
    Spherical Harmonics?: true
    Max angular momentum: 4

  Minimum eigenvalue in the overlap matrix is 4.1696521299E-05.
  Using Symmetric Orthogonalization.

  SCF Guess: Superposition of Atomic Densities via on-the-fly atomic UHF.

  ==> Iterations <==

                           Total Energy        Delta E     RMS |[F,P]|

   @DF-RHF iter SAD:  -192.48479182828041   -1.92485e+02   0.00000e+00 
   @DF-RHF iter   1:  -193.01159825418418   -5.26806e-01   9.47533e-04 DIIS
   @DF-RHF iter   2:  -193.15228866327098   -1.40690e-01   5.02291e-04 DIIS
   @DF-RHF iter   3:  -193.18931109918861   -3.70224e-02   8.55299e-05 DIIS
   @DF-RHF iter   4:  -193.19141352965866   -2.10243e-03   3.13603e-05 DIIS
   @DF-RHF iter   5:  -193.19161543669125   -2.01907e-04   7.02791e-06 DIIS
   @DF-RHF iter   6:  -193.19162971606494   -1.42794e-05   1.45205e-06 DIIS
   @DF-RHF iter   7:  -193.19163064609666   -9.30032e-07   3.65811e-07 DIIS
   @DF-RHF iter   8:  -193.19163070057499   -5.44783e-08   1.22788e-07 DIIS
   @DF-RHF iter   9:  -193.19163070668679   -6.11180e-09   3.31312e-08 DIIS
   @DF-RHF iter  10:  -193.19163070721129   -5.24494e-10   7.26192e-09 DIIS
  Energy and wave function converged.


  ==> Post-Iterations <==

    Orbital Energies [Eh]
    ---------------------

    Doubly Occupied:                                                      

       1A    -20.553599     2A    -11.271623     3A    -11.223530  
       4A    -11.210380     5A     -1.351707     6A     -1.052257  
       7A     -0.921007     8A     -0.812368     9A     -0.672300  
      10A     -0.636916    11A     -0.627141    12A     -0.562992  
      13A     -0.533431    14A     -0.520650    15A     -0.485345  
      16A     -0.472089    17A     -0.438178  

    Virtual:                                                              

      18A      0.036120    19A      0.049038    20A      0.052121  
      21A      0.053180    22A      0.065188    23A      0.069599  
      24A      0.073416    25A      0.079930    26A      0.085781  
      27A      0.094492    28A      0.103407    29A      0.105851  
      30A      0.109307    31A      0.112711    32A      0.118663  
      33A      0.128717    34A      0.137686    35A      0.140370  
      36A      0.142931    37A      0.148349    38A      0.149831  
      39A      0.157682    40A      0.163382    41A      0.167747  
      42A      0.174043    43A      0.182106    44A      0.197377  
      45A      0.206467    46A      0.210754    47A      0.216949  
      48A      0.220641    49A      0.228415    50A      0.238494  
      51A      0.251040    52A      0.258134    53A      0.258207  
      54A      0.265041    55A      0.276110    56A      0.283594  
      57A      0.289323    58A      0.297362    59A      0.302371  
      60A      0.306065    61A      0.309594    62A      0.318048  
      63A      0.323073    64A      0.334163    65A      0.340185  
      66A      0.341500    67A      0.346201    68A      0.347900  
      69A      0.359547    70A      0.362569    71A      0.365623  
      72A      0.368134    73A      0.377604    74A      0.383176  
      75A      0.387017    76A      0.392238    77A      0.399850  
      78A      0.409885    79A      0.415328    80A      0.420042  
      81A      0.425343    82A      0.434136    83A      0.441961  
      84A      0.450697    85A      0.455549    86A      0.461322  
      87A      0.469049    88A      0.475476    89A      0.484665  
      90A      0.488273    91A      0.497639    92A      0.500486  
      93A      0.501651    94A      0.518172    95A      0.526277  
      96A      0.535945    97A      0.536760    98A      0.543525  
      99A      0.545209   100A      0.555437   101A      0.559674  
     102A      0.564220   103A      0.571543   104A      0.580829  
     105A      0.583415   106A      0.596532   107A      0.602129  
     108A      0.604390   109A      0.620654   110A      0.625638  
     111A      0.629916   112A      0.638162   113A      0.645463  
     114A      0.656879   115A      0.658159   116A      0.666282  
     117A      0.670178   118A      0.674509   119A      0.683864  
     120A      0.692430   121A      0.711161   122A      0.717086  
     123A      0.721597   124A      0.727927   125A      0.732120  
     126A      0.741041   127A      0.746883   128A      0.763931  
     129A      0.774410   130A      0.777960   131A      0.790377  
     132A      0.795414   133A      0.802515   134A      0.817957  
     135A      0.823021   136A      0.842409   137A      0.851062  
     138A      0.863244   139A      0.869346   140A      0.872312  
     141A      0.878569   142A      0.888089   143A      0.892425  
     144A      0.912378   145A      0.925290   146A      0.932294  
     147A      0.946516   148A      0.955081   149A      0.971826  
     150A      0.979758   151A      0.987000   152A      1.008197  
     153A      1.021344   154A      1.046076   155A      1.053226  
     156A      1.068716   157A      1.077838   158A      1.091624  
     159A      1.095691   160A      1.104887   161A      1.119297  
     162A      1.120599   163A      1.135175   164A      1.151615  
     165A      1.163114   166A      1.166923   167A      1.176815  
     168A      1.184157   169A      1.197186   170A      1.205170  
     171A      1.226343   172A      1.241970   173A      1.242823  
     174A      1.251007   175A      1.257626   176A      1.262823  
     177A      1.271648   178A      1.277793   179A      1.289430  
     180A      1.306740   181A      1.307433   182A      1.313786  
     183A      1.326999   184A      1.333234   185A      1.343880  
     186A      1.347883   187A      1.362170   188A      1.367976  
     189A      1.375998   190A      1.381405   191A      1.387971  
     192A      1.395651   193A      1.413923   194A      1.419110  
     195A      1.425629   196A      1.436557   197A      1.441651  
     198A      1.445789   199A      1.455327   200A      1.463977  
     201A      1.477566   202A      1.479964   203A      1.489254  
     204A      1.495079   205A      1.505691   206A      1.517945  
     207A      1.523300   208A      1.531580   209A      1.537849  
     210A      1.543445   211A      1.551765   212A      1.557586  
     213A      1.566728   214A      1.583968   215A      1.594659  
     216A      1.607531   217A      1.611078   218A      1.612547  
     219A      1.629258   220A      1.636633   221A      1.640316  
     222A      1.653015   223A      1.665639   224A      1.672702  
     225A      1.681902   226A      1.691834   227A      1.698988  
     228A      1.705585   229A      1.713436   230A      1.728320  
     231A      1.738717   232A      1.753726   233A      1.757765  
     234A      1.768262   235A      1.781661   236A      1.788928  
     237A      1.801882   238A      1.811182   239A      1.815730  
     240A      1.834934   241A      1.847332   242A      1.865234  
     243A      1.868315   244A      1.873297   245A      1.893342  
     246A      1.906794   247A      1.918764   248A      1.924451  
     249A      1.952045   250A      1.962844   251A      1.971195  
     252A      1.980947   253A      2.008446   254A      2.027777  
     255A      2.059802   256A      2.065570   257A      2.078614  
     258A      2.091351   259A      2.121692   260A      2.135268  
     261A      2.171850   262A      2.193504   263A      2.207813  
     264A      2.230326   265A      2.255533   266A      2.299710  
     267A      2.301373   268A      2.356266   269A      2.375402  
     270A      2.399128   271A      2.443665   272A      2.453753  
     273A      2.458459   274A      2.491429   275A      2.508043  
     276A      2.521159   277A      2.542976   278A      2.575175  
     279A      2.595993   280A      2.601618   281A      2.607588  
     282A      2.619111   283A      2.672970   284A      2.756023  
     285A      2.793943   286A      2.818964   287A      2.846051  
     288A      2.855406   289A      2.871971   290A      2.896798  
     291A      2.913566   292A      2.944741   293A      2.958979  
     294A      2.974424   295A      2.998417   296A      3.008270  
     297A      3.025230   298A      3.049558   299A      3.080671  
     300A      3.104001   301A      3.108909   302A      3.127828  
     303A      3.136820   304A      3.166438   305A      3.185195  
     306A      3.212142   307A      3.264288   308A      3.299207  
     309A      3.314408   310A      3.328085   311A      3.355769  
     312A      3.372809   313A      3.387236   314A      3.429780  
     315A      3.433328   316A      3.441571   317A      3.451207  
     318A      3.467795   319A      3.480937   320A      3.493249  
     321A      3.506011   322A      3.511018   323A      3.518025  
     324A      3.528664   325A      3.531298   326A      3.543895  
     327A      3.566039   328A      3.571549   329A      3.582082  
     330A      3.591296   331A      3.606714   332A      3.613851  
     333A      3.621422   334A      3.636973   335A      3.660601  
     336A      3.663036   337A      3.699691   338A      3.708437  
     339A      3.715999   340A      3.716972   341A      3.734037  
     342A      3.739137   343A      3.753648   344A      3.763465  
     345A      3.771219   346A      3.781821   347A      3.795039  
     348A      3.805927   349A      3.818221   350A      3.837230  
     351A      3.841777   352A      3.847286   353A      3.859390  
     354A      3.867290   355A      3.870919   356A      3.891335  
     357A      3.905840   358A      3.915460   359A      3.924948  
     360A      3.928214   361A      3.946285   362A      3.952970  
     363A      3.966586   364A      3.971234   365A      3.982361  
     366A      3.984264   367A      4.001055   368A      4.008393  
     369A      4.040122   370A      4.067839   371A      4.087092  
     372A      4.094676   373A      4.097694   374A      4.117554  
     375A      4.123124   376A      4.137582   377A      4.146601  
     378A      4.160901   379A      4.181915   380A      4.199847  
     381A      4.204306   382A      4.215637   383A      4.229049  
     384A      4.248893   385A      4.270433   386A      4.276962  
     387A      4.285066   388A      4.289838   389A      4.303350  
     390A      4.323702   391A      4.340732   392A      4.351156  
     393A      4.357553   394A      4.363349   395A      4.384724  
     396A      4.394475   397A      4.400726   398A      4.412715  
     399A      4.418744   400A      4.424477   401A      4.438286  
     402A      4.442001   403A      4.448795   404A      4.460168  
     405A      4.466040   406A      4.477053   407A      4.497309  
     408A      4.508096   409A      4.514507   410A      4.520372  
     411A      4.531920   412A      4.544332   413A      4.546349  
     414A      4.564357   415A      4.572566   416A      4.586548  
     417A      4.593194   418A      4.603740   419A      4.604740  
     420A      4.619118   421A      4.642648   422A      4.647099  
     423A      4.649133   424A      4.655486   425A      4.674292  
     426A      4.677420   427A      4.696652   428A      4.699980  
     429A      4.709843   430A      4.732517   431A      4.742036  
     432A      4.754578   433A      4.757867   434A      4.772472  
     435A      4.776310   436A      4.780346   437A      4.798235  
     438A      4.802041   439A      4.811294   440A      4.822894  
     441A      4.828735   442A      4.843463   443A      4.852505  
     444A      4.857725   445A      4.867649   446A      4.873431  
     447A      4.878816   448A      4.889969   449A      4.902170  
     450A      4.907461   451A      4.929577   452A      4.931713  
     453A      4.957557   454A      4.958420   455A      4.976633  
     456A      4.983494   457A      4.989234   458A      4.997887  
     459A      5.008533   460A      5.023281   461A      5.032264  
     462A      5.045905   463A      5.050705   464A      5.058049  
     465A      5.063950   466A      5.083949   467A      5.099884  
     468A      5.110703   469A      5.120869   470A      5.132719  
     471A      5.147661   472A      5.153346   473A      5.156779  
     474A      5.173549   475A      5.182421   476A      5.183840  
     477A      5.212065   478A      5.219610   479A      5.247601  
     480A      5.258461   481A      5.271228   482A      5.289973  
     483A      5.303826   484A      5.316893   485A      5.345360  
     486A      5.348036   487A      5.361795   488A      5.371671  
     489A      5.397742   490A      5.400776   491A      5.431689  
     492A      5.452293   493A      5.462326   494A      5.485608  
     495A      5.512179   496A      5.526891   497A      5.556454  
     498A      5.583058   499A      5.590115   500A      5.597776  
     501A      5.618762   502A      5.646245   503A      5.675129  
     504A      5.683951   505A      5.708128   506A      5.743578  
     507A      5.759255   508A      5.787830   509A      5.788986  
     510A      5.807231   511A      5.840732   512A      5.849380  
     513A      5.856724   514A      5.890303   515A      5.899492  
     516A      5.935505   517A      5.942864   518A      5.963247  
     519A      5.980202   520A      5.996659   521A      6.009378  
     522A      6.063257   523A      6.078930   524A      6.108542  
     525A      6.117702   526A      6.146316   527A      6.193480  
     528A      6.244998   529A      6.256000   530A      6.289225  
     531A      6.321665   532A      6.364265   533A      6.398999  
     534A      6.401947   535A      6.428887   536A      6.451932  
     537A      6.474828   538A      6.490706   539A      6.507888  
     540A      6.528042   541A      6.562493   542A      6.572054  
     543A      6.612367   544A      6.667057   545A      6.763494  
     546A      6.813347   547A      6.942900   548A      6.945866  
     549A      6.959202   550A      7.026856   551A      7.081648  
     552A      7.177088   553A      7.244993   554A      7.315719  
     555A      7.330959   556A      7.399508   557A      7.433288  
     558A      7.450815   559A      7.523732   560A      7.563547  
     561A      7.587694   562A      7.604421   563A      7.645429  
     564A      7.679967   565A      7.706019   566A      7.711345  
     567A      7.760768   568A      7.777672   569A      7.823599  
     570A      7.854864   571A      7.881413   572A      7.915155  
     573A      7.966448   574A      8.020302   575A      8.116458  
     576A      8.225187   577A      8.255549   578A      8.360691  
     579A      8.405310   580A      8.621656   581A      8.762030  
     582A      9.563454   583A      9.600143   584A      9.631643  
     585A      9.833599   586A      9.930505   587A      9.972752  
     588A     10.081743   589A     10.207388   590A     10.432002  
     591A     11.315860   592A     11.786325   593A     12.857162  
     594A     13.636996   595A     13.774697   596A     13.920279  
     597A     14.173157   598A     14.719976   599A     43.730640  
     600A     44.351931   601A     45.336578   602A     45.845029  
     603A     61.974495  

    Final Occupation by Irrep:
              A 
    DOCC [    17 ]

  @DF-RHF Final Energy:  -193.19163070721129

   => Energetics <=

    Nuclear Repulsion Energy =            132.5425232326570608
    One-Electron Energy =                -524.7772805177439750
    Two-Electron Energy =                 199.0431265778756256
    Total Energy =                       -193.1916307072112886

Computation Completed


Properties will be evaluated at   0.000000,   0.000000,   0.000000 [a0]

Properties computed using the SCF density matrix

  Nuclear Dipole Moment: [e a0]
     X:   143.8179      Y:    -0.8172      Z:   -10.3988

  Electronic Dipole Moment: [e a0]
     X:  -143.1068      Y:     0.9581      Z:    10.3541

  Dipole Moment: [e a0]
     X:     0.7111      Y:     0.1409      Z:    -0.0447     Total:     0.7263

  Dipole Moment: [D]
     X:     1.8075      Y:     0.3581      Z:    -0.1135     Total:     1.8461


*** tstop() called on r282 at Fri Sep 10 12:09:53 2021
Module time:
	user time   =      73.68 seconds =       1.23 minutes
	system time =       0.99 seconds =       0.02 minutes
	total time  =         75 seconds =       1.25 minutes
Total time:
	user time   =     280.58 seconds =       4.68 minutes
	system time =       4.41 seconds =       0.07 minutes
	total time  =        286 seconds =       4.77 minutes
  Constructing Basis Sets for SAPT...

   => Loading Basis Set <=

    Name: (JUN-CC-PVTZ AUX)
    Role: RIFIT
    Keyword: DF_BASIS_SAPT
    atoms 1-2, 9, 12, 16-17, 24                       entry C          line   132 file /home/r08543048/miniconda3/share/psi4/basis/jun-cc-pvtz-ri.gbs 
    atoms 3-4, 6-8, 10-11, 13-15, 18-19, 21-23, 25-27 entry H          line    30 file /home/r08543048/miniconda3/share/psi4/basis/jun-cc-pvtz-ri.gbs 
    atoms 5, 20                                       entry O          line   244 file /home/r08543048/miniconda3/share/psi4/basis/jun-cc-pvtz-ri.gbs 


  //>>>>>>>>>>>>>>>>>>>>>>>>>>>>>>>>>>>//
  //               SAPT0               //
  //<<<<<<<<<<<<<<<<<<<<<<<<<<<<<<<<<<<//


*** tstart() called on r282
*** at Fri Sep 10 12:09:53 2021

        SAPT0  
    Ed Hohenstein
     6 June 2009

      Orbital Information
  --------------------------
    NSO        =       603
    NMO        =       603
    NRI        =      1413
    NOCC A     =        21
    NOCC B     =        17
    FOCC A     =         0
    FOCC B     =         0
    NVIR A     =       582
    NVIR B     =       586

    Elst10,r            =    -0.016116904525 [Eh]
    Exch10              =     0.017171065670 [Eh]
    Exch10 (S^2)        =     0.017042328114 [Eh]

    Iter     Energy [mEh]          dE [mEh]         Residual      Time [s]
       1      -2.57583606       2.575836061       7.350625870             2
       2      -2.87991944       0.304083381       2.377266831             4
       3      -2.93937798       0.059458535       0.646257124             6
       4      -2.93616545      -0.003212525       0.250667653             7
       5      -2.93098524      -0.005180211       0.062299551             9
       6      -2.93132393       0.000338687       0.018455596            11
       7      -2.93166183       0.000337905       0.004372217            13
       8      -2.93162939      -0.000032442       0.001414617            15
       9      -2.93161484      -0.000014548       0.000407591            17
      10      -2.93161783       0.000002991       0.000133898            19
      11      -2.93161900       0.000001168       0.000037063            21
      12      -2.93161862      -0.000000385       0.000010198            23
      13      -2.93161860      -0.000000011       0.000003304            24
      14      -2.93161863       0.000000025       0.000000799            26

    CHF Iterations converged


    Iter     Energy [mEh]          dE [mEh]         Residual      Time [s]
       1      -3.35972883       3.359728833      11.513181592             2
       2      -4.17625765       0.816528813       5.363998896             4
       3      -4.30470844       0.128450790       1.367871924             6
       4      -4.28949304      -0.015215398       0.397778091             7
       5      -4.28253526      -0.006957776       0.085441763             9
       6      -4.28340915       0.000873883       0.030188038            11
       7      -4.28382381       0.000414661       0.007169791            13
       8      -4.28373242      -0.000091390       0.001775290            14
       9      -4.28372712      -0.000005295       0.000421946            16
      10      -4.28373151       0.000004389       0.000120463            18
      11      -4.28373178       0.000000271       0.000030321            20
      12      -4.28373152      -0.000000267       0.000008275            21
      13      -4.28373151      -0.000000006       0.000002306            23
      14      -4.28373153       0.000000017       0.000000579            25

    CHF Iterations converged

    Ind20,r (A<-B)      =    -0.002931618630 [Eh]
    Ind20,r (B<-A)      =    -0.004283731526 [Eh]
    Ind20,r             =    -0.007215350156 [Eh]
    Exch-Ind20,r (A<-B) =     0.002087841372 [Eh]
    Exch-Ind20,r (B<-A) =     0.002116053674 [Eh]
    Exch-Ind20,r        =     0.004203895046 [Eh]
    Disp20              =    -0.010512877799 [Eh]
    Disp20 (SS)         =    -0.005256438900 [Eh]
    Disp20 (OS)         =    -0.005256438900 [Eh]
    Exch-Disp20         =     0.001369867958 [Eh]
    Exch-Disp20 (SS)    =     0.000869180908 [Eh]
    Exch-Disp20 (OS)    =     0.000500687050 [Eh]

    SAPT Results 
  --------------------------------------------------------------------------------------------------------
    Electrostatics                -16.11690453 [mEh]     -10.11351028 [kcal/mol]     -42.31492700 [kJ/mol]
      Elst10,r                    -16.11690453 [mEh]     -10.11351028 [kcal/mol]     -42.31492700 [kJ/mol]

    Exchange                       17.17106567 [mEh]      10.77500638 [kcal/mol]      45.08262671 [kJ/mol]
      Exch10                       17.17106567 [mEh]      10.77500638 [kcal/mol]      45.08262671 [kJ/mol]
      Exch10(S^2)                  17.04232811 [mEh]      10.69422235 [kcal/mol]      44.74462630 [kJ/mol]

    Induction                      -5.27191007 [mEh]      -3.30817351 [kcal/mol]     -13.84139798 [kJ/mol]
      Ind20,r                      -7.21535016 [mEh]      -4.52770058 [kcal/mol]     -18.94389923 [kJ/mol]
      Exch-Ind20,r                  4.20389505 [mEh]       2.63798397 [kcal/mol]      11.03732492 [kJ/mol]
      delta HF,r (2)               -2.26045496 [mEh]      -1.41845690 [kcal/mol]      -5.93482368 [kJ/mol]

    Dispersion                     -9.14300984 [mEh]      -5.73732529 [kcal/mol]     -24.00496903 [kJ/mol]
      Disp20                      -10.51287780 [mEh]      -6.59693042 [kcal/mol]     -27.60155686 [kJ/mol]
      Exch-Disp20                   1.36986796 [mEh]       0.85960512 [kcal/mol]       3.59658783 [kJ/mol]
      Disp20 (SS)                  -5.25643890 [mEh]      -3.29846521 [kcal/mol]     -13.80077843 [kJ/mol]
      Disp20 (OS)                  -5.25643890 [mEh]      -3.29846521 [kcal/mol]     -13.80077843 [kJ/mol]
      Exch-Disp20 (SS)              0.86918091 [mEh]       0.54541925 [kcal/mol]       2.28203416 [kJ/mol]
      Exch-Disp20 (OS)              0.50068705 [mEh]       0.31418587 [kcal/mol]       1.31455367 [kJ/mol]

  Total HF                         -4.21774893 [mEh]      -2.64667741 [kcal/mol]     -11.07369828 [kJ/mol]
  Total SAPT0                     -13.36075877 [mEh]      -8.38400270 [kcal/mol]     -35.07866731 [kJ/mol]

  Special recipe for scaled SAPT0 (see Manual):
    Electrostatics sSAPT0         -16.11690453 [mEh]     -10.11351028 [kcal/mol]     -42.31492700 [kJ/mol]
    Exchange sSAPT0                17.17106567 [mEh]      10.77500638 [kcal/mol]      45.08262671 [kJ/mol]
    Induction sSAPT0               -5.17592007 [mEh]      -3.24793888 [kcal/mol]     -13.58937628 [kJ/mol]
    Dispersion sSAPT0              -9.11173084 [mEh]      -5.71769743 [kcal/mol]     -23.92284603 [kJ/mol]
  Total sSAPT0                    -13.23348977 [mEh]      -8.30414020 [kcal/mol]     -34.74452261 [kJ/mol]
  --------------------------------------------------------------------------------------------------------

*** tstop() called on r282 at Fri Sep 10 12:13:52 2021
Module time:
	user time   =     208.95 seconds =       3.48 minutes
	system time =      30.04 seconds =       0.50 minutes
	total time  =        239 seconds =       3.98 minutes
Total time:
	user time   =     489.72 seconds =       8.16 minutes
	system time =      34.45 seconds =       0.57 minutes
	total time  =        525 seconds =       8.75 minutes

    Psi4 stopped on: Friday, 10 September 2021 12:13PM
    Psi4 wall time for execution: 0:08:44.84

*** Psi4 exiting successfully. Buy a developer a beer!
