
    -----------------------------------------------------------------------
          Psi4: An Open-Source Ab Initio Electronic Structure Package
                               Psi4 1.3.2 release

                         Git: Rev {HEAD} ecbda83 


    R. M. Parrish, L. A. Burns, D. G. A. Smith, A. C. Simmonett,
    A. E. DePrince III, E. G. Hohenstein, U. Bozkaya, A. Yu. Sokolov,
    R. Di Remigio, R. M. Richard, J. F. Gonthier, A. M. James,
    H. R. McAlexander, A. Kumar, M. Saitow, X. Wang, B. P. Pritchard,
    P. Verma, H. F. Schaefer III, K. Patkowski, R. A. King, E. F. Valeev,
    F. A. Evangelista, J. M. Turney, T. D. Crawford, and C. D. Sherrill,
    J. Chem. Theory Comput. 13(7) pp 3185--3197 (2017).
    (doi: 10.1021/acs.jctc.7b00174)


                         Additional Contributions by
    P. Kraus, H. Kruse, M. H. Lechner, M. C. Schieber, R. A. Shaw,
    A. Alenaizan, R. Galvelis, Z. L. Glick, S. Lehtola, and J. P. Misiewicz

    -----------------------------------------------------------------------


    Psi4 started on: Friday, 10 September 2021 08:09PM

    Process ID: 57057
    Host:       r282
    PSIDATADIR: /home/r08543048/miniconda3/share/psi4
    Memory:     500.0 MiB
    Threads:    1
    
  ==> Input File <==

--------------------------------------------------------------------------
# Any line starting with the # character is a comment line
#! Sample  computation

memory 22 gb

molecule Dimer {
0 1
 C 2.416505   -0.775445   -0.045405
 O 2.541447    0.489039   -0.483786
 O 1.500408   -1.195082    0.618781
 H 3.269936   -1.369035   -0.382390
 H 1.762132    0.977307   -0.166369











    
    
 --
0 1
 C   -2.587708   -1.275313   -0.358738
 H   -1.836606   -1.871213   -0.878543
 H   -3.270888   -0.870628   -1.106849
 H   -3.155677   -1.943667    0.287606
 C   -1.925542   -0.156924    0.435209
 H   -2.683256    0.412139    0.981081
 H   -1.249486   -0.583991    1.179495
 C   -1.133443    0.791819   -0.454463
 H   -1.797254    1.232770   -1.202873
 H   -0.387852    0.211965   -1.005382
 C   -0.455832    1.898761    0.344967
 H    0.180813    1.475131    1.125950
 H    0.144168    2.556296   -0.288318
 H   -1.194754    2.523880    0.847214





units angstrom

no_reorient
symmetry c1
}

set globals{
  basis jun-cc-pvtz
}

energy('sapt0')


--------------------------------------------------------------------------

  Memory set to  20.489 GiB by Python driver.

  //>>>>>>>>>>>>>>>>>>>>>>>>>>>>>>>>>>>//
  //              Dimer HF             //
  //<<<<<<<<<<<<<<<<<<<<<<<<<<<<<<<<<<<//


*** tstart() called on r282
*** at Fri Sep 10 20:09:15 2021

   => Loading Basis Set <=

    Name: JUN-CC-PVTZ
    Role: ORBITAL
    Keyword: BASIS
    atoms 1, 6, 10, 13, 16              entry C          line   217 file /home/r08543048/miniconda3/share/psi4/basis/jun-cc-pvtz.gbs 
    atoms 2-3                           entry O          line   305 file /home/r08543048/miniconda3/share/psi4/basis/jun-cc-pvtz.gbs 
    atoms 4-5, 7-9, 11-12, 14-15, 17-19 entry H          line    36 file /home/r08543048/miniconda3/share/psi4/basis/jun-cc-pvtz.gbs 


         ---------------------------------------------------------
                                   SCF
               by Justin Turney, Rob Parrish, Andy Simmonett
                          and Daniel G. A. Smith
                              RHF Reference
                        1 Threads,  20980 MiB Core
         ---------------------------------------------------------

  ==> Geometry <==

    Molecular point group: c1
    Full point group: C1

    Geometry (in Angstrom), charge = 0, multiplicity = 1:

       Center              X                  Y                   Z               Mass       
    ------------   -----------------  -----------------  -----------------  -----------------
         C            2.319292882204    -0.749256072981    -0.051207319909    12.000000000000
         O            2.444234882204     0.515227927019    -0.489588319909    15.994914619570
         O            1.403195882204    -1.168893072981     0.612978680091    15.994914619570
         H            3.172723882204    -1.342846072981    -0.388192319909     1.007825032230
         H            1.664919882204     1.003495927019    -0.172171319909     1.007825032230
         C           -2.684920117796    -1.249124072981    -0.364540319909    12.000000000000
         H           -1.933818117796    -1.845024072981    -0.884345319909     1.007825032230
         H           -3.368100117796    -0.844439072981    -1.112651319909     1.007825032230
         H           -3.252889117796    -1.917478072981     0.281803680091     1.007825032230
         C           -2.022754117796    -0.130735072981     0.429406680091    12.000000000000
         H           -2.780468117796     0.438327927019     0.975278680091     1.007825032230
         H           -1.346698117796    -0.557802072981     1.173692680091     1.007825032230
         C           -1.230655117796     0.818007927019    -0.460265319909    12.000000000000
         H           -1.894466117796     1.258958927019    -1.208675319909     1.007825032230
         H           -0.485064117796     0.238153927019    -1.011184319909     1.007825032230
         C           -0.553044117796     1.924949927019     0.339164680091    12.000000000000
         H            0.083600882204     1.501319927019     1.120147680091     1.007825032230
         H            0.046955882204     2.582484927019    -0.294120319909     1.007825032230
         H           -1.291966117796     2.550068927019     0.841411680091     1.007825032230

  Running in c1 symmetry.

  Rotational constants: A =      0.10575  B =      0.03922  C =      0.03146 [cm^-1]
  Rotational constants: A =   3170.41007  B =   1175.86645  C =    943.24523 [MHz]
  Nuclear repulsion =  308.093273254083442

  Charge       = 0
  Multiplicity = 1
  Electrons    = 58
  Nalpha       = 29
  Nbeta        = 29

  ==> Algorithm <==

  SCF Algorithm Type is DF.
  DIIS enabled.
  MOM disabled.
  Fractional occupation disabled.
  Guess Type is SAD.
  Energy threshold   = 1.00e-08
  Density threshold  = 1.00e-08
  Integral threshold = 0.00e+00

  ==> Primary Basis <==

  Basis Set: JUN-CC-PVTZ
    Blend: JUN-CC-PVTZ
    Number of shells: 163
    Number of basis function: 441
    Number of Cartesian functions: 495
    Spherical Harmonics?: true
    Max angular momentum: 3

   => Loading Basis Set <=

    Name: (JUN-CC-PVTZ AUX)
    Role: JKFIT
    Keyword: DF_BASIS_SCF
    atoms 1, 6, 10, 13, 16              entry C          line   152 file /home/r08543048/miniconda3/share/psi4/basis/jun-cc-pvtz-jkfit.gbs 
    atoms 2-3                           entry O          line   272 file /home/r08543048/miniconda3/share/psi4/basis/jun-cc-pvtz-jkfit.gbs 
    atoms 4-5, 7-9, 11-12, 14-15, 17-19 entry H          line    70 file /home/r08543048/miniconda3/share/psi4/basis/jun-cc-pvtz-jkfit.gbs 

  ==> Pre-Iterations <==

   -------------------------------------------------------
    Irrep   Nso     Nmo     Nalpha   Nbeta   Ndocc  Nsocc
   -------------------------------------------------------
     A        441     441       0       0       0       0
   -------------------------------------------------------
    Total     441     441      29      29      29       0
   -------------------------------------------------------

  ==> Integral Setup <==

  ==> DiskDFJK: Density-Fitted J/K Matrices <==

    J tasked:                  Yes
    K tasked:                  Yes
    wK tasked:                  No
    OpenMP threads:              1
    Integrals threads:           1
    Memory [MiB]:            15735
    Algorithm:                Core
    Integral Cache:           SAVE
    Schwarz Cutoff:          1E-12
    Fitting Condition:       1E-10

   => Auxiliary Basis Set <=

  Basis Set: (JUN-CC-PVTZ AUX)
    Blend: JUN-CC-PVTZ-JKFIT
    Number of shells: 323
    Number of basis function: 1025
    Number of Cartesian functions: 1232
    Spherical Harmonics?: true
    Max angular momentum: 4

  Minimum eigenvalue in the overlap matrix is 5.1150553084E-05.
  Using Symmetric Orthogonalization.

  SCF Guess: Superposition of Atomic Densities via on-the-fly atomic UHF.

  ==> Iterations <==

                           Total Energy        Delta E     RMS |[F,P]|

   @DF-RHF iter SAD:  -344.93715040152279   -3.44937e+02   0.00000e+00 
   @DF-RHF iter   1:  -345.88899766664179   -9.51847e-01   1.75060e-03 DIIS
   @DF-RHF iter   2:  -346.11386640411820   -2.24869e-01   1.02618e-03 DIIS
   @DF-RHF iter   3:  -346.19241765247477   -7.85512e-02   1.86523e-04 DIIS
   @DF-RHF iter   4:  -346.19647168983073   -4.05404e-03   8.67468e-05 DIIS
   @DF-RHF iter   5:  -346.19726834594667   -7.96656e-04   1.70744e-05 DIIS
   @DF-RHF iter   6:  -346.19732261291608   -5.42670e-05   7.89675e-06 DIIS
   @DF-RHF iter   7:  -346.19733443735510   -1.18244e-05   2.77085e-06 DIIS
   @DF-RHF iter   8:  -346.19733671747190   -2.28012e-06   1.12986e-06 DIIS
   @DF-RHF iter   9:  -346.19733707609413   -3.58622e-07   3.24146e-07 DIIS
   @DF-RHF iter  10:  -346.19733710321754   -2.71234e-08   9.12841e-08 DIIS
   @DF-RHF iter  11:  -346.19733710521626   -1.99873e-09   2.83279e-08 DIIS
   @DF-RHF iter  12:  -346.19733710539242   -1.76158e-10   6.75831e-09 DIIS
  Energy and wave function converged.


  ==> Post-Iterations <==

    Orbital Energies [Eh]
    ---------------------

    Doubly Occupied:                                                      

       1A    -20.626460     2A    -20.566694     3A    -11.397433  
       4A    -11.219339     5A    -11.216182     6A    -11.208467  
       7A    -11.203195     8A     -1.474757     9A     -1.375143  
      10A     -1.073249    11A     -0.983653    12A     -0.896378  
      13A     -0.863179    14A     -0.788119    15A     -0.723704  
      16A     -0.713627    17A     -0.645057    18A     -0.634308  
      19A     -0.603066    20A     -0.588962    21A     -0.577298  
      22A     -0.568472    23A     -0.517601    24A     -0.497590  
      25A     -0.494818    26A     -0.475791    27A     -0.468192  
      28A     -0.461206    29A     -0.457138  

    Virtual:                                                              

      30A      0.050066    31A      0.053319    32A      0.059534  
      33A      0.061799    34A      0.076296    35A      0.080069  
      36A      0.085368    37A      0.088740    38A      0.094735  
      39A      0.110539    40A      0.115601    41A      0.121830  
      42A      0.124658    43A      0.134265    44A      0.137711  
      45A      0.159430    46A      0.175701    47A      0.180365  
      48A      0.188753    49A      0.190616    50A      0.197750  
      51A      0.204631    52A      0.216846    53A      0.226368  
      54A      0.234289    55A      0.242566    56A      0.254196  
      57A      0.255860    58A      0.264477    59A      0.273210  
      60A      0.277176    61A      0.290052    62A      0.296588  
      63A      0.306318    64A      0.310624    65A      0.315680  
      66A      0.318525    67A      0.325810    68A      0.329847  
      69A      0.343103    70A      0.348597    71A      0.353968  
      72A      0.365609    73A      0.367100    74A      0.381235  
      75A      0.386596    76A      0.388974    77A      0.401991  
      78A      0.409759    79A      0.416552    80A      0.425257  
      81A      0.433742    82A      0.444758    83A      0.450769  
      84A      0.471361    85A      0.473645    86A      0.491184  
      87A      0.497098    88A      0.502771    89A      0.520437  
      90A      0.525737    91A      0.531323    92A      0.535580  
      93A      0.544880    94A      0.554316    95A      0.560789  
      96A      0.574115    97A      0.580808    98A      0.589327  
      99A      0.595081   100A      0.611706   101A      0.621195  
     102A      0.644556   103A      0.658274   104A      0.670433  
     105A      0.674766   106A      0.698683   107A      0.712919  
     108A      0.717653   109A      0.727160   110A      0.738119  
     111A      0.741766   112A      0.749235   113A      0.765117  
     114A      0.781229   115A      0.794495   116A      0.800975  
     117A      0.809112   118A      0.816965   119A      0.827328  
     120A      0.834058   121A      0.838448   122A      0.845997  
     123A      0.860501   124A      0.865263   125A      0.874403  
     126A      0.876792   127A      0.891017   128A      0.901437  
     129A      0.905810   130A      0.920038   131A      0.928929  
     132A      0.947585   133A      0.958198   134A      0.959096  
     135A      0.978971   136A      0.995873   137A      1.007597  
     138A      1.019012   139A      1.043161   140A      1.058877  
     141A      1.070154   142A      1.075669   143A      1.087454  
     144A      1.123802   145A      1.137444   146A      1.163246  
     147A      1.171260   148A      1.181217   149A      1.193336  
     150A      1.216887   151A      1.221322   152A      1.228873  
     153A      1.247051   154A      1.252678   155A      1.259988  
     156A      1.289077   157A      1.294716   158A      1.301404  
     159A      1.318690   160A      1.325766   161A      1.344891  
     162A      1.348849   163A      1.372408   164A      1.377402  
     165A      1.387057   166A      1.390184   167A      1.400045  
     168A      1.413119   169A      1.436102   170A      1.447269  
     171A      1.452148   172A      1.473610   173A      1.492431  
     174A      1.497751   175A      1.503995   176A      1.510411  
     177A      1.536675   178A      1.545443   179A      1.551915  
     180A      1.572796   181A      1.585390   182A      1.598453  
     183A      1.613223   184A      1.623133   185A      1.625969  
     186A      1.644771   187A      1.663422   188A      1.676827  
     189A      1.686764   190A      1.707904   191A      1.721234  
     192A      1.729080   193A      1.742260   194A      1.767806  
     195A      1.775087   196A      1.815407   197A      1.846319  
     198A      1.856690   199A      1.874453   200A      1.894653  
     201A      1.907083   202A      1.914731   203A      1.937060  
     204A      1.960304   205A      1.973713   206A      2.017469  
     207A      2.055939   208A      2.062677   209A      2.103437  
     210A      2.180698   211A      2.185990   212A      2.211192  
     213A      2.294786   214A      2.310586   215A      2.354046  
     216A      2.415573   217A      2.423213   218A      2.486610  
     219A      2.576166   220A      2.605879   221A      2.673619  
     222A      2.735905   223A      2.746601   224A      2.755616  
     225A      2.798581   226A      2.822261   227A      2.857577  
     228A      2.864910   229A      2.870457   230A      2.888988  
     231A      2.893887   232A      2.925127   233A      2.934529  
     234A      2.961660   235A      2.995511   236A      3.019351  
     237A      3.035901   238A      3.085119   239A      3.105760  
     240A      3.109372   241A      3.125967   242A      3.135824  
     243A      3.137636   244A      3.141480   245A      3.156902  
     246A      3.165111   247A      3.195344   248A      3.229051  
     249A      3.244603   250A      3.273626   251A      3.279595  
     252A      3.294185   253A      3.306883   254A      3.310093  
     255A      3.329661   256A      3.337692   257A      3.346637  
     258A      3.382312   259A      3.401807   260A      3.403293  
     261A      3.406181   262A      3.418152   263A      3.436809  
     264A      3.458847   265A      3.462628   266A      3.473279  
     267A      3.478989   268A      3.487118   269A      3.491820  
     270A      3.500634   271A      3.505474   272A      3.530087  
     273A      3.532681   274A      3.552758   275A      3.570472  
     276A      3.575304   277A      3.586651   278A      3.589224  
     279A      3.613094   280A      3.634826   281A      3.647307  
     282A      3.656013   283A      3.662327   284A      3.663035  
     285A      3.682431   286A      3.711600   287A      3.732402  
     288A      3.747504   289A      3.761191   290A      3.785768  
     291A      3.802728   292A      3.818210   293A      3.829376  
     294A      3.844328   295A      3.865945   296A      3.875708  
     297A      3.893250   298A      3.917439   299A      3.924497  
     300A      3.938259   301A      3.945210   302A      3.955243  
     303A      3.964248   304A      3.975623   305A      3.982499  
     306A      4.000804   307A      4.011184   308A      4.040283  
     309A      4.076918   310A      4.151940   311A      4.163138  
     312A      4.171619   313A      4.187973   314A      4.206717  
     315A      4.230626   316A      4.248571   317A      4.257893  
     318A      4.264863   319A      4.280448   320A      4.283803  
     321A      4.296758   322A      4.307464   323A      4.320048  
     324A      4.348415   325A      4.350499   326A      4.370190  
     327A      4.377701   328A      4.392177   329A      4.411032  
     330A      4.417227   331A      4.445783   332A      4.456303  
     333A      4.471933   334A      4.496414   335A      4.507657  
     336A      4.526519   337A      4.536192   338A      4.538670  
     339A      4.549377   340A      4.572640   341A      4.578392  
     342A      4.614420   343A      4.625981   344A      4.638340  
     345A      4.645598   346A      4.656697   347A      4.684157  
     348A      4.702462   349A      4.716260   350A      4.737542  
     351A      4.745194   352A      4.762448   353A      4.797693  
     354A      4.830911   355A      4.842326   356A      4.900903  
     357A      4.905570   358A      4.920104   359A      4.956306  
     360A      5.031086   361A      5.039417   362A      5.048142  
     363A      5.067902   364A      5.119390   365A      5.125422  
     366A      5.135546   367A      5.155411   368A      5.173111  
     369A      5.221790   370A      5.250529   371A      5.258999  
     372A      5.279042   373A      5.291987   374A      5.307692  
     375A      5.317502   376A      5.347215   377A      5.357264  
     378A      5.369669   379A      5.373732   380A      5.429764  
     381A      5.434395   382A      5.463312   383A      5.531017  
     384A      5.561326   385A      5.616406   386A      5.625664  
     387A      5.645891   388A      5.652198   389A      5.660220  
     390A      5.675193   391A      5.742674   392A      5.753477  
     393A      5.775574   394A      5.780663   395A      5.795659  
     396A      5.803804   397A      5.846183   398A      5.873875  
     399A      5.894852   400A      5.907722   401A      5.915756  
     402A      5.953619   403A      5.962924   404A      5.983539  
     405A      5.991946   406A      6.053255   407A      6.081042  
     408A      6.189700   409A      6.200291   410A      6.249904  
     411A      6.478273   412A      6.494470   413A      6.513648  
     414A      6.540585   415A      6.544971   416A      6.574322  
     417A      6.629210   418A      6.758417   419A      6.824630  
     420A      6.935636   421A      6.999620   422A      7.140630  
     423A      7.176720   424A      7.221711   425A      7.241878  
     426A      7.316532   427A      7.353779   428A      7.425629  
     429A      7.473459   430A      7.586758   431A      7.711760  
     432A      7.772141   433A      7.948635   434A      8.128621  
     435A     12.603868   436A     13.700547   437A     13.771127  
     438A     14.282156   439A     14.517649   440A     14.654001  
     441A     14.794513  

    Final Occupation by Irrep:
              A 
    DOCC [    29 ]

  @DF-RHF Final Energy:  -346.19733710539242

   => Energetics <=

    Nuclear Repulsion Energy =            308.0932732540834422
    One-Electron Energy =               -1081.9430636176173266
    Two-Electron Energy =                 427.6524532581414633
    Total Energy =                       -346.1973371053924211

Computation Completed


Properties will be evaluated at   0.000000,   0.000000,   0.000000 [a0]

Properties computed using the SCF density matrix

  Nuclear Dipole Moment: [e a0]
     X:   -10.6549      Y:     2.8704      Z:    -0.6360

  Electronic Dipole Moment: [e a0]
     X:    10.9588      Y:    -2.5078      Z:     0.3412

  Dipole Moment: [e a0]
     X:     0.3040      Y:     0.3626      Z:    -0.2948     Total:     0.5575

  Dipole Moment: [D]
     X:     0.7726      Y:     0.9216      Z:    -0.7492     Total:     1.4169


*** tstop() called on r282 at Fri Sep 10 20:09:57 2021
Module time:
	user time   =      40.84 seconds =       0.68 minutes
	system time =       1.01 seconds =       0.02 minutes
	total time  =         42 seconds =       0.70 minutes
Total time:
	user time   =      40.84 seconds =       0.68 minutes
	system time =       1.01 seconds =       0.02 minutes
	total time  =         42 seconds =       0.70 minutes

  //>>>>>>>>>>>>>>>>>>>>>>>>>>>>>>>>>>>//
  //            Monomer A HF           //
  //<<<<<<<<<<<<<<<<<<<<<<<<<<<<<<<<<<<//


*** tstart() called on r282
*** at Fri Sep 10 20:09:57 2021

   => Loading Basis Set <=

    Name: JUN-CC-PVTZ
    Role: ORBITAL
    Keyword: BASIS
    atoms 1, 6, 10, 13, 16              entry C          line   217 file /home/r08543048/miniconda3/share/psi4/basis/jun-cc-pvtz.gbs 
    atoms 2-3                           entry O          line   305 file /home/r08543048/miniconda3/share/psi4/basis/jun-cc-pvtz.gbs 
    atoms 4-5, 7-9, 11-12, 14-15, 17-19 entry H          line    36 file /home/r08543048/miniconda3/share/psi4/basis/jun-cc-pvtz.gbs 


         ---------------------------------------------------------
                                   SCF
               by Justin Turney, Rob Parrish, Andy Simmonett
                          and Daniel G. A. Smith
                              RHF Reference
                        1 Threads,  20980 MiB Core
         ---------------------------------------------------------

  ==> Geometry <==

    Molecular point group: c1
    Full point group: C1

    Geometry (in Angstrom), charge = 0, multiplicity = 1:

       Center              X                  Y                   Z               Mass       
    ------------   -----------------  -----------------  -----------------  -----------------
         C            2.319292882204    -0.749256072981    -0.051207319909    12.000000000000
         O            2.444234882204     0.515227927019    -0.489588319909    15.994914619570
         O            1.403195882204    -1.168893072981     0.612978680091    15.994914619570
         H            3.172723882204    -1.342846072981    -0.388192319909     1.007825032230
         H            1.664919882204     1.003495927019    -0.172171319909     1.007825032230
      Gh(C)          -2.684920117796    -1.249124072981    -0.364540319909    12.000000000000
      Gh(H)          -1.933818117796    -1.845024072981    -0.884345319909     1.007825032230
      Gh(H)          -3.368100117796    -0.844439072981    -1.112651319909     1.007825032230
      Gh(H)          -3.252889117796    -1.917478072981     0.281803680091     1.007825032230
      Gh(C)          -2.022754117796    -0.130735072981     0.429406680091    12.000000000000
      Gh(H)          -2.780468117796     0.438327927019     0.975278680091     1.007825032230
      Gh(H)          -1.346698117796    -0.557802072981     1.173692680091     1.007825032230
      Gh(C)          -1.230655117796     0.818007927019    -0.460265319909    12.000000000000
      Gh(H)          -1.894466117796     1.258958927019    -1.208675319909     1.007825032230
      Gh(H)          -0.485064117796     0.238153927019    -1.011184319909     1.007825032230
      Gh(C)          -0.553044117796     1.924949927019     0.339164680091    12.000000000000
      Gh(H)           0.083600882204     1.501319927019     1.120147680091     1.007825032230
      Gh(H)           0.046955882204     2.582484927019    -0.294120319909     1.007825032230
      Gh(H)          -1.291966117796     2.550068927019     0.841411680091     1.007825032230

  Running in c1 symmetry.

  Rotational constants: A =      0.10575  B =      0.03922  C =      0.03146 [cm^-1]
  Rotational constants: A =   3170.41007  B =   1175.86645  C =    943.24523 [MHz]
  Nuclear repulsion =   70.042497724035755

  Charge       = 0
  Multiplicity = 1
  Electrons    = 24
  Nalpha       = 12
  Nbeta        = 12

  ==> Algorithm <==

  SCF Algorithm Type is DF.
  DIIS enabled.
  MOM disabled.
  Fractional occupation disabled.
  Guess Type is SAD.
  Energy threshold   = 1.00e-08
  Density threshold  = 1.00e-08
  Integral threshold = 0.00e+00

  ==> Primary Basis <==

  Basis Set: JUN-CC-PVTZ
    Blend: JUN-CC-PVTZ
    Number of shells: 163
    Number of basis function: 441
    Number of Cartesian functions: 495
    Spherical Harmonics?: true
    Max angular momentum: 3

   => Loading Basis Set <=

    Name: (JUN-CC-PVTZ AUX)
    Role: JKFIT
    Keyword: DF_BASIS_SCF
    atoms 1, 6, 10, 13, 16              entry C          line   152 file /home/r08543048/miniconda3/share/psi4/basis/jun-cc-pvtz-jkfit.gbs 
    atoms 2-3                           entry O          line   272 file /home/r08543048/miniconda3/share/psi4/basis/jun-cc-pvtz-jkfit.gbs 
    atoms 4-5, 7-9, 11-12, 14-15, 17-19 entry H          line    70 file /home/r08543048/miniconda3/share/psi4/basis/jun-cc-pvtz-jkfit.gbs 

  ==> Pre-Iterations <==

   -------------------------------------------------------
    Irrep   Nso     Nmo     Nalpha   Nbeta   Ndocc  Nsocc
   -------------------------------------------------------
     A        441     441       0       0       0       0
   -------------------------------------------------------
    Total     441     441      12      12      12       0
   -------------------------------------------------------

  ==> Integral Setup <==

  ==> DiskDFJK: Density-Fitted J/K Matrices <==

    J tasked:                  Yes
    K tasked:                  Yes
    wK tasked:                  No
    OpenMP threads:              1
    Integrals threads:           1
    Memory [MiB]:            15735
    Algorithm:                Core
    Integral Cache:           LOAD
    Schwarz Cutoff:          1E-12
    Fitting Condition:       1E-10

   => Auxiliary Basis Set <=

  Basis Set: (JUN-CC-PVTZ AUX)
    Blend: JUN-CC-PVTZ-JKFIT
    Number of shells: 323
    Number of basis function: 1025
    Number of Cartesian functions: 1232
    Spherical Harmonics?: true
    Max angular momentum: 4

  Minimum eigenvalue in the overlap matrix is 5.1150553084E-05.
  Using Symmetric Orthogonalization.

  SCF Guess: Superposition of Atomic Densities via on-the-fly atomic UHF.

  ==> Iterations <==

                           Total Energy        Delta E     RMS |[F,P]|

   @DF-RHF iter SAD:  -188.00128183491955   -1.88001e+02   0.00000e+00 
   @DF-RHF iter   1:  -188.73652243343429   -7.35241e-01   1.18923e-03 DIIS
   @DF-RHF iter   2:  -188.79851844371191   -6.19960e-02   8.40633e-04 DIIS
   @DF-RHF iter   3:  -188.84150620909949   -4.29878e-02   9.57299e-05 DIIS
   @DF-RHF iter   4:  -188.84257340848734   -1.06720e-03   5.15471e-05 DIIS
   @DF-RHF iter   5:  -188.84283954857159   -2.66140e-04   1.26379e-05 DIIS
   @DF-RHF iter   6:  -188.84288173604915   -4.21875e-05   5.55712e-06 DIIS
   @DF-RHF iter   7:  -188.84289134414496   -9.60810e-06   1.93658e-06 DIIS
   @DF-RHF iter   8:  -188.84289235283453   -1.00869e-06   5.70542e-07 DIIS
   @DF-RHF iter   9:  -188.84289243955226   -8.67177e-08   1.64569e-07 DIIS
   @DF-RHF iter  10:  -188.84289244667701   -7.12475e-09   3.81095e-08 DIIS
   @DF-RHF iter  11:  -188.84289244701750   -3.40492e-10   6.71441e-09 DIIS
  Energy and wave function converged.


  ==> Post-Iterations <==

    Orbital Energies [Eh]
    ---------------------

    Doubly Occupied:                                                      

       1A    -20.631179     2A    -20.568542     3A    -11.398902  
       4A     -1.477327     5A     -1.376815     6A     -0.898423  
       7A     -0.725791     8A     -0.714203     9A     -0.638504  
      10A     -0.605860    11A     -0.497215    12A     -0.475262  

    Virtual:                                                              

      13A      0.028781    14A      0.042998    15A      0.053380  
      16A      0.059120    17A      0.070346    18A      0.077570  
      19A      0.080391    20A      0.083757    21A      0.088495  
      22A      0.106066    23A      0.108656    24A      0.118158  
      25A      0.122115    26A      0.122749    27A      0.129165  
      28A      0.135280    29A      0.144837    30A      0.162704  
      31A      0.170262    32A      0.177288    33A      0.182237  
      34A      0.189114    35A      0.201970    36A      0.209972  
      37A      0.221876    38A      0.236493    39A      0.237466  
      40A      0.247017    41A      0.259963    42A      0.268253  
      43A      0.268995    44A      0.282357    45A      0.285168  
      46A      0.292622    47A      0.307509    48A      0.314087  
      49A      0.317725    50A      0.323697    51A      0.335336  
      52A      0.340661    53A      0.350401    54A      0.357102  
      55A      0.367054    56A      0.369309    57A      0.376440  
      58A      0.381815    59A      0.396140    60A      0.414279  
      61A      0.416305    62A      0.433907    63A      0.437509  
      64A      0.451096    65A      0.455781    66A      0.465419  
      67A      0.474402    68A      0.481674    69A      0.498356  
      70A      0.503627    71A      0.511366    72A      0.515289  
      73A      0.519693    74A      0.536765    75A      0.546484  
      76A      0.551503    77A      0.556734    78A      0.580492  
      79A      0.587965    80A      0.590856    81A      0.599172  
      82A      0.609638    83A      0.613686    84A      0.626521  
      85A      0.630457    86A      0.639032    87A      0.649737  
      88A      0.656750    89A      0.668175    90A      0.676036  
      91A      0.680052    92A      0.683766    93A      0.697612  
      94A      0.709482    95A      0.725896    96A      0.732061  
      97A      0.756741    98A      0.760751    99A      0.784583  
     100A      0.798532   101A      0.804247   102A      0.817014  
     103A      0.838837   104A      0.869809   105A      0.885519  
     106A      0.890824   107A      0.924882   108A      0.950141  
     109A      0.990633   110A      1.009584   111A      1.029597  
     112A      1.051832   113A      1.057475   114A      1.061592  
     115A      1.083180   116A      1.092226   117A      1.101840  
     118A      1.121895   119A      1.128662   120A      1.143478  
     121A      1.153006   122A      1.161610   123A      1.171561  
     124A      1.190704   125A      1.199784   126A      1.205396  
     127A      1.214476   128A      1.228065   129A      1.231983  
     130A      1.235528   131A      1.242051   132A      1.249538  
     133A      1.260479   134A      1.267564   135A      1.287468  
     136A      1.293479   137A      1.308406   138A      1.313897  
     139A      1.319989   140A      1.326061   141A      1.335964  
     142A      1.347475   143A      1.351130   144A      1.364041  
     145A      1.373164   146A      1.376708   147A      1.401758  
     148A      1.405940   149A      1.414459   150A      1.422570  
     151A      1.444357   152A      1.454770   153A      1.458894  
     154A      1.474027   155A      1.481162   156A      1.494576  
     157A      1.518252   158A      1.534346   159A      1.536985  
     160A      1.552613   161A      1.565204   162A      1.582477  
     163A      1.587008   164A      1.594540   165A      1.602122  
     166A      1.621394   167A      1.625767   168A      1.638378  
     169A      1.663227   170A      1.687377   171A      1.724707  
     172A      1.734216   173A      1.743183   174A      1.767328  
     175A      1.798650   176A      1.807621   177A      1.825248  
     178A      1.840252   179A      1.851827   180A      1.877120  
     181A      1.888986   182A      1.937804   183A      1.968402  
     184A      1.981321   185A      2.026694   186A      2.086496  
     187A      2.096556   188A      2.106727   189A      2.129587  
     190A      2.155435   191A      2.175406   192A      2.188526  
     193A      2.211387   194A      2.225136   195A      2.229445  
     196A      2.273086   197A      2.307027   198A      2.320958  
     199A      2.328586   200A      2.357719   201A      2.369929  
     202A      2.374056   203A      2.408294   204A      2.429387  
     205A      2.437004   206A      2.441372   207A      2.475735  
     208A      2.498348   209A      2.507938   210A      2.526242  
     211A      2.589939   212A      2.612947   213A      2.631113  
     214A      2.644053   215A      2.660254   216A      2.671623  
     217A      2.711715   218A      2.752614   219A      2.894622  
     220A      3.110311   221A      3.122301   222A      3.241871  
     223A      3.309328   224A      3.347230   225A      3.409831  
     226A      3.468808   227A      3.477713   228A      3.498477  
     229A      3.522420   230A      3.523796   231A      3.543650  
     232A      3.560884   233A      3.569483   234A      3.573386  
     235A      3.581655   236A      3.592403   237A      3.606152  
     238A      3.618605   239A      3.628872   240A      3.637850  
     241A      3.647455   242A      3.660850   243A      3.683618  
     244A      3.724652   245A      3.744444   246A      3.774580  
     247A      3.779751   248A      3.800167   249A      3.811460  
     250A      3.816423   251A      3.832540   252A      3.847946  
     253A      3.854564   254A      3.864543   255A      3.869907  
     256A      3.887952   257A      3.896744   258A      3.908988  
     259A      3.920172   260A      3.927800   261A      3.930868  
     262A      3.949190   263A      3.975205   264A      3.983926  
     265A      4.001667   266A      4.061145   267A      4.073595  
     268A      4.083100   269A      4.118276   270A      4.130291  
     271A      4.159111   272A      4.168505   273A      4.180384  
     274A      4.223787   275A      4.236977   276A      4.252869  
     277A      4.259953   278A      4.266384   279A      4.303249  
     280A      4.323340   281A      4.337318   282A      4.360184  
     283A      4.377811   284A      4.384423   285A      4.393958  
     286A      4.416037   287A      4.464971   288A      4.478487  
     289A      4.483271   290A      4.494838   291A      4.510789  
     292A      4.541701   293A      4.547162   294A      4.554297  
     295A      4.564344   296A      4.579232   297A      4.598142  
     298A      4.601897   299A      4.615227   300A      4.635625  
     301A      4.647927   302A      4.662324   303A      4.666740  
     304A      4.684761   305A      4.701947   306A      4.723092  
     307A      4.728417   308A      4.731747   309A      4.745342  
     310A      4.756582   311A      4.771187   312A      4.778217  
     313A      4.784127   314A      4.789988   315A      4.820706  
     316A      4.825085   317A      4.848817   318A      4.859897  
     319A      4.866450   320A      4.885656   321A      4.894309  
     322A      4.897158   323A      4.907004   324A      4.926111  
     325A      4.933955   326A      4.940906   327A      4.951144  
     328A      4.965942   329A      4.975698   330A      4.983022  
     331A      4.989574   332A      5.007442   333A      5.022490  
     334A      5.040406   335A      5.042487   336A      5.049760  
     337A      5.061956   338A      5.079565   339A      5.122862  
     340A      5.148599   341A      5.177398   342A      5.200222  
     343A      5.208660   344A      5.214716   345A      5.250605  
     346A      5.270725   347A      5.291120   348A      5.334529  
     349A      5.351236   350A      5.365371   351A      5.387199  
     352A      5.443248   353A      5.485656   354A      5.505305  
     355A      5.548672   356A      5.564932   357A      5.604296  
     358A      5.638151   359A      5.643758   360A      5.661567  
     361A      5.666587   362A      5.685672   363A      5.779287  
     364A      5.783209   365A      5.805417   366A      5.827141  
     367A      5.872279   368A      5.898525   369A      5.913910  
     370A      5.946595   371A      6.020884   372A      6.024926  
     373A      6.049837   374A      6.060131   375A      6.081888  
     376A      6.137885   377A      6.192787   378A      6.248237  
     379A      6.249405   380A      6.307768   381A      6.335223  
     382A      6.370500   383A      6.388930   384A      6.393993  
     385A      6.429962   386A      6.467897   387A      6.471376  
     388A      6.488656   389A      6.516493   390A      6.547903  
     391A      6.742099   392A      6.754309   393A      6.784500  
     394A      6.809450   395A      6.820578   396A      6.929574  
     397A      6.945000   398A      6.988851   399A      7.049784  
     400A      7.130452   401A      7.172742   402A      7.219128  
     403A      7.237957   404A      7.276526   405A      7.313826  
     406A      7.349019   407A      7.423997   408A      7.466761  
     409A      7.506864   410A      7.533449   411A      7.567277  
     412A      7.580837   413A      7.591064   414A      7.608785  
     415A      7.662367   416A      7.705889   417A      7.710569  
     418A      7.744479   419A      7.769823   420A      7.797257  
     421A      7.818370   422A      7.837660   423A      7.923705  
     424A      7.928322   425A      7.964432   426A      8.111205  
     427A      8.135924   428A      8.280709   429A      8.450105  
     430A      8.639335   431A      9.601162   432A      9.684827  
     433A      9.883031   434A      9.985634   435A     12.612851  
     436A     13.744385   437A     14.643430   438A     43.846542  
     439A     45.461907   440A     45.537921   441A     45.910658  

    Final Occupation by Irrep:
              A 
    DOCC [    12 ]

  @DF-RHF Final Energy:  -188.84289244701750

   => Energetics <=

    Nuclear Repulsion Energy =             70.0424977240357549
    One-Electron Energy =                -397.7547317410296728
    Two-Electron Energy =                 138.8693415699764273
    Total Energy =                       -188.8428924470175048

Computation Completed


Properties will be evaluated at   0.000000,   0.000000,   0.000000 [a0]

Properties computed using the SCF density matrix

  Nuclear Dipole Moment: [e a0]
     X:    93.6035      Y:   -19.0186      Z:     0.2259

  Electronic Dipole Moment: [e a0]
     X:   -93.1948      Y:    19.4449      Z:    -0.5938

  Dipole Moment: [e a0]
     X:     0.4087      Y:     0.4263      Z:    -0.3680     Total:     0.6958

  Dipole Moment: [D]
     X:     1.0389      Y:     1.0835      Z:    -0.9353     Total:     1.7687


*** tstop() called on r282 at Fri Sep 10 20:10:19 2021
Module time:
	user time   =      20.90 seconds =       0.35 minutes
	system time =       0.45 seconds =       0.01 minutes
	total time  =         22 seconds =       0.37 minutes
Total time:
	user time   =      61.75 seconds =       1.03 minutes
	system time =       1.46 seconds =       0.02 minutes
	total time  =         64 seconds =       1.07 minutes

  //>>>>>>>>>>>>>>>>>>>>>>>>>>>>>>>>>>>//
  //            Monomer B HF           //
  //<<<<<<<<<<<<<<<<<<<<<<<<<<<<<<<<<<<//


*** tstart() called on r282
*** at Fri Sep 10 20:10:19 2021

   => Loading Basis Set <=

    Name: JUN-CC-PVTZ
    Role: ORBITAL
    Keyword: BASIS
    atoms 1, 6, 10, 13, 16              entry C          line   217 file /home/r08543048/miniconda3/share/psi4/basis/jun-cc-pvtz.gbs 
    atoms 2-3                           entry O          line   305 file /home/r08543048/miniconda3/share/psi4/basis/jun-cc-pvtz.gbs 
    atoms 4-5, 7-9, 11-12, 14-15, 17-19 entry H          line    36 file /home/r08543048/miniconda3/share/psi4/basis/jun-cc-pvtz.gbs 


         ---------------------------------------------------------
                                   SCF
               by Justin Turney, Rob Parrish, Andy Simmonett
                          and Daniel G. A. Smith
                              RHF Reference
                        1 Threads,  20980 MiB Core
         ---------------------------------------------------------

  ==> Geometry <==

    Molecular point group: c1
    Full point group: C1

    Geometry (in Angstrom), charge = 0, multiplicity = 1:

       Center              X                  Y                   Z               Mass       
    ------------   -----------------  -----------------  -----------------  -----------------
      Gh(C)           2.319292882204    -0.749256072981    -0.051207319909    12.000000000000
      Gh(O)           2.444234882204     0.515227927019    -0.489588319909    15.994914619570
      Gh(O)           1.403195882204    -1.168893072981     0.612978680091    15.994914619570
      Gh(H)           3.172723882204    -1.342846072981    -0.388192319909     1.007825032230
      Gh(H)           1.664919882204     1.003495927019    -0.172171319909     1.007825032230
         C           -2.684920117796    -1.249124072981    -0.364540319909    12.000000000000
         H           -1.933818117796    -1.845024072981    -0.884345319909     1.007825032230
         H           -3.368100117796    -0.844439072981    -1.112651319909     1.007825032230
         H           -3.252889117796    -1.917478072981     0.281803680091     1.007825032230
         C           -2.022754117796    -0.130735072981     0.429406680091    12.000000000000
         H           -2.780468117796     0.438327927019     0.975278680091     1.007825032230
         H           -1.346698117796    -0.557802072981     1.173692680091     1.007825032230
         C           -1.230655117796     0.818007927019    -0.460265319909    12.000000000000
         H           -1.894466117796     1.258958927019    -1.208675319909     1.007825032230
         H           -0.485064117796     0.238153927019    -1.011184319909     1.007825032230
         C           -0.553044117796     1.924949927019     0.339164680091    12.000000000000
         H            0.083600882204     1.501319927019     1.120147680091     1.007825032230
         H            0.046955882204     2.582484927019    -0.294120319909     1.007825032230
         H           -1.291966117796     2.550068927019     0.841411680091     1.007825032230

  Running in c1 symmetry.

  Rotational constants: A =      0.10575  B =      0.03922  C =      0.03146 [cm^-1]
  Rotational constants: A =   3170.41007  B =   1175.86645  C =    943.24523 [MHz]
  Nuclear repulsion =  131.154452141845411

  Charge       = 0
  Multiplicity = 1
  Electrons    = 34
  Nalpha       = 17
  Nbeta        = 17

  ==> Algorithm <==

  SCF Algorithm Type is DF.
  DIIS enabled.
  MOM disabled.
  Fractional occupation disabled.
  Guess Type is SAD.
  Energy threshold   = 1.00e-08
  Density threshold  = 1.00e-08
  Integral threshold = 0.00e+00

  ==> Primary Basis <==

  Basis Set: JUN-CC-PVTZ
    Blend: JUN-CC-PVTZ
    Number of shells: 163
    Number of basis function: 441
    Number of Cartesian functions: 495
    Spherical Harmonics?: true
    Max angular momentum: 3

   => Loading Basis Set <=

    Name: (JUN-CC-PVTZ AUX)
    Role: JKFIT
    Keyword: DF_BASIS_SCF
    atoms 1, 6, 10, 13, 16              entry C          line   152 file /home/r08543048/miniconda3/share/psi4/basis/jun-cc-pvtz-jkfit.gbs 
    atoms 2-3                           entry O          line   272 file /home/r08543048/miniconda3/share/psi4/basis/jun-cc-pvtz-jkfit.gbs 
    atoms 4-5, 7-9, 11-12, 14-15, 17-19 entry H          line    70 file /home/r08543048/miniconda3/share/psi4/basis/jun-cc-pvtz-jkfit.gbs 

  ==> Pre-Iterations <==

   -------------------------------------------------------
    Irrep   Nso     Nmo     Nalpha   Nbeta   Ndocc  Nsocc
   -------------------------------------------------------
     A        441     441       0       0       0       0
   -------------------------------------------------------
    Total     441     441      17      17      17       0
   -------------------------------------------------------

  ==> Integral Setup <==

  ==> DiskDFJK: Density-Fitted J/K Matrices <==

    J tasked:                  Yes
    K tasked:                  Yes
    wK tasked:                  No
    OpenMP threads:              1
    Integrals threads:           1
    Memory [MiB]:            15735
    Algorithm:                Core
    Integral Cache:           LOAD
    Schwarz Cutoff:          1E-12
    Fitting Condition:       1E-10

   => Auxiliary Basis Set <=

  Basis Set: (JUN-CC-PVTZ AUX)
    Blend: JUN-CC-PVTZ-JKFIT
    Number of shells: 323
    Number of basis function: 1025
    Number of Cartesian functions: 1232
    Spherical Harmonics?: true
    Max angular momentum: 4

  Minimum eigenvalue in the overlap matrix is 5.1150553084E-05.
  Using Symmetric Orthogonalization.

  SCF Guess: Superposition of Atomic Densities via on-the-fly atomic UHF.

  ==> Iterations <==

                           Total Energy        Delta E     RMS |[F,P]|

   @DF-RHF iter SAD:  -156.79776608793702   -1.56798e+02   0.00000e+00 
   @DF-RHF iter   1:  -157.14937908523365   -3.51613e-01   1.30770e-03 DIIS
   @DF-RHF iter   2:  -157.31585171115123   -1.66473e-01   6.08381e-04 DIIS
   @DF-RHF iter   3:  -157.35319500188766   -3.73433e-02   1.07138e-04 DIIS
   @DF-RHF iter   4:  -157.35558894307471   -2.39394e-03   2.49338e-05 DIIS
   @DF-RHF iter   5:  -157.35568024000352   -9.12969e-05   6.46246e-06 DIIS
   @DF-RHF iter   6:  -157.35568788183832   -7.64183e-06   8.07105e-07 DIIS
   @DF-RHF iter   7:  -157.35568806075293   -1.78915e-07   1.41603e-07 DIIS
   @DF-RHF iter   8:  -157.35568806567076   -4.91784e-09   3.15060e-08 DIIS
   @DF-RHF iter   9:  -157.35568806593699   -2.66226e-10   7.15919e-09 DIIS
  Energy and wave function converged.


  ==> Post-Iterations <==

    Orbital Energies [Eh]
    ---------------------

    Doubly Occupied:                                                      

       1A    -11.213293     2A    -11.212654     3A    -11.207979  
       4A    -11.207385     5A     -1.071822     6A     -0.979892  
       7A     -0.859904     8A     -0.787621     9A     -0.639622  
      10A     -0.584227    11A     -0.575697    12A     -0.566139  
      13A     -0.514199    14A     -0.493626    15A     -0.469503  
      16A     -0.462360    17A     -0.455361  

    Virtual:                                                              

      18A      0.040849    19A      0.050990    20A      0.055584  
      21A      0.057628    22A      0.075553    23A      0.077705  
      24A      0.082043    25A      0.085776    26A      0.094543  
      27A      0.105355    28A      0.113208    29A      0.122302  
      30A      0.123139    31A      0.129315    32A      0.137961  
      33A      0.165424    34A      0.172754    35A      0.177411  
      36A      0.181590    37A      0.185132    38A      0.192368  
      39A      0.193848    40A      0.209462    41A      0.216007  
      42A      0.217541    43A      0.232172    44A      0.237330  
      45A      0.240956    46A      0.270143    47A      0.277823  
      48A      0.289855    49A      0.294069    50A      0.306213  
      51A      0.310122    52A      0.313609    53A      0.320083  
      54A      0.324923    55A      0.340797    56A      0.345269  
      57A      0.347867    58A      0.357321    59A      0.363792  
      60A      0.368370    61A      0.373546    62A      0.383511  
      63A      0.389274    64A      0.396724    65A      0.406092  
      66A      0.414878    67A      0.419929    68A      0.427535  
      69A      0.437266    70A      0.447207    71A      0.454551  
      72A      0.460253    73A      0.472028    74A      0.474888  
      75A      0.486637    76A      0.491542    77A      0.507379  
      78A      0.522505    79A      0.527960    80A      0.530956  
      81A      0.537835    82A      0.540166    83A      0.565736  
      84A      0.568944    85A      0.577012    86A      0.589646  
      87A      0.594731    88A      0.600042    89A      0.621430  
      90A      0.647971    91A      0.674935    92A      0.693919  
      93A      0.702055    94A      0.715917    95A      0.728054  
      96A      0.733209    97A      0.747035    98A      0.752708  
      99A      0.756109   100A      0.792734   101A      0.796601  
     102A      0.804625   103A      0.812265   104A      0.815423  
     105A      0.824462   106A      0.826450   107A      0.833324  
     108A      0.839341   109A      0.856570   110A      0.860755  
     111A      0.876977   112A      0.884040   113A      0.894343  
     114A      0.905911   115A      0.919662   116A      0.920251  
     117A      0.925795   118A      0.945516   119A      0.955377  
     120A      0.966771   121A      0.981707   122A      0.990177  
     123A      0.998145   124A      1.001007   125A      1.014913  
     126A      1.020512   127A      1.032836   128A      1.038309  
     129A      1.052493   130A      1.058635   131A      1.079007  
     132A      1.094418   133A      1.115911   134A      1.142288  
     135A      1.160539   136A      1.167870   137A      1.198201  
     138A      1.205486   139A      1.210981   140A      1.233160  
     141A      1.252263   142A      1.258241   143A      1.279701  
     144A      1.287164   145A      1.314303   146A      1.333454  
     147A      1.340237   148A      1.360224   149A      1.365086  
     150A      1.370655   151A      1.387933   152A      1.401967  
     153A      1.414933   154A      1.439973   155A      1.448535  
     156A      1.456425   157A      1.466871   158A      1.483392  
     159A      1.496818   160A      1.503105   161A      1.508417  
     162A      1.524413   163A      1.553132   164A      1.568225  
     165A      1.573283   166A      1.579593   167A      1.585201  
     168A      1.608319   169A      1.621073   170A      1.625333  
     171A      1.630960   172A      1.652546   173A      1.661778  
     174A      1.667627   175A      1.691613   176A      1.713757  
     177A      1.715848   178A      1.738283   179A      1.757668  
     180A      1.770492   181A      1.779803   182A      1.800413  
     183A      1.808048   184A      1.848690   185A      1.865940  
     186A      1.876952   187A      1.900141   188A      1.905778  
     189A      1.913319   190A      1.925952   191A      1.947679  
     192A      1.971710   193A      1.982724   194A      2.023672  
     195A      2.035697   196A      2.059458   197A      2.092105  
     198A      2.154889   199A      2.179148   200A      2.308976  
     201A      2.484427   202A      2.542169   203A      2.639129  
     204A      2.683021   205A      2.697289   206A      2.728654  
     207A      2.738508   208A      2.753350   209A      2.761915  
     210A      2.799825   211A      2.814803   212A      2.820979  
     213A      2.845734   214A      2.864665   215A      2.873162  
     216A      2.888797   217A      2.907169   218A      2.910430  
     219A      2.930779   220A      2.948326   221A      2.966159  
     222A      2.980921   223A      2.990953   224A      3.000048  
     225A      3.038698   226A      3.044189   227A      3.058592  
     228A      3.094640   229A      3.129080   230A      3.132341  
     231A      3.138603   232A      3.142966   233A      3.156456  
     234A      3.169289   235A      3.203842   236A      3.207212  
     237A      3.225073   238A      3.259743   239A      3.272124  
     240A      3.275591   241A      3.299309   242A      3.323955  
     243A      3.333649   244A      3.344642   245A      3.347976  
     246A      3.397569   247A      3.408845   248A      3.412845  
     249A      3.415172   250A      3.420848   251A      3.453391  
     252A      3.461574   253A      3.471694   254A      3.475636  
     255A      3.486248   256A      3.506985   257A      3.527706  
     258A      3.540444   259A      3.544421   260A      3.569990  
     261A      3.580839   262A      3.590968   263A      3.604361  
     264A      3.639278   265A      3.649262   266A      3.658073  
     267A      3.673902   268A      3.688716   269A      3.707318  
     270A      3.712180   271A      3.737077   272A      3.738401  
     273A      3.761103   274A      3.793604   275A      3.815624  
     276A      3.823562   277A      3.839795   278A      3.851865  
     279A      3.864249   280A      3.908359   281A      3.945440  
     282A      3.946782   283A      3.950756   284A      3.964305  
     285A      3.967989   286A      3.993777   287A      4.007646  
     288A      4.039313   289A      4.040292   290A      4.054854  
     291A      4.082580   292A      4.157099   293A      4.168002  
     294A      4.179511   295A      4.205908   296A      4.211280  
     297A      4.238688   298A      4.247085   299A      4.271556  
     300A      4.275933   301A      4.301381   302A      4.307504  
     303A      4.321756   304A      4.338784   305A      4.340642  
     306A      4.354885   307A      4.375118   308A      4.386156  
     309A      4.393982   310A      4.403190   311A      4.423664  
     312A      4.435301   313A      4.453859   314A      4.460552  
     315A      4.476067   316A      4.495857   317A      4.513053  
     318A      4.521771   319A      4.536531   320A      4.537692  
     321A      4.552665   322A      4.564474   323A      4.583475  
     324A      4.602297   325A      4.628970   326A      4.635147  
     327A      4.645022   328A      4.658921   329A      4.682656  
     330A      4.701314   331A      4.711872   332A      4.737434  
     333A      4.737787   334A      4.757543   335A      4.785775  
     336A      4.802652   337A      4.812858   338A      4.831707  
     339A      4.847125   340A      4.879858   341A      4.912126  
     342A      4.939796   343A      4.968851   344A      5.010930  
     345A      5.018429   346A      5.036232   347A      5.062046  
     348A      5.092056   349A      5.109791   350A      5.117890  
     351A      5.128505   352A      5.137512   353A      5.168185  
     354A      5.209469   355A      5.255403   356A      5.264917  
     357A      5.270114   358A      5.298649   359A      5.307951  
     360A      5.317534   361A      5.355316   362A      5.358781  
     363A      5.374259   364A      5.406400   365A      5.433644  
     366A      5.442785   367A      5.465462   368A      5.532751  
     369A      5.565217   370A      5.614475   371A      5.628925  
     372A      5.656964   373A      5.677084   374A      5.745407  
     375A      5.752821   376A      5.758452   377A      5.779687  
     378A      5.795523   379A      5.807624   380A      5.852525  
     381A      5.901496   382A      5.907643   383A      5.942935  
     384A      5.959752   385A      5.973712   386A      5.983145  
     387A      5.992035   388A      6.073998   389A      6.145994  
     390A      6.183465   391A      6.207099   392A      6.293555  
     393A      6.434697   394A      6.474771   395A      6.489079  
     396A      6.500225   397A      6.512529   398A      6.549651  
     399A      6.560735   400A      6.585560   401A      6.630654  
     402A      6.731702   403A      6.808622   404A      7.030635  
     405A      7.151088   406A      7.192338   407A      7.485326  
     408A      7.503876   409A      7.664006   410A      7.839878  
     411A      7.984791   412A      8.022501   413A      8.436003  
     414A      8.620421   415A      8.849790   416A      9.319877  
     417A      9.490379   418A      9.654789   419A      9.782157  
     420A      9.826225   421A      9.853182   422A      9.910201  
     423A      9.918404   424A     10.015713   425A     10.251331  
     426A     10.440243   427A     11.030072   428A     11.405338  
     429A     11.518496   430A     11.594069   431A     11.924901  
     432A     13.011696   433A     13.551598   434A     13.731009  
     435A     13.872045   436A     14.284661   437A     14.519825  
     438A     14.809043   439A     44.751536   440A     60.362919  
     441A     61.180408  

    Final Occupation by Irrep:
              A 
    DOCC [    17 ]

  @DF-RHF Final Energy:  -157.35568806593699

   => Energetics <=

    Nuclear Repulsion Energy =            131.1544521418454110
    One-Electron Energy =                -470.4177120514423223
    Two-Electron Energy =                 181.9075718436599232
    Total Energy =                       -157.3556880659369881

Computation Completed


Properties will be evaluated at   0.000000,   0.000000,   0.000000 [a0]

Properties computed using the SCF density matrix

  Nuclear Dipole Moment: [e a0]
     X:  -104.2584      Y:    21.8890      Z:    -0.8618

  Electronic Dipole Moment: [e a0]
     X:   104.2537      Y:   -21.8893      Z:     0.8629

  Dipole Moment: [e a0]
     X:    -0.0047      Y:    -0.0003      Z:     0.0011     Total:     0.0048

  Dipole Moment: [D]
     X:    -0.0119      Y:    -0.0007      Z:     0.0028     Total:     0.0122


*** tstop() called on r282 at Fri Sep 10 20:10:37 2021
Module time:
	user time   =      17.71 seconds =       0.30 minutes
	system time =       0.47 seconds =       0.01 minutes
	total time  =         18 seconds =       0.30 minutes
Total time:
	user time   =      79.46 seconds =       1.32 minutes
	system time =       1.93 seconds =       0.03 minutes
	total time  =         82 seconds =       1.37 minutes
  Constructing Basis Sets for SAPT...

   => Loading Basis Set <=

    Name: (JUN-CC-PVTZ AUX)
    Role: RIFIT
    Keyword: DF_BASIS_SAPT
    atoms 1, 6, 10, 13, 16              entry C          line   132 file /home/r08543048/miniconda3/share/psi4/basis/jun-cc-pvtz-ri.gbs 
    atoms 2-3                           entry O          line   244 file /home/r08543048/miniconda3/share/psi4/basis/jun-cc-pvtz-ri.gbs 
    atoms 4-5, 7-9, 11-12, 14-15, 17-19 entry H          line    30 file /home/r08543048/miniconda3/share/psi4/basis/jun-cc-pvtz-ri.gbs 


  //>>>>>>>>>>>>>>>>>>>>>>>>>>>>>>>>>>>//
  //               SAPT0               //
  //<<<<<<<<<<<<<<<<<<<<<<<<<<<<<<<<<<<//


*** tstart() called on r282
*** at Fri Sep 10 20:10:37 2021

        SAPT0  
    Ed Hohenstein
     6 June 2009

      Orbital Information
  --------------------------
    NSO        =       441
    NMO        =       441
    NRI        =      1039
    NOCC A     =        12
    NOCC B     =        17
    FOCC A     =         0
    FOCC B     =         0
    NVIR A     =       429
    NVIR B     =       424

    Elst10,r            =    -0.003136949023 [Eh]
    Exch10              =     0.006531864131 [Eh]
    Exch10 (S^2)        =     0.006511186554 [Eh]

    Iter     Energy [mEh]          dE [mEh]         Residual      Time [s]
       1      -0.46339119       0.463391190       2.813817490             0
       2      -0.56729164       0.103900445       0.721980721             1
       3      -0.56786874       0.000577106       0.290562358             2
       4      -0.56569357      -0.002175170       0.091398037             2
       5      -0.56580218       0.000108612       0.046644327             3
       6      -0.56600924       0.000207060       0.016403280             3
       7      -0.56601498       0.000005740       0.006594191             4
       8      -0.56598203      -0.000032951       0.001546587             5
       9      -0.56598443       0.000002396       0.000495713             5
      10      -0.56598574       0.000001312       0.000159490             6
      11      -0.56598509      -0.000000648       0.000057469             7
      12      -0.56598521       0.000000116       0.000019495             7
      13      -0.56598522       0.000000016       0.000004690             8
      14      -0.56598521      -0.000000012       0.000000906             8

    CHF Iterations converged


    Iter     Energy [mEh]          dE [mEh]         Residual      Time [s]
       1      -1.95746503       1.957465027       7.565872077             1
       2      -2.26903948       0.311574456       2.762107536             2
       3      -2.34352869       0.074489207       0.632940702             2
       4      -2.34169293      -0.001835756       0.176219080             4
       5      -2.33805245      -0.003640481       0.031303641             4
       6      -2.33839490       0.000342449       0.009060131             5
       7      -2.33848292       0.000088016       0.002307148             6
       8      -2.33846693      -0.000015988       0.000598503             7
       9      -2.33846247      -0.000004458       0.000121908             7
      10      -2.33846333       0.000000853       0.000036284             8
      11      -2.33846354       0.000000210       0.000009208             9
      12      -2.33846348      -0.000000053       0.000001868             9
      13      -2.33846348      -0.000000005       0.000000408            10

    CHF Iterations converged

    Ind20,r (A<-B)      =    -0.000565985211 [Eh]
    Ind20,r (B<-A)      =    -0.002338463478 [Eh]
    Ind20,r             =    -0.002904448689 [Eh]
    Exch-Ind20,r (A<-B) =     0.000533712631 [Eh]
    Exch-Ind20,r (B<-A) =     0.000878076277 [Eh]
    Exch-Ind20,r        =     0.001411788908 [Eh]
    Disp20              =    -0.006593595377 [Eh]
    Disp20 (SS)         =    -0.003296797688 [Eh]
    Disp20 (OS)         =    -0.003296797688 [Eh]
    Exch-Disp20         =     0.000618098830 [Eh]
    Exch-Disp20 (SS)    =     0.000400453688 [Eh]
    Exch-Disp20 (OS)    =     0.000217645142 [Eh]

    SAPT Results 
  --------------------------------------------------------------------------------------------------------
    Electrostatics                 -3.13694902 [mEh]      -1.96846523 [kcal/mol]      -8.23605853 [kJ/mol]
      Elst10,r                     -3.13694902 [mEh]      -1.96846523 [kcal/mol]      -8.23605853 [kJ/mol]

    Exchange                        6.53186413 [mEh]       4.09880662 [kcal/mol]      17.14940691 [kJ/mol]
      Exch10                        6.53186413 [mEh]       4.09880662 [kcal/mol]      17.14940691 [kJ/mol]
      Exch10(S^2)                   6.51118655 [mEh]       4.08583125 [kcal/mol]      17.09511794 [kJ/mol]

    Induction                      -2.15150755 [mEh]      -1.35009137 [kcal/mol]      -5.64878228 [kJ/mol]
      Ind20,r                      -2.90444869 [mEh]      -1.82256907 [kcal/mol]      -7.62562898 [kJ/mol]
      Exch-Ind20,r                  1.41178891 [mEh]       0.88591091 [kcal/mol]       3.70665127 [kJ/mol]
      delta HF,r (2)               -0.65884777 [mEh]      -0.41343321 [kcal/mol]      -1.72980457 [kJ/mol]

    Dispersion                     -5.97549655 [mEh]      -3.74968069 [kcal/mol]     -15.68866402 [kJ/mol]
      Disp20                       -6.59359538 [mEh]      -4.13754357 [kcal/mol]     -17.31148228 [kJ/mol]
      Exch-Disp20                   0.61809883 [mEh]       0.38786287 [kcal/mol]       1.62281826 [kJ/mol]
      Disp20 (SS)                  -3.29679769 [mEh]      -2.06877178 [kcal/mol]      -8.65574114 [kJ/mol]
      Disp20 (OS)                  -3.29679769 [mEh]      -2.06877178 [kcal/mol]      -8.65574114 [kJ/mol]
      Exch-Disp20 (SS)              0.40045369 [mEh]       0.25128848 [kcal/mol]       1.05139101 [kJ/mol]
      Exch-Disp20 (OS)              0.21764514 [mEh]       0.13657439 [kcal/mol]       0.57142724 [kJ/mol]

  Total HF                          1.24340756 [mEh]       0.78025002 [kcal/mol]       3.26456610 [kJ/mol]
  Total SAPT0                      -4.73208898 [mEh]      -2.96943067 [kcal/mol]     -12.42409792 [kJ/mol]

  Special recipe for scaled SAPT0 (see Manual):
    Electrostatics sSAPT0          -3.13694902 [mEh]      -1.96846523 [kcal/mol]      -8.23605853 [kJ/mol]
    Exchange sSAPT0                 6.53186413 [mEh]       4.09880662 [kcal/mol]      17.14940691 [kJ/mol]
    Induction sSAPT0               -2.13801453 [mEh]      -1.34162437 [kcal/mol]      -5.61335638 [kJ/mol]
    Dispersion sSAPT0              -5.96958914 [mEh]      -3.74597374 [kcal/mol]     -15.67315412 [kJ/mol]
  Total sSAPT0                     -4.71268856 [mEh]      -2.95725672 [kcal/mol]     -12.37316211 [kJ/mol]
  --------------------------------------------------------------------------------------------------------

*** tstop() called on r282 at Fri Sep 10 20:11:54 2021
Module time:
	user time   =      64.93 seconds =       1.08 minutes
	system time =      11.68 seconds =       0.19 minutes
	total time  =         77 seconds =       1.28 minutes
Total time:
	user time   =     144.52 seconds =       2.41 minutes
	system time =      13.61 seconds =       0.23 minutes
	total time  =        159 seconds =       2.65 minutes

    Psi4 stopped on: Friday, 10 September 2021 08:11PM
    Psi4 wall time for execution: 0:02:39.04

*** Psi4 exiting successfully. Buy a developer a beer!
