
    -----------------------------------------------------------------------
          Psi4: An Open-Source Ab Initio Electronic Structure Package
                               Psi4 1.3.2 release

                         Git: Rev {HEAD} ecbda83 


    R. M. Parrish, L. A. Burns, D. G. A. Smith, A. C. Simmonett,
    A. E. DePrince III, E. G. Hohenstein, U. Bozkaya, A. Yu. Sokolov,
    R. Di Remigio, R. M. Richard, J. F. Gonthier, A. M. James,
    H. R. McAlexander, A. Kumar, M. Saitow, X. Wang, B. P. Pritchard,
    P. Verma, H. F. Schaefer III, K. Patkowski, R. A. King, E. F. Valeev,
    F. A. Evangelista, J. M. Turney, T. D. Crawford, and C. D. Sherrill,
    J. Chem. Theory Comput. 13(7) pp 3185--3197 (2017).
    (doi: 10.1021/acs.jctc.7b00174)


                         Additional Contributions by
    P. Kraus, H. Kruse, M. H. Lechner, M. C. Schieber, R. A. Shaw,
    A. Alenaizan, R. Galvelis, Z. L. Glick, S. Lehtola, and J. P. Misiewicz

    -----------------------------------------------------------------------


    Psi4 started on: Friday, 10 September 2021 08:17PM

    Process ID: 57072
    Host:       r282
    PSIDATADIR: /home/r08543048/miniconda3/share/psi4
    Memory:     500.0 MiB
    Threads:    1
    
  ==> Input File <==

--------------------------------------------------------------------------
# Any line starting with the # character is a comment line
#! Sample  computation

memory 22 gb

molecule Dimer {
0 1
 C 1.756067   -0.425335   -0.018818
 O 1.251445   -1.482393   -0.325358
 O 1.961056   -0.063489    1.273533
 H 1.635295   -0.803114    1.810243
 C 2.226865    0.638877   -0.960699
 H 2.051759    0.321932   -1.982485
 H 1.693646    1.565511   -0.755425
 H 3.287228    0.823770   -0.798824








    
    
 --
0 1
 C   -2.313197   -1.564669   -0.245841
 H   -1.469947   -1.938945   -0.826653
 H   -3.145296   -1.385947   -0.928472
 H   -2.614306   -2.346113    0.451502
 C   -1.927532   -0.282979    0.480712
 H   -2.757107    0.061392    1.104715
 H   -1.092546   -0.483941    1.157579
 C   -1.531387    0.831792   -0.479179
 H   -2.378865    1.058683   -1.131853
 H   -0.732548    0.468677   -1.131615
 C   -1.086351    2.096401    0.245553
 H   -0.233476    1.892237    0.895398
 H   -0.800307    2.883930   -0.452375
 H   -1.890328    2.484455    0.872494





units angstrom

no_reorient
symmetry c1
}

set globals{
  basis jun-cc-pvtz
}

energy('sapt0')


--------------------------------------------------------------------------

  Memory set to  20.489 GiB by Python driver.

  //>>>>>>>>>>>>>>>>>>>>>>>>>>>>>>>>>>>//
  //              Dimer HF             //
  //<<<<<<<<<<<<<<<<<<<<<<<<<<<<<<<<<<<//


*** tstart() called on r282
*** at Fri Sep 10 20:17:14 2021

   => Loading Basis Set <=

    Name: JUN-CC-PVTZ
    Role: ORBITAL
    Keyword: BASIS
    atoms 1, 5, 9, 13, 16, 19                entry C          line   217 file /home/r08543048/miniconda3/share/psi4/basis/jun-cc-pvtz.gbs 
    atoms 2-3                                entry O          line   305 file /home/r08543048/miniconda3/share/psi4/basis/jun-cc-pvtz.gbs 
    atoms 4, 6-8, 10-12, 14-15, 17-18, 20-22 entry H          line    36 file /home/r08543048/miniconda3/share/psi4/basis/jun-cc-pvtz.gbs 


         ---------------------------------------------------------
                                   SCF
               by Justin Turney, Rob Parrish, Andy Simmonett
                          and Daniel G. A. Smith
                              RHF Reference
                        1 Threads,  20980 MiB Core
         ---------------------------------------------------------

  ==> Geometry <==

    Molecular point group: c1
    Full point group: C1

    Geometry (in Angstrom), charge = 0, multiplicity = 1:

       Center              X                  Y                   Z               Mass       
    ------------   -----------------  -----------------  -----------------  -----------------
         C            1.685242201719    -0.386734757630    -0.033191633549    12.000000000000
         O            1.180620201719    -1.443792757630    -0.339731633549    15.994914619570
         O            1.890231201719    -0.024888757630     1.259159366451    15.994914619570
         H            1.564470201719    -0.764513757630     1.795869366451     1.007825032230
         C            2.156040201719     0.677477242370    -0.975072633549    12.000000000000
         H            1.980934201719     0.360532242370    -1.996858633549     1.007825032230
         H            1.622821201719     1.604111242370    -0.769798633549     1.007825032230
         H            3.216403201719     0.862370242370    -0.813197633549     1.007825032230
         C           -2.384021798281    -1.526068757630    -0.260214633549    12.000000000000
         H           -1.540771798281    -1.900344757630    -0.841026633549     1.007825032230
         H           -3.216120798281    -1.347346757630    -0.942845633549     1.007825032230
         H           -2.685130798281    -2.307512757630     0.437128366451     1.007825032230
         C           -1.998356798281    -0.244378757630     0.466338366451    12.000000000000
         H           -2.827931798281     0.099992242370     1.090341366451     1.007825032230
         H           -1.163370798281    -0.445340757630     1.143205366451     1.007825032230
         C           -1.602211798281     0.870392242370    -0.493552633549    12.000000000000
         H           -2.449689798281     1.097283242370    -1.146226633549     1.007825032230
         H           -0.803372798281     0.507277242370    -1.145988633549     1.007825032230
         C           -1.157175798281     2.135001242370     0.231179366451    12.000000000000
         H           -0.304300798281     1.930837242370     0.881024366451     1.007825032230
         H           -0.871131798281     2.922530242370    -0.466748633549     1.007825032230
         H           -1.961152798281     2.523055242370     0.858120366451     1.007825032230

  Running in c1 symmetry.

  Rotational constants: A =      0.07297  B =      0.03698  C =      0.03003 [cm^-1]
  Rotational constants: A =   2187.69681  B =   1108.70102  C =    900.36762 [MHz]
  Nuclear repulsion =  395.194807708649421

  Charge       = 0
  Multiplicity = 1
  Electrons    = 66
  Nalpha       = 33
  Nbeta        = 33

  ==> Algorithm <==

  SCF Algorithm Type is DF.
  DIIS enabled.
  MOM disabled.
  Fractional occupation disabled.
  Guess Type is SAD.
  Energy threshold   = 1.00e-08
  Density threshold  = 1.00e-08
  Integral threshold = 0.00e+00

  ==> Primary Basis <==

  Basis Set: JUN-CC-PVTZ
    Blend: JUN-CC-PVTZ
    Number of shells: 188
    Number of basis function: 508
    Number of Cartesian functions: 570
    Spherical Harmonics?: true
    Max angular momentum: 3

   => Loading Basis Set <=

    Name: (JUN-CC-PVTZ AUX)
    Role: JKFIT
    Keyword: DF_BASIS_SCF
    atoms 1, 5, 9, 13, 16, 19                entry C          line   152 file /home/r08543048/miniconda3/share/psi4/basis/jun-cc-pvtz-jkfit.gbs 
    atoms 2-3                                entry O          line   272 file /home/r08543048/miniconda3/share/psi4/basis/jun-cc-pvtz-jkfit.gbs 
    atoms 4, 6-8, 10-12, 14-15, 17-18, 20-22 entry H          line    70 file /home/r08543048/miniconda3/share/psi4/basis/jun-cc-pvtz-jkfit.gbs 

  ==> Pre-Iterations <==

   -------------------------------------------------------
    Irrep   Nso     Nmo     Nalpha   Nbeta   Ndocc  Nsocc
   -------------------------------------------------------
     A        508     508       0       0       0       0
   -------------------------------------------------------
    Total     508     508      33      33      33       0
   -------------------------------------------------------

  ==> Integral Setup <==

  ==> DiskDFJK: Density-Fitted J/K Matrices <==

    J tasked:                  Yes
    K tasked:                  Yes
    wK tasked:                  No
    OpenMP threads:              1
    Integrals threads:           1
    Memory [MiB]:            15735
    Algorithm:                Core
    Integral Cache:           SAVE
    Schwarz Cutoff:          1E-12
    Fitting Condition:       1E-10

   => Auxiliary Basis Set <=

  Basis Set: (JUN-CC-PVTZ AUX)
    Blend: JUN-CC-PVTZ-JKFIT
    Number of shells: 372
    Number of basis function: 1180
    Number of Cartesian functions: 1418
    Spherical Harmonics?: true
    Max angular momentum: 4

  Minimum eigenvalue in the overlap matrix is 4.8218905893E-05.
  Using Symmetric Orthogonalization.

  SCF Guess: Superposition of Atomic Densities via on-the-fly atomic UHF.

  ==> Iterations <==

                           Total Energy        Delta E     RMS |[F,P]|

   @DF-RHF iter SAD:  -383.94392048694118   -3.83944e+02   0.00000e+00 
   @DF-RHF iter   1:  -384.89612570845907   -9.52205e-01   1.62201e-03 DIIS
   @DF-RHF iter   2:  -385.17475614009970   -2.78630e-01   8.77127e-04 DIIS
   @DF-RHF iter   3:  -385.25160422546747   -7.68481e-02   1.66876e-04 DIIS
   @DF-RHF iter   4:  -385.25629550910793   -4.69128e-03   8.07460e-05 DIIS
   @DF-RHF iter   5:  -385.25721274136197   -9.17232e-04   1.54077e-05 DIIS
   @DF-RHF iter   6:  -385.25726849506736   -5.57537e-05   7.13784e-06 DIIS
   @DF-RHF iter   7:  -385.25727938086516   -1.08858e-05   2.36613e-06 DIIS
   @DF-RHF iter   8:  -385.25728142926755   -2.04840e-06   9.92658e-07 DIIS
   @DF-RHF iter   9:  -385.25728177777256   -3.48505e-07   3.01157e-07 DIIS
   @DF-RHF iter  10:  -385.25728181124731   -3.34747e-08   6.61811e-08 DIIS
   @DF-RHF iter  11:  -385.25728181271802   -1.47071e-09   1.96096e-08 DIIS
   @DF-RHF iter  12:  -385.25728181281306   -9.50422e-11   5.28176e-09 DIIS
  Energy and wave function converged.


  ==> Post-Iterations <==

    Orbital Energies [Eh]
    ---------------------

    Doubly Occupied:                                                      

       1A    -20.617405     2A    -20.554084     3A    -11.393245  
       4A    -11.246718     5A    -11.211849     6A    -11.209422  
       7A    -11.209008     8A    -11.197795     9A     -1.467532  
      10A     -1.363811    11A     -1.069069    12A     -1.032304  
      13A     -0.977149    14A     -0.857132    15A     -0.824734  
      16A     -0.784941    17A     -0.709849    18A     -0.682997  
      19A     -0.661484    20A     -0.629506    21A     -0.588599  
      22A     -0.582745    23A     -0.577142    24A     -0.572848  
      25A     -0.568127    26A     -0.558328    27A     -0.510808  
      28A     -0.493284    29A     -0.485616    30A     -0.465884  
      31A     -0.461592    32A     -0.455237    33A     -0.452766  

    Virtual:                                                              

      34A      0.044626    35A      0.053149    36A      0.056365  
      37A      0.058784    38A      0.071863    39A      0.077433  
      40A      0.083340    41A      0.088815    42A      0.092686  
      43A      0.109434    44A      0.111245    45A      0.113502  
      46A      0.120044    47A      0.126395    48A      0.129672  
      49A      0.137451    50A      0.147592    51A      0.151377  
      52A      0.165488    53A      0.174996    54A      0.181602  
      55A      0.192608    56A      0.197871    57A      0.199976  
      58A      0.209649    59A      0.219161    60A      0.224152  
      61A      0.233570    62A      0.244239    63A      0.251236  
      64A      0.254665    65A      0.267034    66A      0.273103  
      67A      0.284292    68A      0.290326    69A      0.297421  
      70A      0.300283    71A      0.306266    72A      0.312915  
      73A      0.315520    74A      0.320824    75A      0.324047  
      76A      0.326911    77A      0.336799    78A      0.342870  
      79A      0.347392    80A      0.352450    81A      0.361228  
      82A      0.370086    83A      0.372500    84A      0.375972  
      85A      0.380406    86A      0.390945    87A      0.397204  
      88A      0.407232    89A      0.416961    90A      0.422575  
      91A      0.427510    92A      0.437457    93A      0.440925  
      94A      0.449554    95A      0.459150    96A      0.470497  
      97A      0.480904    98A      0.494176    99A      0.507589  
     100A      0.513467   101A      0.514019   102A      0.522148  
     103A      0.529838   104A      0.531241   105A      0.546852  
     106A      0.549404   107A      0.559223   108A      0.570445  
     109A      0.575693   110A      0.584300   111A      0.593200  
     112A      0.599342   113A      0.603378   114A      0.611113  
     115A      0.623947   116A      0.636603   117A      0.650248  
     118A      0.670088   119A      0.684917   120A      0.687887  
     121A      0.706201   122A      0.712477   123A      0.718696  
     124A      0.727404   125A      0.738301   126A      0.750114  
     127A      0.753354   128A      0.757115   129A      0.762805  
     130A      0.775504   131A      0.790281   132A      0.798614  
     133A      0.803100   134A      0.807751   135A      0.814054  
     136A      0.826652   137A      0.835752   138A      0.838783  
     139A      0.843622   140A      0.850323   141A      0.865420  
     142A      0.872644   143A      0.881351   144A      0.890024  
     145A      0.892255   146A      0.897145   147A      0.911336  
     148A      0.916410   149A      0.923342   150A      0.930819  
     151A      0.945528   152A      0.965239   153A      0.967133  
     154A      0.994112   155A      1.001286   156A      1.003646  
     157A      1.012501   158A      1.031641   159A      1.040694  
     160A      1.045073   161A      1.061366   162A      1.073222  
     163A      1.105331   164A      1.118054   165A      1.139053  
     166A      1.145171   167A      1.147088   168A      1.159426  
     169A      1.189071   170A      1.198363   171A      1.203811  
     172A      1.219654   173A      1.224624   174A      1.241854  
     175A      1.248444   176A      1.257359   177A      1.272146  
     178A      1.294310   179A      1.299605   180A      1.299904  
     181A      1.310858   182A      1.332061   183A      1.346171  
     184A      1.347208   185A      1.362962   186A      1.376748  
     187A      1.387941   188A      1.393408   189A      1.410876  
     190A      1.416061   191A      1.421640   192A      1.440563  
     193A      1.453243   194A      1.460773   195A      1.468526  
     196A      1.470259   197A      1.493896   198A      1.495997  
     199A      1.503498   200A      1.515114   201A      1.528040  
     202A      1.542704   203A      1.554026   204A      1.569808  
     205A      1.579322   206A      1.584397   207A      1.594704  
     208A      1.610652   209A      1.617775   210A      1.623935  
     211A      1.626824   212A      1.631964   213A      1.645945  
     214A      1.650803   215A      1.660509   216A      1.674958  
     217A      1.692741   218A      1.695459   219A      1.716931  
     220A      1.728234   221A      1.739902   222A      1.754294  
     223A      1.759608   224A      1.776828   225A      1.798765  
     226A      1.801473   227A      1.825769   228A      1.833382  
     229A      1.867670   230A      1.872747   231A      1.893255  
     232A      1.907492   233A      1.930959   234A      1.933131  
     235A      1.955750   236A      1.961926   237A      1.980618  
     238A      1.999577   239A      2.025715   240A      2.055936  
     241A      2.078594   242A      2.160801   243A      2.219065  
     244A      2.228165   245A      2.284576   246A      2.332253  
     247A      2.377234   248A      2.427453   249A      2.440970  
     250A      2.505812   251A      2.563088   252A      2.602536  
     253A      2.715501   254A      2.728756   255A      2.749508  
     256A      2.768250   257A      2.801618   258A      2.823419  
     259A      2.827611   260A      2.854166   261A      2.866653  
     262A      2.884244   263A      2.891361   264A      2.895590  
     265A      2.911019   266A      2.924257   267A      2.948087  
     268A      2.952235   269A      2.976046   270A      2.983825  
     271A      3.014708   272A      3.026750   273A      3.033983  
     274A      3.070126   275A      3.092089   276A      3.101091  
     277A      3.120439   278A      3.137845   279A      3.143713  
     280A      3.152721   281A      3.153623   282A      3.160821  
     283A      3.177841   284A      3.194203   285A      3.215013  
     286A      3.227880   287A      3.232572   288A      3.255385  
     289A      3.268281   290A      3.285408   291A      3.293843  
     292A      3.309490   293A      3.324634   294A      3.341676  
     295A      3.356842   296A      3.363021   297A      3.374796  
     298A      3.402083   299A      3.409989   300A      3.410978  
     301A      3.420465   302A      3.426006   303A      3.430339  
     304A      3.439479   305A      3.442240   306A      3.464442  
     307A      3.472706   308A      3.478468   309A      3.495062  
     310A      3.505070   311A      3.508007   312A      3.514375  
     313A      3.533313   314A      3.547737   315A      3.555167  
     316A      3.569200   317A      3.572825   318A      3.576897  
     319A      3.583444   320A      3.620084   321A      3.636099  
     322A      3.646774   323A      3.650800   324A      3.662549  
     325A      3.670856   326A      3.675415   327A      3.683469  
     328A      3.698515   329A      3.711078   330A      3.721019  
     331A      3.739393   332A      3.752759   333A      3.767958  
     334A      3.775025   335A      3.781503   336A      3.796215  
     337A      3.806751   338A      3.830862   339A      3.835840  
     340A      3.842922   341A      3.848816   342A      3.871242  
     343A      3.878381   344A      3.893471   345A      3.922096  
     346A      3.944493   347A      3.959401   348A      3.963773  
     349A      3.979412   350A      3.988095   351A      3.992045  
     352A      3.998926   353A      4.013196   354A      4.033938  
     355A      4.072535   356A      4.114960   357A      4.127861  
     358A      4.147393   359A      4.168271   360A      4.183854  
     361A      4.195567   362A      4.208497   363A      4.217715  
     364A      4.229995   365A      4.243692   366A      4.263699  
     367A      4.264718   368A      4.272486   369A      4.286651  
     370A      4.299777   371A      4.305240   372A      4.311570  
     373A      4.334033   374A      4.337983   375A      4.351764  
     376A      4.371609   377A      4.389687   378A      4.395744  
     379A      4.402622   380A      4.414850   381A      4.426906  
     382A      4.434907   383A      4.441463   384A      4.453831  
     385A      4.464333   386A      4.475916   387A      4.500785  
     388A      4.508633   389A      4.520973   390A      4.537722  
     391A      4.541014   392A      4.548991   393A      4.561254  
     394A      4.563571   395A      4.576117   396A      4.609497  
     397A      4.620787   398A      4.641789   399A      4.652076  
     400A      4.659119   401A      4.672786   402A      4.685599  
     403A      4.721745   404A      4.742570   405A      4.752525  
     406A      4.772083   407A      4.802867   408A      4.814873  
     409A      4.828254   410A      4.846367   411A      4.851153  
     412A      4.861166   413A      4.869441   414A      4.910256  
     415A      4.915021   416A      4.973786   417A      5.009251  
     418A      5.042770   419A      5.052103   420A      5.069425  
     421A      5.122060   422A      5.134554   423A      5.137523  
     424A      5.157209   425A      5.170832   426A      5.193353  
     427A      5.253699   428A      5.270258   429A      5.272021  
     430A      5.299247   431A      5.303584   432A      5.315773  
     433A      5.327330   434A      5.359653   435A      5.368746  
     436A      5.376502   437A      5.389379   438A      5.438469  
     439A      5.447562   440A      5.465502   441A      5.470112  
     442A      5.522001   443A      5.533822   444A      5.541853  
     445A      5.562379   446A      5.568638   447A      5.628749  
     448A      5.646870   449A      5.652289   450A      5.661078  
     451A      5.669363   452A      5.678562   453A      5.707802  
     454A      5.729715   455A      5.755378   456A      5.766150  
     457A      5.787426   458A      5.804646   459A      5.818373  
     460A      5.856494   461A      5.862389   462A      5.888426  
     463A      5.905989   464A      5.910735   465A      5.918475  
     466A      5.962178   467A      5.973650   468A      5.992020  
     469A      6.007474   470A      6.068392   471A      6.086706  
     472A      6.113215   473A      6.194087   474A      6.290340  
     475A      6.446025   476A      6.451054   477A      6.472168  
     478A      6.501460   479A      6.520212   480A      6.557307  
     481A      6.559908   482A      6.597856   483A      6.649618  
     484A      6.685806   485A      6.808022   486A      6.999582  
     487A      7.009948   488A      7.081297   489A      7.176701  
     490A      7.274111   491A      7.292106   492A      7.349614  
     493A      7.363937   494A      7.385830   495A      7.505069  
     496A      7.610689   497A      7.732626   498A      7.801873  
     499A      7.962296   500A      8.135936   501A     12.226578  
     502A     13.754312   503A     13.962653   504A     14.262733  
     505A     14.457610   506A     14.577779   507A     14.708831  
     508A     14.888722  

    Final Occupation by Irrep:
              A 
    DOCC [    33 ]

  @DF-RHF Final Energy:  -385.25728181281306

   => Energetics <=

    Nuclear Repulsion Energy =            395.1948077086494209
    One-Electron Energy =               -1307.9581589524691481
    Two-Electron Energy =                 527.5060694310066083
    Total Energy =                       -385.2572818128130621

Computation Completed


Properties will be evaluated at   0.000000,   0.000000,   0.000000 [a0]

Properties computed using the SCF density matrix

  Nuclear Dipole Moment: [e a0]
     X:    -8.8334      Y:     4.8143      Z:    -1.7927

  Electronic Dipole Moment: [e a0]
     X:     9.1944      Y:    -4.1874      Z:     1.9369

  Dipole Moment: [e a0]
     X:     0.3610      Y:     0.6269      Z:     0.1442     Total:     0.7376

  Dipole Moment: [D]
     X:     0.9175      Y:     1.5934      Z:     0.3664     Total:     1.8749


*** tstop() called on r282 at Fri Sep 10 20:18:27 2021
Module time:
	user time   =      71.51 seconds =       1.19 minutes
	system time =       1.48 seconds =       0.02 minutes
	total time  =         73 seconds =       1.22 minutes
Total time:
	user time   =      71.51 seconds =       1.19 minutes
	system time =       1.48 seconds =       0.02 minutes
	total time  =         73 seconds =       1.22 minutes

  //>>>>>>>>>>>>>>>>>>>>>>>>>>>>>>>>>>>//
  //            Monomer A HF           //
  //<<<<<<<<<<<<<<<<<<<<<<<<<<<<<<<<<<<//


*** tstart() called on r282
*** at Fri Sep 10 20:18:27 2021

   => Loading Basis Set <=

    Name: JUN-CC-PVTZ
    Role: ORBITAL
    Keyword: BASIS
    atoms 1, 5, 9, 13, 16, 19                entry C          line   217 file /home/r08543048/miniconda3/share/psi4/basis/jun-cc-pvtz.gbs 
    atoms 2-3                                entry O          line   305 file /home/r08543048/miniconda3/share/psi4/basis/jun-cc-pvtz.gbs 
    atoms 4, 6-8, 10-12, 14-15, 17-18, 20-22 entry H          line    36 file /home/r08543048/miniconda3/share/psi4/basis/jun-cc-pvtz.gbs 


         ---------------------------------------------------------
                                   SCF
               by Justin Turney, Rob Parrish, Andy Simmonett
                          and Daniel G. A. Smith
                              RHF Reference
                        1 Threads,  20980 MiB Core
         ---------------------------------------------------------

  ==> Geometry <==

    Molecular point group: c1
    Full point group: C1

    Geometry (in Angstrom), charge = 0, multiplicity = 1:

       Center              X                  Y                   Z               Mass       
    ------------   -----------------  -----------------  -----------------  -----------------
         C            1.685242201719    -0.386734757630    -0.033191633549    12.000000000000
         O            1.180620201719    -1.443792757630    -0.339731633549    15.994914619570
         O            1.890231201719    -0.024888757630     1.259159366451    15.994914619570
         H            1.564470201719    -0.764513757630     1.795869366451     1.007825032230
         C            2.156040201719     0.677477242370    -0.975072633549    12.000000000000
         H            1.980934201719     0.360532242370    -1.996858633549     1.007825032230
         H            1.622821201719     1.604111242370    -0.769798633549     1.007825032230
         H            3.216403201719     0.862370242370    -0.813197633549     1.007825032230
      Gh(C)          -2.384021798281    -1.526068757630    -0.260214633549    12.000000000000
      Gh(H)          -1.540771798281    -1.900344757630    -0.841026633549     1.007825032230
      Gh(H)          -3.216120798281    -1.347346757630    -0.942845633549     1.007825032230
      Gh(H)          -2.685130798281    -2.307512757630     0.437128366451     1.007825032230
      Gh(C)          -1.998356798281    -0.244378757630     0.466338366451    12.000000000000
      Gh(H)          -2.827931798281     0.099992242370     1.090341366451     1.007825032230
      Gh(H)          -1.163370798281    -0.445340757630     1.143205366451     1.007825032230
      Gh(C)          -1.602211798281     0.870392242370    -0.493552633549    12.000000000000
      Gh(H)          -2.449689798281     1.097283242370    -1.146226633549     1.007825032230
      Gh(H)          -0.803372798281     0.507277242370    -1.145988633549     1.007825032230
      Gh(C)          -1.157175798281     2.135001242370     0.231179366451    12.000000000000
      Gh(H)          -0.304300798281     1.930837242370     0.881024366451     1.007825032230
      Gh(H)          -0.871131798281     2.922530242370    -0.466748633549     1.007825032230
      Gh(H)          -1.961152798281     2.523055242370     0.858120366451     1.007825032230

  Running in c1 symmetry.

  Rotational constants: A =      0.07297  B =      0.03698  C =      0.03003 [cm^-1]
  Rotational constants: A =   2187.69681  B =   1108.70102  C =    900.36762 [MHz]
  Nuclear repulsion =  121.114772584966872

  Charge       = 0
  Multiplicity = 1
  Electrons    = 32
  Nalpha       = 16
  Nbeta        = 16

  ==> Algorithm <==

  SCF Algorithm Type is DF.
  DIIS enabled.
  MOM disabled.
  Fractional occupation disabled.
  Guess Type is SAD.
  Energy threshold   = 1.00e-08
  Density threshold  = 1.00e-08
  Integral threshold = 0.00e+00

  ==> Primary Basis <==

  Basis Set: JUN-CC-PVTZ
    Blend: JUN-CC-PVTZ
    Number of shells: 188
    Number of basis function: 508
    Number of Cartesian functions: 570
    Spherical Harmonics?: true
    Max angular momentum: 3

   => Loading Basis Set <=

    Name: (JUN-CC-PVTZ AUX)
    Role: JKFIT
    Keyword: DF_BASIS_SCF
    atoms 1, 5, 9, 13, 16, 19                entry C          line   152 file /home/r08543048/miniconda3/share/psi4/basis/jun-cc-pvtz-jkfit.gbs 
    atoms 2-3                                entry O          line   272 file /home/r08543048/miniconda3/share/psi4/basis/jun-cc-pvtz-jkfit.gbs 
    atoms 4, 6-8, 10-12, 14-15, 17-18, 20-22 entry H          line    70 file /home/r08543048/miniconda3/share/psi4/basis/jun-cc-pvtz-jkfit.gbs 

  ==> Pre-Iterations <==

   -------------------------------------------------------
    Irrep   Nso     Nmo     Nalpha   Nbeta   Ndocc  Nsocc
   -------------------------------------------------------
     A        508     508       0       0       0       0
   -------------------------------------------------------
    Total     508     508      16      16      16       0
   -------------------------------------------------------

  ==> Integral Setup <==

  ==> DiskDFJK: Density-Fitted J/K Matrices <==

    J tasked:                  Yes
    K tasked:                  Yes
    wK tasked:                  No
    OpenMP threads:              1
    Integrals threads:           1
    Memory [MiB]:            15735
    Algorithm:                Core
    Integral Cache:           LOAD
    Schwarz Cutoff:          1E-12
    Fitting Condition:       1E-10

   => Auxiliary Basis Set <=

  Basis Set: (JUN-CC-PVTZ AUX)
    Blend: JUN-CC-PVTZ-JKFIT
    Number of shells: 372
    Number of basis function: 1180
    Number of Cartesian functions: 1418
    Spherical Harmonics?: true
    Max angular momentum: 4

  Minimum eigenvalue in the overlap matrix is 4.8218905893E-05.
  Using Symmetric Orthogonalization.

  SCF Guess: Superposition of Atomic Densities via on-the-fly atomic UHF.

  ==> Iterations <==

                           Total Energy        Delta E     RMS |[F,P]|

   @DF-RHF iter SAD:  -227.00495894684556   -2.27005e+02   0.00000e+00 
   @DF-RHF iter   1:  -227.74686301185648   -7.41904e-01   1.17668e-03 DIIS
   @DF-RHF iter   2:  -227.85983489662948   -1.12972e-01   7.19939e-04 DIIS
   @DF-RHF iter   3:  -227.90171631775797   -4.18814e-02   1.16251e-04 DIIS
   @DF-RHF iter   4:  -227.90390637194338   -2.19005e-03   5.31181e-05 DIIS
   @DF-RHF iter   5:  -227.90438040403629   -4.74032e-04   1.32055e-05 DIIS
   @DF-RHF iter   6:  -227.90442222488045   -4.18208e-05   6.38564e-06 DIIS
   @DF-RHF iter   7:  -227.90443290623472   -1.06814e-05   2.12161e-06 DIIS
   @DF-RHF iter   8:  -227.90443471717774   -1.81094e-06   5.61195e-07 DIIS
   @DF-RHF iter   9:  -227.90443485944033   -1.42263e-07   1.16241e-07 DIIS
   @DF-RHF iter  10:  -227.90443486442720   -4.98687e-09   3.21176e-08 DIIS
   @DF-RHF iter  11:  -227.90443486465648   -2.29278e-10   9.17407e-09 DIIS
  Energy and wave function converged.


  ==> Post-Iterations <==

    Orbital Energies [Eh]
    ---------------------

    Doubly Occupied:                                                      

       1A    -20.615879     2A    -20.553005     3A    -11.391868  
       4A    -11.246990     5A     -1.465722     6A     -1.361911  
       7A     -1.031544     8A     -0.823406     9A     -0.707711  
      10A     -0.681624    11A     -0.652357    12A     -0.586417  
      13A     -0.576425    14A     -0.563694    15A     -0.485192  
      16A     -0.457377  

    Virtual:                                                              

      17A      0.029823    18A      0.044723    19A      0.050182  
      20A      0.053671    21A      0.067704    22A      0.072788  
      23A      0.081505    24A      0.086706    25A      0.087336  
      26A      0.100012    27A      0.107021    28A      0.111562  
      29A      0.116308    30A      0.119153    31A      0.124664  
      32A      0.131927    33A      0.135524    34A      0.142732  
      35A      0.150241    36A      0.152340    37A      0.167591  
      38A      0.169934    39A      0.178176    40A      0.184865  
      41A      0.189903    42A      0.202929    43A      0.215412  
      44A      0.224004    45A      0.238960    46A      0.245602  
      47A      0.250934    48A      0.259968    49A      0.265153  
      50A      0.272662    51A      0.285204    52A      0.286493  
      53A      0.291119    54A      0.294183    55A      0.299521  
      56A      0.310949    57A      0.324535    58A      0.327184  
      59A      0.332971    60A      0.336887    61A      0.344244  
      62A      0.347827    63A      0.354048    64A      0.362012  
      65A      0.365455    66A      0.373347    67A      0.378355  
      68A      0.378675    69A      0.390671    70A      0.403790  
      71A      0.413625    72A      0.425352    73A      0.427120  
      74A      0.434821    75A      0.440308    76A      0.452519  
      77A      0.456138    78A      0.473706    79A      0.477545  
      80A      0.493881    81A      0.505763    82A      0.511083  
      83A      0.517252    84A      0.520838    85A      0.526407  
      86A      0.530399    87A      0.537619    88A      0.557535  
      89A      0.561567    90A      0.568458    91A      0.575932  
      92A      0.583037    93A      0.586652    94A      0.603238  
      95A      0.608244    96A      0.618442    97A      0.619361  
      98A      0.625308    99A      0.637506   100A      0.649966  
     101A      0.657488   102A      0.662906   103A      0.665924  
     104A      0.673748   105A      0.679048   106A      0.689381  
     107A      0.699268   108A      0.711439   109A      0.719854  
     110A      0.725452   111A      0.732442   112A      0.750246  
     113A      0.760989   114A      0.770609   115A      0.780061  
     116A      0.799729   117A      0.801603   118A      0.816509  
     119A      0.824214   120A      0.843410   121A      0.850215  
     122A      0.874027   123A      0.891231   124A      0.899746  
     125A      0.911551   126A      0.921025   127A      0.939668  
     128A      0.952785   129A      0.967354   130A      0.991785  
     131A      1.003763   132A      1.019941   133A      1.034580  
     134A      1.068331   135A      1.086232   136A      1.094618  
     137A      1.107203   138A      1.108645   139A      1.121602  
     140A      1.142523   141A      1.148760   142A      1.156894  
     143A      1.160742   144A      1.177472   145A      1.189043  
     146A      1.199300   147A      1.203816   148A      1.213844  
     149A      1.231560   150A      1.240905   151A      1.246898  
     152A      1.248575   153A      1.265324   154A      1.269717  
     155A      1.275949   156A      1.287103   157A      1.290211  
     158A      1.300851   159A      1.311547   160A      1.319950  
     161A      1.329490   162A      1.333142   163A      1.341477  
     164A      1.357050   165A      1.362162   166A      1.370567  
     167A      1.380810   168A      1.385029   169A      1.387462  
     170A      1.396690   171A      1.405593   172A      1.413892  
     173A      1.431819   174A      1.433092   175A      1.442169  
     176A      1.468782   177A      1.474327   178A      1.494341  
     179A      1.504353   180A      1.518738   181A      1.532535  
     182A      1.537173   183A      1.544038   184A      1.545476  
     185A      1.549596   186A      1.568852   187A      1.572532  
     188A      1.580635   189A      1.589201   190A      1.605052  
     191A      1.619588   192A      1.621080   193A      1.639476  
     194A      1.648399   195A      1.660415   196A      1.662560  
     197A      1.679087   198A      1.692039   199A      1.711486  
     200A      1.725409   201A      1.733816   202A      1.753445  
     203A      1.759143   204A      1.771048   205A      1.780733  
     206A      1.803947   207A      1.805121   208A      1.826487  
     209A      1.849198   210A      1.872495   211A      1.891522  
     212A      1.901604   213A      1.944140   214A      1.954107  
     215A      1.957342   216A      1.985635   217A      1.989251  
     218A      2.010826   219A      2.095111   220A      2.112597  
     221A      2.117410   222A      2.162165   223A      2.170379  
     224A      2.193356   225A      2.215023   226A      2.239103  
     227A      2.252787   228A      2.281053   229A      2.306655  
     230A      2.330278   231A      2.335835   232A      2.355848  
     233A      2.383160   234A      2.404523   235A      2.426820  
     236A      2.438783   237A      2.446628   238A      2.478553  
     239A      2.483432   240A      2.496905   241A      2.528405  
     242A      2.548694   243A      2.574593   244A      2.613081  
     245A      2.627443   246A      2.645501   247A      2.666960  
     248A      2.680082   249A      2.746769   250A      2.770779  
     251A      2.853444   252A      2.893677   253A      2.903819  
     254A      2.968475   255A      3.013551   256A      3.023761  
     257A      3.099407   258A      3.135433   259A      3.185709  
     260A      3.232192   261A      3.241424   262A      3.289579  
     263A      3.358467   264A      3.393859   265A      3.404992  
     266A      3.436374   267A      3.438643   268A      3.462381  
     269A      3.486115   270A      3.516980   271A      3.533758  
     272A      3.548219   273A      3.555404   274A      3.569630  
     275A      3.586320   276A      3.591195   277A      3.595403  
     278A      3.611340   279A      3.619366   280A      3.625668  
     281A      3.635365   282A      3.651055   283A      3.665294  
     284A      3.666839   285A      3.675143   286A      3.693225  
     287A      3.705735   288A      3.726283   289A      3.742902  
     290A      3.767232   291A      3.774572   292A      3.777875  
     293A      3.795770   294A      3.804835   295A      3.813913  
     296A      3.828586   297A      3.833254   298A      3.851131  
     299A      3.859128   300A      3.865657   301A      3.879761  
     302A      3.885719   303A      3.895345   304A      3.908331  
     305A      3.917897   306A      3.927478   307A      3.938058  
     308A      3.949143   309A      3.981257   310A      3.992278  
     311A      4.016287   312A      4.027846   313A      4.071597  
     314A      4.082520   315A      4.100838   316A      4.131573  
     317A      4.142338   318A      4.150091   319A      4.163146  
     320A      4.176541   321A      4.197229   322A      4.205781  
     323A      4.222147   324A      4.231804   325A      4.264335  
     326A      4.273056   327A      4.285769   328A      4.302952  
     329A      4.308895   330A      4.320009   331A      4.333032  
     332A      4.342201   333A      4.373087   334A      4.382048  
     335A      4.405602   336A      4.409480   337A      4.425665  
     338A      4.431370   339A      4.452693   340A      4.468024  
     341A      4.482313   342A      4.496192   343A      4.505609  
     344A      4.511361   345A      4.527419   346A      4.530311  
     347A      4.551803   348A      4.556026   349A      4.587529  
     350A      4.591739   351A      4.597447   352A      4.608584  
     353A      4.626229   354A      4.633346   355A      4.651598  
     356A      4.654449   357A      4.679443   358A      4.684490  
     359A      4.706082   360A      4.716577   361A      4.732048  
     362A      4.735173   363A      4.746927   364A      4.762603  
     365A      4.772180   366A      4.781161   367A      4.794693  
     368A      4.802618   369A      4.804815   370A      4.819334  
     371A      4.826681   372A      4.837502   373A      4.842522  
     374A      4.863252   375A      4.878830   376A      4.886487  
     377A      4.896726   378A      4.898903   379A      4.913962  
     380A      4.926678   381A      4.937498   382A      4.941705  
     383A      4.949013   384A      4.957071   385A      4.962452  
     386A      4.991893   387A      5.000837   388A      5.001968  
     389A      5.016934   390A      5.027463   391A      5.033897  
     392A      5.054085   393A      5.064424   394A      5.078414  
     395A      5.094380   396A      5.126134   397A      5.160782  
     398A      5.170474   399A      5.185450   400A      5.193367  
     401A      5.208039   402A      5.238690   403A      5.260957  
     404A      5.285612   405A      5.307826   406A      5.345367  
     407A      5.362459   408A      5.382865   409A      5.393133  
     410A      5.454062   411A      5.468174   412A      5.479689  
     413A      5.519131   414A      5.519507   415A      5.528970  
     416A      5.550872   417A      5.563452   418A      5.576870  
     419A      5.622291   420A      5.649376   421A      5.663875  
     422A      5.667038   423A      5.674257   424A      5.689711  
     425A      5.714924   426A      5.737856   427A      5.798874  
     428A      5.821311   429A      5.829568   430A      5.858307  
     431A      5.889876   432A      5.906224   433A      5.919111  
     434A      5.957387   435A      6.026043   436A      6.035553  
     437A      6.067419   438A      6.072515   439A      6.112495  
     440A      6.114472   441A      6.139254   442A      6.266189  
     443A      6.289938   444A      6.331502   445A      6.347328  
     446A      6.378389   447A      6.395780   448A      6.397636  
     449A      6.428190   450A      6.447054   451A      6.454696  
     452A      6.470838   453A      6.486414   454A      6.492618  
     455A      6.520205   456A      6.556073   457A      6.686434  
     458A      6.744409   459A      6.797033   460A      6.804139  
     461A      6.828033   462A      6.947701   463A      7.001941  
     464A      7.011846   465A      7.052742   466A      7.083364  
     467A      7.175754   468A      7.269469   469A      7.275501  
     470A      7.293899   471A      7.351216   472A      7.364923  
     473A      7.384583   474A      7.501825   475A      7.515719  
     476A      7.540908   477A      7.584457   478A      7.590910  
     479A      7.600242   480A      7.620151   481A      7.678212  
     482A      7.723782   483A      7.735016   484A      7.753578  
     485A      7.801303   486A      7.813831   487A      7.821670  
     488A      7.850195   489A      7.937184   490A      7.942944  
     491A      7.969385   492A      8.113634   493A      8.145132  
     494A      8.300573   495A      8.453346   496A      8.643439  
     497A      9.604628   498A      9.702177   499A      9.904277  
     500A      9.938686   501A     12.239992   502A     13.961440  
     503A     14.471610   504A     14.861713   505A     43.903488  
     506A     45.430342   507A     45.603206   508A     45.844728  

    Final Occupation by Irrep:
              A 
    DOCC [    16 ]

  @DF-RHF Final Energy:  -227.90443486465648

   => Energetics <=

    Nuclear Repulsion Energy =            121.1147725849668717
    One-Electron Energy =                -551.6361635869238853
    Two-Electron Energy =                 202.6169561373005195
    Total Energy =                       -227.9044348646564799

Computation Completed


Properties will be evaluated at   0.000000,   0.000000,   0.000000 [a0]

Properties computed using the SCF density matrix

  Nuclear Dipole Moment: [e a0]
     X:   105.8230      Y:   -15.0091      Z:    -0.9036

  Electronic Dipole Moment: [e a0]
     X:  -105.4850      Y:    15.7109      Z:     1.0671

  Dipole Moment: [e a0]
     X:     0.3381      Y:     0.7017      Z:     0.1635     Total:     0.7959

  Dipole Moment: [D]
     X:     0.8593      Y:     1.7836      Z:     0.4156     Total:     2.0229


*** tstop() called on r282 at Fri Sep 10 20:19:10 2021
Module time:
	user time   =      42.14 seconds =       0.70 minutes
	system time =       0.71 seconds =       0.01 minutes
	total time  =         43 seconds =       0.72 minutes
Total time:
	user time   =     113.65 seconds =       1.89 minutes
	system time =       2.19 seconds =       0.04 minutes
	total time  =        116 seconds =       1.93 minutes

  //>>>>>>>>>>>>>>>>>>>>>>>>>>>>>>>>>>>//
  //            Monomer B HF           //
  //<<<<<<<<<<<<<<<<<<<<<<<<<<<<<<<<<<<//


*** tstart() called on r282
*** at Fri Sep 10 20:19:10 2021

   => Loading Basis Set <=

    Name: JUN-CC-PVTZ
    Role: ORBITAL
    Keyword: BASIS
    atoms 1, 5, 9, 13, 16, 19                entry C          line   217 file /home/r08543048/miniconda3/share/psi4/basis/jun-cc-pvtz.gbs 
    atoms 2-3                                entry O          line   305 file /home/r08543048/miniconda3/share/psi4/basis/jun-cc-pvtz.gbs 
    atoms 4, 6-8, 10-12, 14-15, 17-18, 20-22 entry H          line    36 file /home/r08543048/miniconda3/share/psi4/basis/jun-cc-pvtz.gbs 


         ---------------------------------------------------------
                                   SCF
               by Justin Turney, Rob Parrish, Andy Simmonett
                          and Daniel G. A. Smith
                              RHF Reference
                        1 Threads,  20980 MiB Core
         ---------------------------------------------------------

  ==> Geometry <==

    Molecular point group: c1
    Full point group: C1

    Geometry (in Angstrom), charge = 0, multiplicity = 1:

       Center              X                  Y                   Z               Mass       
    ------------   -----------------  -----------------  -----------------  -----------------
      Gh(C)           1.685242201719    -0.386734757630    -0.033191633549    12.000000000000
      Gh(O)           1.180620201719    -1.443792757630    -0.339731633549    15.994914619570
      Gh(O)           1.890231201719    -0.024888757630     1.259159366451    15.994914619570
      Gh(H)           1.564470201719    -0.764513757630     1.795869366451     1.007825032230
      Gh(C)           2.156040201719     0.677477242370    -0.975072633549    12.000000000000
      Gh(H)           1.980934201719     0.360532242370    -1.996858633549     1.007825032230
      Gh(H)           1.622821201719     1.604111242370    -0.769798633549     1.007825032230
      Gh(H)           3.216403201719     0.862370242370    -0.813197633549     1.007825032230
         C           -2.384021798281    -1.526068757630    -0.260214633549    12.000000000000
         H           -1.540771798281    -1.900344757630    -0.841026633549     1.007825032230
         H           -3.216120798281    -1.347346757630    -0.942845633549     1.007825032230
         H           -2.685130798281    -2.307512757630     0.437128366451     1.007825032230
         C           -1.998356798281    -0.244378757630     0.466338366451    12.000000000000
         H           -2.827931798281     0.099992242370     1.090341366451     1.007825032230
         H           -1.163370798281    -0.445340757630     1.143205366451     1.007825032230
         C           -1.602211798281     0.870392242370    -0.493552633549    12.000000000000
         H           -2.449689798281     1.097283242370    -1.146226633549     1.007825032230
         H           -0.803372798281     0.507277242370    -1.145988633549     1.007825032230
         C           -1.157175798281     2.135001242370     0.231179366451    12.000000000000
         H           -0.304300798281     1.930837242370     0.881024366451     1.007825032230
         H           -0.871131798281     2.922530242370    -0.466748633549     1.007825032230
         H           -1.961152798281     2.523055242370     0.858120366451     1.007825032230

  Running in c1 symmetry.

  Rotational constants: A =      0.07297  B =      0.03698  C =      0.03003 [cm^-1]
  Rotational constants: A =   2187.69681  B =   1108.70102  C =    900.36762 [MHz]
  Nuclear repulsion =  131.109097233476632

  Charge       = 0
  Multiplicity = 1
  Electrons    = 34
  Nalpha       = 17
  Nbeta        = 17

  ==> Algorithm <==

  SCF Algorithm Type is DF.
  DIIS enabled.
  MOM disabled.
  Fractional occupation disabled.
  Guess Type is SAD.
  Energy threshold   = 1.00e-08
  Density threshold  = 1.00e-08
  Integral threshold = 0.00e+00

  ==> Primary Basis <==

  Basis Set: JUN-CC-PVTZ
    Blend: JUN-CC-PVTZ
    Number of shells: 188
    Number of basis function: 508
    Number of Cartesian functions: 570
    Spherical Harmonics?: true
    Max angular momentum: 3

   => Loading Basis Set <=

    Name: (JUN-CC-PVTZ AUX)
    Role: JKFIT
    Keyword: DF_BASIS_SCF
    atoms 1, 5, 9, 13, 16, 19                entry C          line   152 file /home/r08543048/miniconda3/share/psi4/basis/jun-cc-pvtz-jkfit.gbs 
    atoms 2-3                                entry O          line   272 file /home/r08543048/miniconda3/share/psi4/basis/jun-cc-pvtz-jkfit.gbs 
    atoms 4, 6-8, 10-12, 14-15, 17-18, 20-22 entry H          line    70 file /home/r08543048/miniconda3/share/psi4/basis/jun-cc-pvtz-jkfit.gbs 

  ==> Pre-Iterations <==

   -------------------------------------------------------
    Irrep   Nso     Nmo     Nalpha   Nbeta   Ndocc  Nsocc
   -------------------------------------------------------
     A        508     508       0       0       0       0
   -------------------------------------------------------
    Total     508     508      17      17      17       0
   -------------------------------------------------------

  ==> Integral Setup <==

  ==> DiskDFJK: Density-Fitted J/K Matrices <==

    J tasked:                  Yes
    K tasked:                  Yes
    wK tasked:                  No
    OpenMP threads:              1
    Integrals threads:           1
    Memory [MiB]:            15735
    Algorithm:                Core
    Integral Cache:           LOAD
    Schwarz Cutoff:          1E-12
    Fitting Condition:       1E-10

   => Auxiliary Basis Set <=

  Basis Set: (JUN-CC-PVTZ AUX)
    Blend: JUN-CC-PVTZ-JKFIT
    Number of shells: 372
    Number of basis function: 1180
    Number of Cartesian functions: 1418
    Spherical Harmonics?: true
    Max angular momentum: 4

  Minimum eigenvalue in the overlap matrix is 4.8218905893E-05.
  Using Symmetric Orthogonalization.

  SCF Guess: Superposition of Atomic Densities via on-the-fly atomic UHF.

  ==> Iterations <==

                           Total Energy        Delta E     RMS |[F,P]|

   @DF-RHF iter SAD:  -156.79601454691553   -1.56796e+02   0.00000e+00 
   @DF-RHF iter   1:  -157.14966409018575   -3.53650e-01   1.13485e-03 DIIS
   @DF-RHF iter   2:  -157.31609401458854   -1.66430e-01   5.27579e-04 DIIS
   @DF-RHF iter   3:  -157.35335789416123   -3.72639e-02   9.30009e-05 DIIS
   @DF-RHF iter   4:  -157.35575209692533   -2.39420e-03   2.17211e-05 DIIS
   @DF-RHF iter   5:  -157.35584394439428   -9.18475e-05   5.61160e-06 DIIS
   @DF-RHF iter   6:  -157.35585160927036   -7.66488e-06   7.03383e-07 DIIS
   @DF-RHF iter   7:  -157.35585178946570   -1.80195e-07   1.24549e-07 DIIS
   @DF-RHF iter   8:  -157.35585179451584   -5.05014e-09   2.80363e-08 DIIS
   @DF-RHF iter   9:  -157.35585179479457   -2.78732e-10   6.49702e-09 DIIS
  Energy and wave function converged.


  ==> Post-Iterations <==

    Orbital Energies [Eh]
    ---------------------

    Doubly Occupied:                                                      

       1A    -11.213305     2A    -11.212655     3A    -11.207789  
       4A    -11.207465     5A     -1.071508     6A     -0.980239  
       7A     -0.860121     8A     -0.787391     9A     -0.639205  
      10A     -0.583986    11A     -0.575648    12A     -0.567165  
      13A     -0.513857    14A     -0.494394    15A     -0.469360  
      16A     -0.461624    17A     -0.455652  

    Virtual:                                                              

      18A      0.035669    19A      0.048760    20A      0.051688  
      21A      0.055415    22A      0.070198    23A      0.075442  
      24A      0.078959    25A      0.084594    26A      0.089640  
      27A      0.101079    28A      0.109210    29A      0.110182  
      30A      0.115525    31A      0.120101    32A      0.125399  
      33A      0.135807    34A      0.139908    35A      0.146036  
      36A      0.156466    37A      0.170722    38A      0.177039  
      39A      0.183666    40A      0.185147    41A      0.199377  
      42A      0.207163    43A      0.213423    44A      0.214880  
      45A      0.222353    46A      0.235542    47A      0.238574  
      48A      0.253156    49A      0.258102    50A      0.272814  
      51A      0.275005    52A      0.282904    53A      0.291007  
      54A      0.306351    55A      0.308325    56A      0.315929  
      57A      0.318579    58A      0.323854    59A      0.324456  
      60A      0.336957    61A      0.343865    62A      0.346351  
      63A      0.354280    64A      0.356804    65A      0.358928  
      66A      0.369400    67A      0.380657    68A      0.382417  
      69A      0.384800    70A      0.394350    71A      0.403260  
      72A      0.411614    73A      0.415351    74A      0.422176  
      75A      0.428769    76A      0.433141    77A      0.444690  
      78A      0.454892    79A      0.459370    80A      0.468183  
      81A      0.483074    82A      0.489030    83A      0.502234  
      84A      0.512653    85A      0.517424    86A      0.525069  
      87A      0.528942    88A      0.534498    89A      0.538078  
      90A      0.542835    91A      0.559827    92A      0.567195  
      93A      0.571218    94A      0.584410    95A      0.588295  
      96A      0.594974    97A      0.606974    98A      0.612172  
      99A      0.621924   100A      0.641108   101A      0.650191  
     102A      0.653433   103A      0.661885   104A      0.670453  
     105A      0.696160   106A      0.705229   107A      0.726334  
     108A      0.740639   109A      0.756568   110A      0.762114  
     111A      0.770407   112A      0.777784   113A      0.795151  
     114A      0.804180   115A      0.808044   116A      0.818621  
     117A      0.820746   118A      0.831546   119A      0.846779  
     120A      0.853390   121A      0.854297   122A      0.859910  
     123A      0.868410   124A      0.877272   125A      0.890512  
     126A      0.895018   127A      0.904658   128A      0.910070  
     129A      0.912974   130A      0.925425   131A      0.937432  
     132A      0.949107   133A      0.969073   134A      0.981526  
     135A      0.993709   136A      1.003433   137A      1.014143  
     138A      1.023986   139A      1.030702   140A      1.037838  
     141A      1.048954   142A      1.070935   143A      1.078581  
     144A      1.086949   145A      1.112378   146A      1.118212  
     147A      1.135812   148A      1.140557   149A      1.157108  
     150A      1.163812   151A      1.176608   152A      1.181003  
     153A      1.193114   154A      1.211602   155A      1.221060  
     156A      1.234291   157A      1.240816   158A      1.248862  
     159A      1.259570   160A      1.268343   161A      1.289883  
     162A      1.294593   163A      1.307206   164A      1.326656  
     165A      1.341810   166A      1.352698   167A      1.366052  
     168A      1.381716   169A      1.385186   170A      1.393466  
     171A      1.402381   172A      1.412867   173A      1.418229  
     174A      1.434275   175A      1.446280   176A      1.447879  
     177A      1.464249   178A      1.478222   179A      1.493978  
     180A      1.499431   181A      1.502576   182A      1.512628  
     183A      1.521619   184A      1.540384   185A      1.555645  
     186A      1.566417   187A      1.574192   188A      1.593345  
     189A      1.598913   190A      1.606381   191A      1.610030  
     192A      1.612915   193A      1.626564   194A      1.632310  
     195A      1.645364   196A      1.658450   197A      1.675750  
     198A      1.686228   199A      1.699098   200A      1.718363  
     201A      1.733762   202A      1.742627   203A      1.757734  
     204A      1.769695   205A      1.789835   206A      1.803803  
     207A      1.809785   208A      1.841634   209A      1.858458  
     210A      1.868496   211A      1.884351   212A      1.895984  
     213A      1.910683   214A      1.922161   215A      1.934906  
     216A      1.948917   217A      1.954664   218A      1.968382  
     219A      1.979390   220A      2.007661   221A      2.030583  
     222A      2.053490   223A      2.070599   224A      2.074182  
     225A      2.112758   226A      2.141916   227A      2.154496  
     228A      2.179196   229A      2.377159   230A      2.390245  
     231A      2.452172   232A      2.536493   233A      2.628780  
     234A      2.681152   235A      2.713551   236A      2.728628  
     237A      2.735864   238A      2.751681   239A      2.773278  
     240A      2.787268   241A      2.823639   242A      2.843901  
     243A      2.853836   244A      2.866845   245A      2.883163  
     246A      2.892165   247A      2.900088   248A      2.915978  
     249A      2.938364   250A      2.943441   251A      2.951359  
     252A      2.969681   253A      2.995708   254A      3.012520  
     255A      3.025768   256A      3.036662   257A      3.075000  
     258A      3.097871   259A      3.109913   260A      3.130148  
     261A      3.137560   262A      3.145193   263A      3.150636  
     264A      3.156402   265A      3.158981   266A      3.188142  
     267A      3.207763   268A      3.226483   269A      3.263118  
     270A      3.281158   271A      3.286864   272A      3.306415  
     273A      3.309343   274A      3.333894   275A      3.345143  
     276A      3.373588   277A      3.397642   278A      3.403358  
     279A      3.412431   280A      3.415548   281A      3.420519  
     282A      3.427406   283A      3.448962   284A      3.469235  
     285A      3.474099   286A      3.503509   287A      3.507750  
     288A      3.515691   289A      3.530174   290A      3.544324  
     291A      3.553922   292A      3.576640   293A      3.578428  
     294A      3.592439   295A      3.607059   296A      3.612101  
     297A      3.617910   298A      3.647596   299A      3.649749  
     300A      3.657716   301A      3.667858   302A      3.674319  
     303A      3.703148   304A      3.711404   305A      3.737010  
     306A      3.744760   307A      3.765679   308A      3.774140  
     309A      3.797228   310A      3.815436   311A      3.834193  
     312A      3.839536   313A      3.856580   314A      3.865890  
     315A      3.884989   316A      3.917138   317A      3.925296  
     318A      3.944808   319A      3.950292   320A      3.961251  
     321A      3.964494   322A      3.970246   323A      3.976535  
     324A      3.981205   325A      3.997902   326A      4.010460  
     327A      4.058229   328A      4.069565   329A      4.094910  
     330A      4.134945   331A      4.160323   332A      4.172018  
     333A      4.180713   334A      4.193060   335A      4.218913  
     336A      4.235051   337A      4.248590   338A      4.250272  
     339A      4.270625   340A      4.275366   341A      4.290900  
     342A      4.299503   343A      4.309977   344A      4.322711  
     345A      4.328961   346A      4.354833   347A      4.359218  
     348A      4.376934   349A      4.391364   350A      4.391564  
     351A      4.409623   352A      4.418844   353A      4.426031  
     354A      4.437421   355A      4.455647   356A      4.474450  
     357A      4.482229   358A      4.507333   359A      4.515598  
     360A      4.527006   361A      4.542492   362A      4.543500  
     363A      4.549760   364A      4.566531   365A      4.586115  
     366A      4.603718   367A      4.609957   368A      4.626018  
     369A      4.630108   370A      4.645496   371A      4.655534  
     372A      4.669027   373A      4.687441   374A      4.690392  
     375A      4.711352   376A      4.734604   377A      4.737654  
     378A      4.753216   379A      4.774922   380A      4.788478  
     381A      4.799685   382A      4.807439   383A      4.832604  
     384A      4.834736   385A      4.856706   386A      4.879375  
     387A      4.886548   388A      4.901153   389A      4.923024  
     390A      4.924698   391A      4.940707   392A      4.949817  
     393A      4.969004   394A      4.976365   395A      4.987108  
     396A      5.035807   397A      5.052314   398A      5.057143  
     399A      5.078713   400A      5.089003   401A      5.124644  
     402A      5.132081   403A      5.139878   404A      5.159386  
     405A      5.164158   406A      5.217848   407A      5.250695  
     408A      5.261792   409A      5.269381   410A      5.272196  
     411A      5.296767   412A      5.313356   413A      5.322554  
     414A      5.350976   415A      5.361010   416A      5.366407  
     417A      5.374872   418A      5.425656   419A      5.446959  
     420A      5.458156   421A      5.475522   422A      5.540225  
     423A      5.560599   424A      5.569855   425A      5.623427  
     426A      5.658321   427A      5.663596   428A      5.674162  
     429A      5.724407   430A      5.753245   431A      5.761926  
     432A      5.784336   433A      5.803476   434A      5.812902  
     435A      5.860745   436A      5.908789   437A      5.914438  
     438A      5.959071   439A      5.968575   440A      5.983964  
     441A      6.003590   442A      6.018457   443A      6.028384  
     444A      6.075838   445A      6.086638   446A      6.153677  
     447A      6.169411   448A      6.191559   449A      6.286528  
     450A      6.318448   451A      6.351320   452A      6.470712  
     453A      6.473022   454A      6.495383   455A      6.514135  
     456A      6.554670   457A      6.556999   458A      6.592219  
     459A      6.605241   460A      6.640048   461A      6.649734  
     462A      6.747001   463A      6.824072   464A      7.049891  
     465A      7.145144   466A      7.189317   467A      7.270750  
     468A      7.478893   469A      7.489352   470A      7.587403  
     471A      7.674529   472A      7.832227   473A      7.842058  
     474A      7.880709   475A      7.929262   476A      8.054766  
     477A      8.097731   478A      8.283963   479A      8.592111  
     480A      8.797535   481A      9.196013   482A      9.547238  
     483A      9.733221   484A      9.788429   485A      9.866624  
     486A      9.895204   487A      9.937536   488A      9.952541  
     489A      9.982734   490A     10.034502   491A     10.259031  
     492A     10.438152   493A     11.139647   494A     11.472120  
     495A     11.673941   496A     11.751543   497A     11.975959  
     498A     13.002019   499A     13.623018   500A     13.772852  
     501A     13.924963   502A     14.270284   503A     14.560298  
     504A     14.710770   505A     42.664966   506A     46.280078  
     507A     61.517372   508A     61.833861  

    Final Occupation by Irrep:
              A 
    DOCC [    17 ]

  @DF-RHF Final Energy:  -157.35585179479457

   => Energetics <=

    Nuclear Repulsion Energy =            131.1090972334766320
    One-Electron Energy =                -470.3271682325629968
    Two-Electron Energy =                 181.8622192042917902
    Total Energy =                       -157.3558517947945745

Computation Completed


Properties will be evaluated at   0.000000,   0.000000,   0.000000 [a0]

Properties computed using the SCF density matrix

  Nuclear Dipole Moment: [e a0]
     X:  -114.6564      Y:    19.8234      Z:    -0.8891

  Electronic Dipole Moment: [e a0]
     X:   114.6543      Y:   -19.8235      Z:     0.8900

  Dipole Moment: [e a0]
     X:    -0.0021      Y:    -0.0001      Z:     0.0009     Total:     0.0023

  Dipole Moment: [D]
     X:    -0.0054      Y:    -0.0003      Z:     0.0023     Total:     0.0059


*** tstop() called on r282 at Fri Sep 10 20:19:46 2021
Module time:
	user time   =      36.04 seconds =       0.60 minutes
	system time =       0.68 seconds =       0.01 minutes
	total time  =         36 seconds =       0.60 minutes
Total time:
	user time   =     149.70 seconds =       2.49 minutes
	system time =       2.87 seconds =       0.05 minutes
	total time  =        152 seconds =       2.53 minutes
  Constructing Basis Sets for SAPT...

   => Loading Basis Set <=

    Name: (JUN-CC-PVTZ AUX)
    Role: RIFIT
    Keyword: DF_BASIS_SAPT
    atoms 1, 5, 9, 13, 16, 19                entry C          line   132 file /home/r08543048/miniconda3/share/psi4/basis/jun-cc-pvtz-ri.gbs 
    atoms 2-3                                entry O          line   244 file /home/r08543048/miniconda3/share/psi4/basis/jun-cc-pvtz-ri.gbs 
    atoms 4, 6-8, 10-12, 14-15, 17-18, 20-22 entry H          line    30 file /home/r08543048/miniconda3/share/psi4/basis/jun-cc-pvtz-ri.gbs 


  //>>>>>>>>>>>>>>>>>>>>>>>>>>>>>>>>>>>//
  //               SAPT0               //
  //<<<<<<<<<<<<<<<<<<<<<<<<<<<<<<<<<<<//


*** tstart() called on r282
*** at Fri Sep 10 20:19:46 2021

        SAPT0  
    Ed Hohenstein
     6 June 2009

      Orbital Information
  --------------------------
    NSO        =       508
    NMO        =       508
    NRI        =      1196
    NOCC A     =        16
    NOCC B     =        17
    FOCC A     =         0
    FOCC B     =         0
    NVIR A     =       492
    NVIR B     =       491

    Elst10,r            =    -0.002330883320 [Eh]
    Exch10              =     0.006184837608 [Eh]
    Exch10 (S^2)        =     0.006177499093 [Eh]

    Iter     Energy [mEh]          dE [mEh]         Residual      Time [s]
       1      -0.34283450       0.342834503       2.419890172             1
       2      -0.41539114       0.072556639       0.566585052             2
       3      -0.41602775       0.000636609       0.190970756             2
       4      -0.41506116      -0.000966590       0.063234677             3
       5      -0.41489228      -0.000168881       0.017055485             4
       6      -0.41495605       0.000063768       0.006188444             5
       7      -0.41497428       0.000018234       0.001414274             6
       8      -0.41497102      -0.000003265       0.000543112             7
       9      -0.41496955      -0.000001470       0.000139630             8
      10      -0.41497011       0.000000560       0.000049451             9
      11      -0.41497003      -0.000000075       0.000016069            10
      12      -0.41497001      -0.000000025       0.000005376            11
      13      -0.41497001       0.000000008       0.000002066            12
      14      -0.41497002       0.000000002       0.000000712            13

    CHF Iterations converged


    Iter     Energy [mEh]          dE [mEh]         Residual      Time [s]
       1      -1.13885700       1.138857003       5.076659975             1
       2      -1.34199246       0.203135455       1.872648415             2
       3      -1.37322499       0.031232531       0.430474142             3
       4      -1.36862743      -0.004597556       0.122458286             4
       5      -1.36759721      -0.001030224       0.021599465             5
       6      -1.36786084       0.000263632       0.005554106             6
       7      -1.36788368       0.000022842       0.001426509             7
       8      -1.36787157      -0.000012112       0.000398863             8
       9      -1.36787048      -0.000001093       0.000092928             9
      10      -1.36787123       0.000000751       0.000021733            10
      11      -1.36787124       0.000000009       0.000006575            12
      12      -1.36787120      -0.000000036       0.000001499            13
      13      -1.36787120      -0.000000000       0.000000352            14

    CHF Iterations converged

    Ind20,r (A<-B)      =    -0.000414970016 [Eh]
    Ind20,r (B<-A)      =    -0.001367871204 [Eh]
    Ind20,r             =    -0.001782841220 [Eh]
    Exch-Ind20,r (A<-B) =     0.000362837179 [Eh]
    Exch-Ind20,r (B<-A) =     0.000926176733 [Eh]
    Exch-Ind20,r        =     0.001289013912 [Eh]
    Disp20              =    -0.008339907680 [Eh]
    Disp20 (SS)         =    -0.004169953840 [Eh]
    Disp20 (OS)         =    -0.004169953840 [Eh]
    Exch-Disp20         =     0.000696388769 [Eh]
    Exch-Disp20 (SS)    =     0.000452399014 [Eh]
    Exch-Disp20 (OS)    =     0.000243989754 [Eh]

    SAPT Results 
  --------------------------------------------------------------------------------------------------------
    Electrostatics                 -2.33088332 [mEh]      -1.46265137 [kcal/mol]      -6.11973331 [kJ/mol]
      Elst10,r                     -2.33088332 [mEh]      -1.46265137 [kcal/mol]      -6.11973331 [kJ/mol]

    Exchange                        6.18483761 [mEh]       3.88104419 [kcal/mol]      16.23828890 [kJ/mol]
      Exch10                        6.18483761 [mEh]       3.88104419 [kcal/mol]      16.23828890 [kJ/mol]
      Exch10(S^2)                   6.17749909 [mEh]       3.87643921 [kcal/mol]      16.21902164 [kJ/mol]

    Induction                      -0.84910765 [mEh]      -0.53282309 [kcal/mol]      -2.22933183 [kJ/mol]
      Ind20,r                      -1.78284122 [mEh]      -1.11874976 [kcal/mol]      -4.68084898 [kJ/mol]
      Exch-Ind20,r                  1.28901391 [mEh]       0.80886844 [kcal/mol]       3.38430556 [kJ/mol]
      delta HF,r (2)               -0.35528034 [mEh]      -0.22294178 [kcal/mol]      -0.93278841 [kJ/mol]

    Dispersion                     -7.64351891 [mEh]      -4.79638053 [kcal/mol]     -20.06805614 [kJ/mol]
      Disp20                       -8.33990768 [mEh]      -5.23337108 [kcal/mol]     -21.89642460 [kJ/mol]
      Exch-Disp20                   0.69638877 [mEh]       0.43699055 [kcal/mol]       1.82836846 [kJ/mol]
      Disp20 (SS)                  -4.16995384 [mEh]      -2.61668554 [kcal/mol]     -10.94821230 [kJ/mol]
      Disp20 (OS)                  -4.16995384 [mEh]      -2.61668554 [kcal/mol]     -10.94821230 [kJ/mol]
      Exch-Disp20 (SS)              0.45239901 [mEh]       0.28388467 [kcal/mol]       1.18777345 [kJ/mol]
      Exch-Disp20 (OS)              0.24398975 [mEh]       0.15310588 [kcal/mol]       0.64059501 [kJ/mol]

  Total HF                          3.00484664 [mEh]       1.88556973 [kcal/mol]       7.88922376 [kJ/mol]
  Total SAPT0                      -4.63867227 [mEh]      -2.91081080 [kcal/mol]     -12.17883238 [kJ/mol]

  Special recipe for scaled SAPT0 (see Manual):
    Electrostatics sSAPT0          -2.33088332 [mEh]      -1.46265137 [kcal/mol]      -6.11973331 [kJ/mol]
    Exchange sSAPT0                 6.18483761 [mEh]       3.88104419 [kcal/mol]      16.23828890 [kJ/mol]
    Induction sSAPT0               -0.84450837 [mEh]      -0.52993700 [kcal/mol]      -2.21725641 [kJ/mol]
    Dispersion sSAPT0              -7.64103415 [mEh]      -4.79482132 [kcal/mol]     -20.06153240 [kJ/mol]
  Total sSAPT0                     -4.63158823 [mEh]      -2.90636549 [kcal/mol]     -12.16023322 [kJ/mol]
  --------------------------------------------------------------------------------------------------------

*** tstop() called on r282 at Fri Sep 10 20:21:53 2021
Module time:
	user time   =     109.08 seconds =       1.82 minutes
	system time =      17.67 seconds =       0.29 minutes
	total time  =        127 seconds =       2.12 minutes
Total time:
	user time   =     258.92 seconds =       4.32 minutes
	system time =      20.54 seconds =       0.34 minutes
	total time  =        279 seconds =       4.65 minutes

    Psi4 stopped on: Friday, 10 September 2021 08:21PM
    Psi4 wall time for execution: 0:04:39.79

*** Psi4 exiting successfully. Buy a developer a beer!
