
    -----------------------------------------------------------------------
          Psi4: An Open-Source Ab Initio Electronic Structure Package
                               Psi4 1.3.2 release

                         Git: Rev {HEAD} ecbda83 


    R. M. Parrish, L. A. Burns, D. G. A. Smith, A. C. Simmonett,
    A. E. DePrince III, E. G. Hohenstein, U. Bozkaya, A. Yu. Sokolov,
    R. Di Remigio, R. M. Richard, J. F. Gonthier, A. M. James,
    H. R. McAlexander, A. Kumar, M. Saitow, X. Wang, B. P. Pritchard,
    P. Verma, H. F. Schaefer III, K. Patkowski, R. A. King, E. F. Valeev,
    F. A. Evangelista, J. M. Turney, T. D. Crawford, and C. D. Sherrill,
    J. Chem. Theory Comput. 13(7) pp 3185--3197 (2017).
    (doi: 10.1021/acs.jctc.7b00174)


                         Additional Contributions by
    P. Kraus, H. Kruse, M. H. Lechner, M. C. Schieber, R. A. Shaw,
    A. Alenaizan, R. Galvelis, Z. L. Glick, S. Lehtola, and J. P. Misiewicz

    -----------------------------------------------------------------------


    Psi4 started on: Friday, 10 September 2021 08:01PM

    Process ID: 57051
    Host:       r282
    PSIDATADIR: /home/r08543048/miniconda3/share/psi4
    Memory:     500.0 MiB
    Threads:    1
    
  ==> Input File <==

--------------------------------------------------------------------------
# Any line starting with the # character is a comment line
#! Sample  computation

memory 22 gb

molecule Dimer {
0 1
 C -1.955811    1.806094    0.339176
 C -1.902388    0.631483   -0.621336
 C -1.537887   -0.655117    0.063346
 O -1.278150   -0.789537    1.238765
 O -1.525015   -1.693069   -0.810347
 H -0.991970    1.955694    0.821208
 H -2.221326    2.717568   -0.193362
 H -2.693384    1.632664    1.120096
 H -1.171269    0.791732   -1.416443
 H -2.858741    0.473838   -1.123105
 H -1.267152   -2.472802   -0.293714





    
    
 --
0 1
 C   1.865092    2.043446   -0.317664
 H   0.963697    2.092884   -0.931121
 H   2.722015    2.158263   -0.982944
 H   1.852035    2.895486    0.361989
 C   1.938147    0.721305    0.436133
 H   2.840471    0.699898    1.053448
 H   1.092232    0.631252    1.122873
 C   1.947528   -0.482871   -0.497708
 H   2.798044   -0.401949   -1.180592
 H   1.051181   -0.461657   -1.124612
 C   2.013737   -1.803873    0.258740
 H   1.171855   -1.893224    0.946940
 H   1.997465   -2.656867   -0.420188
 H   2.929660   -1.864724    0.848061





units angstrom

no_reorient
symmetry c1
}

set globals{
  basis jun-cc-pvtz
}

energy('sapt0')


--------------------------------------------------------------------------

  Memory set to  20.489 GiB by Python driver.

  //>>>>>>>>>>>>>>>>>>>>>>>>>>>>>>>>>>>//
  //              Dimer HF             //
  //<<<<<<<<<<<<<<<<<<<<<<<<<<<<<<<<<<<//


*** tstart() called on r282
*** at Fri Sep 10 20:01:29 2021

   => Loading Basis Set <=

    Name: JUN-CC-PVTZ
    Role: ORBITAL
    Keyword: BASIS
    atoms 1-3, 12, 16, 19, 22              entry C          line   217 file /home/r08543048/miniconda3/share/psi4/basis/jun-cc-pvtz.gbs 
    atoms 4-5                              entry O          line   305 file /home/r08543048/miniconda3/share/psi4/basis/jun-cc-pvtz.gbs 
    atoms 6-11, 13-15, 17-18, 20-21, 23-25 entry H          line    36 file /home/r08543048/miniconda3/share/psi4/basis/jun-cc-pvtz.gbs 


         ---------------------------------------------------------
                                   SCF
               by Justin Turney, Rob Parrish, Andy Simmonett
                          and Daniel G. A. Smith
                              RHF Reference
                        1 Threads,  20980 MiB Core
         ---------------------------------------------------------

  ==> Geometry <==

    Molecular point group: c1
    Full point group: C1

    Geometry (in Angstrom), charge = 0, multiplicity = 1:

       Center              X                  Y                   Z               Mass       
    ------------   -----------------  -----------------  -----------------  -----------------
         C           -1.894226222869     1.853296264000     0.328742674831    12.000000000000
         C           -1.840803222869     0.678685264000    -0.631769325169    12.000000000000
         C           -1.476302222869    -0.607914736000     0.052912674831    12.000000000000
         O           -1.216565222869    -0.742334736000     1.228331674831    15.994914619570
         O           -1.463430222869    -1.645866736000    -0.820780325169    15.994914619570
         H           -0.930385222869     2.002896264000     0.810774674831     1.007825032230
         H           -2.159741222869     2.764770264000    -0.203795325169     1.007825032230
         H           -2.631799222869     1.679866264000     1.109662674831     1.007825032230
         H           -1.109684222869     0.838934264000    -1.426876325169     1.007825032230
         H           -2.797156222869     0.521040264000    -1.133538325169     1.007825032230
         H           -1.205567222869    -2.425599736000    -0.304147325169     1.007825032230
         C            1.926676777131     2.090648264000    -0.328097325169    12.000000000000
         H            1.025281777131     2.140086264000    -0.941554325169     1.007825032230
         H            2.783599777131     2.205465264000    -0.993377325169     1.007825032230
         H            1.913619777131     2.942688264000     0.351555674831     1.007825032230
         C            1.999731777131     0.768507264000     0.425699674831    12.000000000000
         H            2.902055777131     0.747100264000     1.043014674831     1.007825032230
         H            1.153816777131     0.678454264000     1.112439674831     1.007825032230
         C            2.009112777131    -0.435668736000    -0.508141325169    12.000000000000
         H            2.859628777131    -0.354746736000    -1.191025325169     1.007825032230
         H            1.112765777131    -0.414454736000    -1.135045325169     1.007825032230
         C            2.075321777131    -1.756670736000     0.248306674831    12.000000000000
         H            1.233439777131    -1.846021736000     0.936506674831     1.007825032230
         H            2.059049777131    -2.609664736000    -0.430621325169     1.007825032230
         H            2.991244777131    -1.817521736000     0.837627674831     1.007825032230

  Running in c1 symmetry.

  Rotational constants: A =      0.05286  B =      0.03416  C =      0.02453 [cm^-1]
  Rotational constants: A =   1584.74025  B =   1024.23717  C =    735.43874 [MHz]
  Nuclear repulsion =  484.410826324372920

  Charge       = 0
  Multiplicity = 1
  Electrons    = 74
  Nalpha       = 37
  Nbeta        = 37

  ==> Algorithm <==

  SCF Algorithm Type is DF.
  DIIS enabled.
  MOM disabled.
  Fractional occupation disabled.
  Guess Type is SAD.
  Energy threshold   = 1.00e-08
  Density threshold  = 1.00e-08
  Integral threshold = 0.00e+00

  ==> Primary Basis <==

  Basis Set: JUN-CC-PVTZ
    Blend: JUN-CC-PVTZ
    Number of shells: 213
    Number of basis function: 575
    Number of Cartesian functions: 645
    Spherical Harmonics?: true
    Max angular momentum: 3

   => Loading Basis Set <=

    Name: (JUN-CC-PVTZ AUX)
    Role: JKFIT
    Keyword: DF_BASIS_SCF
    atoms 1-3, 12, 16, 19, 22              entry C          line   152 file /home/r08543048/miniconda3/share/psi4/basis/jun-cc-pvtz-jkfit.gbs 
    atoms 4-5                              entry O          line   272 file /home/r08543048/miniconda3/share/psi4/basis/jun-cc-pvtz-jkfit.gbs 
    atoms 6-11, 13-15, 17-18, 20-21, 23-25 entry H          line    70 file /home/r08543048/miniconda3/share/psi4/basis/jun-cc-pvtz-jkfit.gbs 

  ==> Pre-Iterations <==

   -------------------------------------------------------
    Irrep   Nso     Nmo     Nalpha   Nbeta   Ndocc  Nsocc
   -------------------------------------------------------
     A        575     575       0       0       0       0
   -------------------------------------------------------
    Total     575     575      37      37      37       0
   -------------------------------------------------------

  ==> Integral Setup <==

  ==> DiskDFJK: Density-Fitted J/K Matrices <==

    J tasked:                  Yes
    K tasked:                  Yes
    wK tasked:                  No
    OpenMP threads:              1
    Integrals threads:           1
    Memory [MiB]:            15735
    Algorithm:                Core
    Integral Cache:           SAVE
    Schwarz Cutoff:          1E-12
    Fitting Condition:       1E-10

   => Auxiliary Basis Set <=

  Basis Set: (JUN-CC-PVTZ AUX)
    Blend: JUN-CC-PVTZ-JKFIT
    Number of shells: 421
    Number of basis function: 1335
    Number of Cartesian functions: 1604
    Spherical Harmonics?: true
    Max angular momentum: 4

  Minimum eigenvalue in the overlap matrix is 3.6946443550E-05.
  Using Symmetric Orthogonalization.

  SCF Guess: Superposition of Atomic Densities via on-the-fly atomic UHF.

  ==> Iterations <==

                           Total Energy        Delta E     RMS |[F,P]|

   @DF-RHF iter SAD:  -423.04215134048781   -4.23042e+02   0.00000e+00 
   @DF-RHF iter   1:  -423.90426385526587   -8.62113e-01   1.49431e-03 DIIS
   @DF-RHF iter   2:  -424.21593030443586   -3.11666e-01   7.90052e-04 DIIS
   @DF-RHF iter   3:  -424.29876692175958   -8.28366e-02   1.52872e-04 DIIS
   @DF-RHF iter   4:  -424.30387665501092   -5.10973e-03   7.65862e-05 DIIS
   @DF-RHF iter   5:  -424.30487150364911   -9.94849e-04   1.33398e-05 DIIS
   @DF-RHF iter   6:  -424.30493142686458   -5.99232e-05   5.95931e-06 DIIS
   @DF-RHF iter   7:  -424.30494136288979   -9.93603e-06   2.12860e-06 DIIS
   @DF-RHF iter   8:  -424.30494343677447   -2.07388e-06   8.86935e-07 DIIS
   @DF-RHF iter   9:  -424.30494380039909   -3.63625e-07   2.82292e-07 DIIS
   @DF-RHF iter  10:  -424.30494383496881   -3.45697e-08   6.78193e-08 DIIS
   @DF-RHF iter  11:  -424.30494383695884   -1.99003e-09   1.87668e-08 DIIS
   @DF-RHF iter  12:  -424.30494383709015   -1.31308e-10   5.13814e-09 DIIS
  Energy and wave function converged.


  ==> Post-Iterations <==

    Orbital Energies [Eh]
    ---------------------

    Doubly Occupied:                                                      

       1A    -20.614600     2A    -20.552183     3A    -11.388281  
       4A    -11.249621     5A    -11.222674     6A    -11.212663  
       7A    -11.209976     8A    -11.208841     9A    -11.204466  
      10A     -1.465216    11A     -1.362076    12A     -1.071785  
      13A     -1.068882    14A     -0.979794    15A     -0.917279  
      16A     -0.859538    17A     -0.794828    18A     -0.786682  
      19A     -0.707562    20A     -0.691228    21A     -0.669697  
      22A     -0.632306    23A     -0.599660    24A     -0.597919  
      25A     -0.583874    26A     -0.575111    27A     -0.563574  
      28A     -0.536557    29A     -0.527996    30A     -0.513648  
      31A     -0.507305    32A     -0.493640    33A     -0.488963  
      34A     -0.467883    35A     -0.457169    36A     -0.454820  
      37A     -0.454690  

    Virtual:                                                              

      38A      0.045339    39A      0.050139    40A      0.056172  
      41A      0.056920    42A      0.068622    43A      0.072695  
      44A      0.076589    45A      0.086676    46A      0.091694  
      47A      0.103204    48A      0.107656    49A      0.113760  
      50A      0.116734    51A      0.118190    52A      0.123112  
      53A      0.133292    54A      0.140203    55A      0.141073  
      56A      0.147574    57A      0.153266    58A      0.160609  
      59A      0.170557    60A      0.179439    61A      0.184379  
      62A      0.187548    63A      0.196494    64A      0.208120  
      65A      0.213920    66A      0.216948    67A      0.217858  
      68A      0.223147    69A      0.246966    70A      0.256608  
      71A      0.261564    72A      0.266623    73A      0.276805  
      74A      0.278821    75A      0.285952    76A      0.290581  
      77A      0.295542    78A      0.302578    79A      0.307245  
      80A      0.311968    81A      0.312640    82A      0.317029  
      83A      0.319665    84A      0.326203    85A      0.330084  
      86A      0.337358    87A      0.340282    88A      0.347361  
      89A      0.352335    90A      0.359307    91A      0.365290  
      92A      0.367867    93A      0.374873    94A      0.383101  
      95A      0.393218    96A      0.394547    97A      0.402220  
      98A      0.404402    99A      0.410655   100A      0.418358  
     101A      0.428191   102A      0.432869   103A      0.440084  
     104A      0.445163   105A      0.456365   106A      0.458943  
     107A      0.464291   108A      0.469833   109A      0.485462  
     110A      0.496958   111A      0.499753   112A      0.505098  
     113A      0.518598   114A      0.525148   115A      0.529356  
     116A      0.532557   117A      0.536621   118A      0.542985  
     119A      0.553838   120A      0.561264   121A      0.569660  
     122A      0.574432   123A      0.583618   124A      0.587186  
     125A      0.588661   126A      0.602101   127A      0.609978  
     128A      0.621040   129A      0.622302   130A      0.634979  
     131A      0.640943   132A      0.648485   133A      0.664507  
     134A      0.670838   135A      0.691485   136A      0.696544  
     137A      0.712285   138A      0.722655   139A      0.723772  
     140A      0.728581   141A      0.736576   142A      0.744368  
     143A      0.760294   144A      0.766696   145A      0.771804  
     146A      0.778375   147A      0.789238   148A      0.793323  
     149A      0.803831   150A      0.816457   151A      0.819124  
     152A      0.822347   153A      0.824669   154A      0.833803  
     155A      0.840512   156A      0.853968   157A      0.859620  
     158A      0.862793   159A      0.865085   160A      0.868824  
     161A      0.876126   162A      0.885671   163A      0.893615  
     164A      0.896421   165A      0.912234   166A      0.916552  
     167A      0.924396   168A      0.927763   169A      0.933954  
     170A      0.948738   171A      0.956418   172A      0.960873  
     173A      0.971947   174A      0.994594   175A      0.998251  
     176A      1.008548   177A      1.015976   178A      1.032726  
     179A      1.040456   180A      1.055819   181A      1.060252  
     182A      1.079432   183A      1.090405   184A      1.095291  
     185A      1.111390   186A      1.122271   187A      1.139467  
     188A      1.153605   189A      1.163614   190A      1.178354  
     191A      1.194652   192A      1.205144   193A      1.214626  
     194A      1.223678   195A      1.235055   196A      1.248393  
     197A      1.249636   198A      1.271911   199A      1.277942  
     200A      1.297916   201A      1.312481   202A      1.320150  
     203A      1.328707   204A      1.336570   205A      1.349148  
     206A      1.351100   207A      1.361919   208A      1.369830  
     209A      1.387127   210A      1.394704   211A      1.399578  
     212A      1.405811   213A      1.416217   214A      1.432628  
     215A      1.441566   216A      1.443443   217A      1.458089  
     218A      1.468136   219A      1.478260   220A      1.480908  
     221A      1.488828   222A      1.497839   223A      1.507436  
     224A      1.511537   225A      1.513386   226A      1.520770  
     227A      1.532519   228A      1.538045   229A      1.559015  
     230A      1.561300   231A      1.571612   232A      1.581890  
     233A      1.591063   234A      1.603259   235A      1.610408  
     236A      1.621809   237A      1.625432   238A      1.631793  
     239A      1.643330   240A      1.647710   241A      1.651619  
     242A      1.659252   243A      1.662972   244A      1.682238  
     245A      1.697138   246A      1.715194   247A      1.719584  
     248A      1.725684   249A      1.725831   250A      1.759511  
     251A      1.764094   252A      1.771669   253A      1.784870  
     254A      1.788326   255A      1.812628   256A      1.820113  
     257A      1.831168   258A      1.849817   259A      1.870383  
     260A      1.891009   261A      1.910615   262A      1.918730  
     263A      1.933806   264A      1.942499   265A      1.944155  
     266A      1.954959   267A      1.965969   268A      1.968587  
     269A      2.006356   270A      2.013609   271A      2.024786  
     272A      2.050675   273A      2.085271   274A      2.139034  
     275A      2.171780   276A      2.238609   277A      2.285233  
     278A      2.318466   279A      2.357531   280A      2.411503  
     281A      2.466349   282A      2.485462   283A      2.498572  
     284A      2.610734   285A      2.619796   286A      2.734377  
     287A      2.742974   288A      2.760261   289A      2.771894  
     290A      2.780965   291A      2.821703   292A      2.837417  
     293A      2.860185   294A      2.868737   295A      2.879551  
     296A      2.885271   297A      2.896100   298A      2.918216  
     299A      2.922284   300A      2.934016   301A      2.942955  
     302A      2.957485   303A      2.962140   304A      2.974982  
     305A      2.996552   306A      3.026872   307A      3.032407  
     308A      3.036457   309A      3.045455   310A      3.061886  
     311A      3.099282   312A      3.110493   313A      3.114875  
     314A      3.134360   315A      3.139835   316A      3.141190  
     317A      3.148154   318A      3.160363   319A      3.172420  
     320A      3.186465   321A      3.191251   322A      3.195907  
     323A      3.219755   324A      3.234535   325A      3.259352  
     326A      3.269020   327A      3.283252   328A      3.289412  
     329A      3.307968   330A      3.311313   331A      3.332872  
     332A      3.334245   333A      3.345521   334A      3.358245  
     335A      3.370206   336A      3.376700   337A      3.390905  
     338A      3.401618   339A      3.406788   340A      3.418004  
     341A      3.427993   342A      3.429470   343A      3.435677  
     344A      3.451022   345A      3.469545   346A      3.473964  
     347A      3.482748   348A      3.483302   349A      3.490555  
     350A      3.502330   351A      3.507762   352A      3.510410  
     353A      3.524603   354A      3.525661   355A      3.534373  
     356A      3.548874   357A      3.568372   358A      3.571875  
     359A      3.578849   360A      3.581300   361A      3.605450  
     362A      3.608747   363A      3.613259   364A      3.625543  
     365A      3.635384   366A      3.648622   367A      3.653860  
     368A      3.670485   369A      3.674035   370A      3.680516  
     371A      3.690888   372A      3.706685   373A      3.720289  
     374A      3.734856   375A      3.752294   376A      3.758166  
     377A      3.765705   378A      3.773928   379A      3.805888  
     380A      3.824033   381A      3.833899   382A      3.842412  
     383A      3.846992   384A      3.853598   385A      3.859564  
     386A      3.870169   387A      3.889851   388A      3.894863  
     389A      3.899099   390A      3.906731   391A      3.943593  
     392A      3.951307   393A      3.955011   394A      3.962446  
     395A      3.974543   396A      3.984484   397A      3.994346  
     398A      4.005562   399A      4.012329   400A      4.024739  
     401A      4.049470   402A      4.081735   403A      4.096612  
     404A      4.108929   405A      4.155871   406A      4.177062  
     407A      4.187854   408A      4.205354   409A      4.207525  
     410A      4.220312   411A      4.230179   412A      4.236270  
     413A      4.243796   414A      4.248250   415A      4.257823  
     416A      4.274074   417A      4.286139   418A      4.298182  
     419A      4.303951   420A      4.307263   421A      4.319067  
     422A      4.329012   423A      4.333011   424A      4.344048  
     425A      4.353373   426A      4.360215   427A      4.368494  
     428A      4.384215   429A      4.394664   430A      4.399184  
     431A      4.425648   432A      4.433543   433A      4.440341  
     434A      4.452723   435A      4.459762   436A      4.465771  
     437A      4.479161   438A      4.490423   439A      4.500423  
     440A      4.516349   441A      4.523195   442A      4.534380  
     443A      4.544899   444A      4.551353   445A      4.560940  
     446A      4.568707   447A      4.590122   448A      4.604638  
     449A      4.619826   450A      4.626393   451A      4.641640  
     452A      4.662840   453A      4.666051   454A      4.673519  
     455A      4.684162   456A      4.706490   457A      4.723266  
     458A      4.726861   459A      4.744875   460A      4.746023  
     461A      4.759293   462A      4.763752   463A      4.813383  
     464A      4.839847   465A      4.844866   466A      4.854477  
     467A      4.877045   468A      4.898883   469A      4.918105  
     470A      4.931819   471A      4.945827   472A      4.957906  
     473A      4.967105   474A      5.013900   475A      5.041824  
     476A      5.060654   477A      5.084993   478A      5.118713  
     479A      5.130909   480A      5.138482   481A      5.141659  
     482A      5.164651   483A      5.177137   484A      5.250096  
     485A      5.255970   486A      5.263573   487A      5.272665  
     488A      5.276967   489A      5.290436   490A      5.302935  
     491A      5.317552   492A      5.321245   493A      5.332590  
     494A      5.339166   495A      5.358826   496A      5.364071  
     497A      5.370658   498A      5.378767   499A      5.441236  
     500A      5.452522   501A      5.465869   502A      5.480129  
     503A      5.492188   504A      5.536842   505A      5.551822  
     506A      5.565237   507A      5.626970   508A      5.633125  
     509A      5.647366   510A      5.659256   511A      5.660560  
     512A      5.676271   513A      5.680751   514A      5.738019  
     515A      5.750534   516A      5.758934   517A      5.763718  
     518A      5.783223   519A      5.799589   520A      5.813209  
     521A      5.822617   522A      5.845297   523A      5.868506  
     524A      5.872848   525A      5.897689   526A      5.906714  
     527A      5.914915   528A      5.923128   529A      5.959415  
     530A      5.961745   531A      5.971786   532A      6.001594  
     533A      6.016870   534A      6.045565   535A      6.071480  
     536A      6.090270   537A      6.153289   538A      6.200000  
     539A      6.305071   540A      6.460037   541A      6.495993  
     542A      6.502752   543A      6.529796   544A      6.534770  
     545A      6.557717   546A      6.559753   547A      6.588224  
     548A      6.618998   549A      6.660649   550A      6.720870  
     551A      6.809859   552A      7.013270   553A      7.025239  
     554A      7.094502   555A      7.212691   556A      7.293506  
     557A      7.322231   558A      7.370203   559A      7.387211  
     560A      7.399284   561A      7.486755   562A      7.627951  
     563A      7.758015   564A      7.827034   565A      7.982331  
     566A      8.148894   567A     12.234699   568A     13.722844  
     569A     14.186555   570A     14.248401   571A     14.323759  
     572A     14.533770   573A     14.647996   574A     14.760225  
     575A     14.873701  

    Final Occupation by Irrep:
              A 
    DOCC [    37 ]

  @DF-RHF Final Energy:  -424.30494383709015

   => Energetics <=

    Nuclear Repulsion Energy =            484.4108263243729198
    One-Electron Energy =               -1538.0455630049364117
    Two-Electron Energy =                 629.3297928434733421
    Total Energy =                       -424.3049438370901498

Computation Completed


Properties will be evaluated at   0.000000,   0.000000,   0.000000 [a0]

Properties computed using the SCF density matrix

  Nuclear Dipole Moment: [e a0]
     X:     8.6120      Y:     6.6008      Z:    -1.4590

  Electronic Dipole Moment: [e a0]
     X:    -8.7823      Y:    -6.4538      Z:     0.8463

  Dipole Moment: [e a0]
     X:    -0.1703      Y:     0.1469      Z:    -0.6127     Total:     0.6527

  Dipole Moment: [D]
     X:    -0.4329      Y:     0.3735      Z:    -1.5574     Total:     1.6590


*** tstop() called on r282 at Fri Sep 10 20:03:31 2021
Module time:
	user time   =     119.81 seconds =       2.00 minutes
	system time =       2.22 seconds =       0.04 minutes
	total time  =        122 seconds =       2.03 minutes
Total time:
	user time   =     119.81 seconds =       2.00 minutes
	system time =       2.22 seconds =       0.04 minutes
	total time  =        122 seconds =       2.03 minutes

  //>>>>>>>>>>>>>>>>>>>>>>>>>>>>>>>>>>>//
  //            Monomer A HF           //
  //<<<<<<<<<<<<<<<<<<<<<<<<<<<<<<<<<<<//


*** tstart() called on r282
*** at Fri Sep 10 20:03:31 2021

   => Loading Basis Set <=

    Name: JUN-CC-PVTZ
    Role: ORBITAL
    Keyword: BASIS
    atoms 1-3, 12, 16, 19, 22              entry C          line   217 file /home/r08543048/miniconda3/share/psi4/basis/jun-cc-pvtz.gbs 
    atoms 4-5                              entry O          line   305 file /home/r08543048/miniconda3/share/psi4/basis/jun-cc-pvtz.gbs 
    atoms 6-11, 13-15, 17-18, 20-21, 23-25 entry H          line    36 file /home/r08543048/miniconda3/share/psi4/basis/jun-cc-pvtz.gbs 


         ---------------------------------------------------------
                                   SCF
               by Justin Turney, Rob Parrish, Andy Simmonett
                          and Daniel G. A. Smith
                              RHF Reference
                        1 Threads,  20980 MiB Core
         ---------------------------------------------------------

  ==> Geometry <==

    Molecular point group: c1
    Full point group: C1

    Geometry (in Angstrom), charge = 0, multiplicity = 1:

       Center              X                  Y                   Z               Mass       
    ------------   -----------------  -----------------  -----------------  -----------------
         C           -1.894226222869     1.853296264000     0.328742674831    12.000000000000
         C           -1.840803222869     0.678685264000    -0.631769325169    12.000000000000
         C           -1.476302222869    -0.607914736000     0.052912674831    12.000000000000
         O           -1.216565222869    -0.742334736000     1.228331674831    15.994914619570
         O           -1.463430222869    -1.645866736000    -0.820780325169    15.994914619570
         H           -0.930385222869     2.002896264000     0.810774674831     1.007825032230
         H           -2.159741222869     2.764770264000    -0.203795325169     1.007825032230
         H           -2.631799222869     1.679866264000     1.109662674831     1.007825032230
         H           -1.109684222869     0.838934264000    -1.426876325169     1.007825032230
         H           -2.797156222869     0.521040264000    -1.133538325169     1.007825032230
         H           -1.205567222869    -2.425599736000    -0.304147325169     1.007825032230
      Gh(C)           1.926676777131     2.090648264000    -0.328097325169    12.000000000000
      Gh(H)           1.025281777131     2.140086264000    -0.941554325169     1.007825032230
      Gh(H)           2.783599777131     2.205465264000    -0.993377325169     1.007825032230
      Gh(H)           1.913619777131     2.942688264000     0.351555674831     1.007825032230
      Gh(C)           1.999731777131     0.768507264000     0.425699674831    12.000000000000
      Gh(H)           2.902055777131     0.747100264000     1.043014674831     1.007825032230
      Gh(H)           1.153816777131     0.678454264000     1.112439674831     1.007825032230
      Gh(C)           2.009112777131    -0.435668736000    -0.508141325169    12.000000000000
      Gh(H)           2.859628777131    -0.354746736000    -1.191025325169     1.007825032230
      Gh(H)           1.112765777131    -0.414454736000    -1.135045325169     1.007825032230
      Gh(C)           2.075321777131    -1.756670736000     0.248306674831    12.000000000000
      Gh(H)           1.233439777131    -1.846021736000     0.936506674831     1.007825032230
      Gh(H)           2.059049777131    -2.609664736000    -0.430621325169     1.007825032230
      Gh(H)           2.991244777131    -1.817521736000     0.837627674831     1.007825032230

  Running in c1 symmetry.

  Rotational constants: A =      0.05286  B =      0.03416  C =      0.02453 [cm^-1]
  Rotational constants: A =   1584.74025  B =   1024.23717  C =    735.43874 [MHz]
  Nuclear repulsion =  178.574155885044036

  Charge       = 0
  Multiplicity = 1
  Electrons    = 40
  Nalpha       = 20
  Nbeta        = 20

  ==> Algorithm <==

  SCF Algorithm Type is DF.
  DIIS enabled.
  MOM disabled.
  Fractional occupation disabled.
  Guess Type is SAD.
  Energy threshold   = 1.00e-08
  Density threshold  = 1.00e-08
  Integral threshold = 0.00e+00

  ==> Primary Basis <==

  Basis Set: JUN-CC-PVTZ
    Blend: JUN-CC-PVTZ
    Number of shells: 213
    Number of basis function: 575
    Number of Cartesian functions: 645
    Spherical Harmonics?: true
    Max angular momentum: 3

   => Loading Basis Set <=

    Name: (JUN-CC-PVTZ AUX)
    Role: JKFIT
    Keyword: DF_BASIS_SCF
    atoms 1-3, 12, 16, 19, 22              entry C          line   152 file /home/r08543048/miniconda3/share/psi4/basis/jun-cc-pvtz-jkfit.gbs 
    atoms 4-5                              entry O          line   272 file /home/r08543048/miniconda3/share/psi4/basis/jun-cc-pvtz-jkfit.gbs 
    atoms 6-11, 13-15, 17-18, 20-21, 23-25 entry H          line    70 file /home/r08543048/miniconda3/share/psi4/basis/jun-cc-pvtz-jkfit.gbs 

  ==> Pre-Iterations <==

   -------------------------------------------------------
    Irrep   Nso     Nmo     Nalpha   Nbeta   Ndocc  Nsocc
   -------------------------------------------------------
     A        575     575       0       0       0       0
   -------------------------------------------------------
    Total     575     575      20      20      20       0
   -------------------------------------------------------

  ==> Integral Setup <==

  ==> DiskDFJK: Density-Fitted J/K Matrices <==

    J tasked:                  Yes
    K tasked:                  Yes
    wK tasked:                  No
    OpenMP threads:              1
    Integrals threads:           1
    Memory [MiB]:            15735
    Algorithm:                Core
    Integral Cache:           LOAD
    Schwarz Cutoff:          1E-12
    Fitting Condition:       1E-10

   => Auxiliary Basis Set <=

  Basis Set: (JUN-CC-PVTZ AUX)
    Blend: JUN-CC-PVTZ-JKFIT
    Number of shells: 421
    Number of basis function: 1335
    Number of Cartesian functions: 1604
    Spherical Harmonics?: true
    Max angular momentum: 4

  Minimum eigenvalue in the overlap matrix is 3.6946443550E-05.
  Using Symmetric Orthogonalization.

  SCF Guess: Superposition of Atomic Densities via on-the-fly atomic UHF.

  ==> Iterations <==

                           Total Energy        Delta E     RMS |[F,P]|

   @DF-RHF iter SAD:  -266.06313016650603   -2.66063e+02   0.00000e+00 
   @DF-RHF iter   1:  -266.75366991296949   -6.90540e-01   1.12790e-03 DIIS
   @DF-RHF iter   2:  -266.90056872052702   -1.46899e-01   6.60800e-04 DIIS
   @DF-RHF iter   3:  -266.94940552767650   -4.88368e-02   1.16071e-04 DIIS
   @DF-RHF iter   4:  -266.95215080851318   -2.74528e-03   5.54047e-05 DIIS
   @DF-RHF iter   5:  -266.95275136696523   -6.00558e-04   1.12067e-05 DIIS
   @DF-RHF iter   6:  -266.95279604721873   -4.46803e-05   5.54560e-06 DIIS
   @DF-RHF iter   7:  -266.95280527257114   -9.22535e-06   1.98519e-06 DIIS
   @DF-RHF iter   8:  -266.95280719126026   -1.91869e-06   7.01234e-07 DIIS
   @DF-RHF iter   9:  -266.95280744393017   -2.52670e-07   1.63484e-07 DIIS
   @DF-RHF iter  10:  -266.95280745625155   -1.23214e-08   4.89044e-08 DIIS
   @DF-RHF iter  11:  -266.95280745698864   -7.37089e-10   1.20320e-08 DIIS
   @DF-RHF iter  12:  -266.95280745704247   -5.38307e-11   2.78255e-09 DIIS
  Energy and wave function converged.


  ==> Post-Iterations <==

    Orbital Energies [Eh]
    ---------------------

    Doubly Occupied:                                                      

       1A    -20.613955     2A    -20.551132     3A    -11.386982  
       4A    -11.249245     5A    -11.222785     6A     -1.463898  
       7A     -1.360450     8A     -1.069334     9A     -0.916574  
      10A     -0.794010    11A     -0.705828    12A     -0.689973  
      13A     -0.662035    14A     -0.598404    15A     -0.593823  
      16A     -0.536107    17A     -0.527595    18A     -0.506367  
      19A     -0.484148    20A     -0.453812  

    Virtual:                                                              

      21A      0.029797    22A      0.041644    23A      0.050832  
      24A      0.052857    25A      0.065151    26A      0.068612  
      27A      0.072657    28A      0.083462    29A      0.086881  
      30A      0.101214    31A      0.102709    32A      0.104872  
      33A      0.112772    34A      0.116349    35A      0.119441  
      36A      0.122339    37A      0.129351    38A      0.138112  
      39A      0.144095    40A      0.145901    41A      0.147395  
      42A      0.154652    43A      0.162988    44A      0.171370  
      45A      0.172318    46A      0.179529    47A      0.184934  
      48A      0.193927    49A      0.199944    50A      0.212631  
      51A      0.227134    52A      0.227814    53A      0.246025  
      54A      0.248826    55A      0.259728    56A      0.262406  
      57A      0.278062    58A      0.279679    59A      0.285709  
      60A      0.288761    61A      0.295138    62A      0.300252  
      63A      0.303708    64A      0.310778    65A      0.317173  
      66A      0.323851    67A      0.331534    68A      0.333776  
      69A      0.340859    70A      0.342675    71A      0.349278  
      72A      0.352351    73A      0.354813    74A      0.364738  
      75A      0.369847    76A      0.379529    77A      0.384696  
      78A      0.389330    79A      0.396304    80A      0.399642  
      81A      0.406759    82A      0.417836    83A      0.423716  
      84A      0.425384    85A      0.436545    86A      0.440071  
      87A      0.453879    88A      0.455035    89A      0.469862  
      90A      0.476336    91A      0.485844    92A      0.490771  
      93A      0.495149    94A      0.514126    95A      0.519933  
      96A      0.524157    97A      0.533871    98A      0.537100  
      99A      0.541724   100A      0.545793   101A      0.549062  
     102A      0.564540   103A      0.571004   104A      0.580136  
     105A      0.580875   106A      0.586402   107A      0.589963  
     108A      0.603409   109A      0.607964   110A      0.614515  
     111A      0.618843   112A      0.621763   113A      0.643031  
     114A      0.646031   115A      0.651047   116A      0.654916  
     117A      0.665723   118A      0.670590   119A      0.680585  
     120A      0.683947   121A      0.693794   122A      0.694917  
     123A      0.710666   124A      0.716542   125A      0.725742  
     126A      0.728560   127A      0.736745   128A      0.743409  
     129A      0.766390   130A      0.769738   131A      0.778103  
     132A      0.798137   133A      0.801535   134A      0.810897  
     135A      0.829880   136A      0.840612   137A      0.844358  
     138A      0.850873   139A      0.863406   140A      0.878324  
     141A      0.887858   142A      0.894031   143A      0.895189  
     144A      0.917395   145A      0.925273   146A      0.938754  
     147A      0.943524   148A      0.947545   149A      0.972742  
     150A      0.990084   151A      1.028775   152A      1.033910  
     153A      1.041789   154A      1.052475   155A      1.069972  
     156A      1.089292   157A      1.097061   158A      1.098122  
     159A      1.102110   160A      1.120570   161A      1.143030  
     162A      1.148081   163A      1.151644   164A      1.163327  
     165A      1.170068   166A      1.179130   167A      1.196015  
     168A      1.201163   169A      1.208540   170A      1.226444  
     171A      1.234620   172A      1.239618   173A      1.241335  
     174A      1.252556   175A      1.257124   176A      1.271443  
     177A      1.277831   178A      1.292969   179A      1.299116  
     180A      1.305053   181A      1.318178   182A      1.321937  
     183A      1.328960   184A      1.336699   185A      1.348080  
     186A      1.357554   187A      1.362752   188A      1.367099  
     189A      1.379349   190A      1.383808   191A      1.385823  
     192A      1.392648   193A      1.401599   194A      1.422606  
     195A      1.432487   196A      1.439142   197A      1.444443  
     198A      1.453865   199A      1.468871   200A      1.477889  
     201A      1.484808   202A      1.489951   203A      1.494529  
     204A      1.498466   205A      1.513486   206A      1.519943  
     207A      1.524968   208A      1.536536   209A      1.549507  
     210A      1.553638   211A      1.561513   212A      1.568359  
     213A      1.572935   214A      1.590517   215A      1.598312  
     216A      1.607288   217A      1.619809   218A      1.621267  
     219A      1.635293   220A      1.649719   221A      1.653856  
     222A      1.660402   223A      1.670692   224A      1.681035  
     225A      1.690175   226A      1.721393   227A      1.724915  
     228A      1.733671   229A      1.741794   230A      1.748244  
     231A      1.759669   232A      1.761963   233A      1.773588  
     234A      1.775253   235A      1.788875   236A      1.800847  
     237A      1.822321   238A      1.847368   239A      1.862993  
     240A      1.867360   241A      1.888069   242A      1.920980  
     243A      1.928583   244A      1.939886   245A      1.950846  
     246A      1.957193   247A      1.975661   248A      1.995504  
     249A      2.007293   250A      2.018745   251A      2.099445  
     252A      2.112687   253A      2.125888   254A      2.135715  
     255A      2.171528   256A      2.172302   257A      2.210625  
     258A      2.242331   259A      2.268038   260A      2.297552  
     261A      2.309573   262A      2.328289   263A      2.337823  
     264A      2.346752   265A      2.370413   266A      2.401669  
     267A      2.419338   268A      2.438373   269A      2.449684  
     270A      2.468323   271A      2.479940   272A      2.493242  
     273A      2.521362   274A      2.534749   275A      2.547884  
     276A      2.618278   277A      2.624102   278A      2.638732  
     279A      2.651454   280A      2.681188   281A      2.688575  
     282A      2.759930   283A      2.816316   284A      2.844671  
     285A      2.877365   286A      2.900984   287A      2.923965  
     288A      2.940827   289A      2.965527   290A      2.999524  
     291A      3.048300   292A      3.058816   293A      3.095507  
     294A      3.121014   295A      3.151316   296A      3.165306  
     297A      3.204122   298A      3.229015   299A      3.284732  
     300A      3.316227   301A      3.328366   302A      3.371684  
     303A      3.382502   304A      3.390790   305A      3.403423  
     306A      3.462459   307A      3.467957   308A      3.482698  
     309A      3.489162   310A      3.501051   311A      3.512458  
     312A      3.524802   313A      3.530354   314A      3.540666  
     315A      3.554368   316A      3.563149   317A      3.570057  
     318A      3.579466   319A      3.591504   320A      3.597291  
     321A      3.604990   322A      3.616066   323A      3.634782  
     324A      3.640651   325A      3.652607   326A      3.654819  
     327A      3.664792   328A      3.685712   329A      3.688459  
     330A      3.698521   331A      3.714170   332A      3.727191  
     333A      3.752811   334A      3.765813   335A      3.787129  
     336A      3.802101   337A      3.806482   338A      3.816165  
     339A      3.818670   340A      3.841391   341A      3.843511  
     342A      3.854797   343A      3.866662   344A      3.868165  
     345A      3.880419   346A      3.894046   347A      3.897467  
     348A      3.902113   349A      3.902624   350A      3.920577  
     351A      3.926748   352A      3.937805   353A      3.947106  
     354A      3.958813   355A      3.972043   356A      3.992604  
     357A      4.003965   358A      4.014587   359A      4.047392  
     360A      4.078808   361A      4.083893   362A      4.108632  
     363A      4.111686   364A      4.135892   365A      4.157747  
     366A      4.170828   367A      4.172046   368A      4.191232  
     369A      4.202856   370A      4.213114   371A      4.223107  
     372A      4.229171   373A      4.254970   374A      4.257537  
     375A      4.283254   376A      4.294707   377A      4.311089  
     378A      4.318152   379A      4.327563   380A      4.331575  
     381A      4.338307   382A      4.345918   383A      4.357441  
     384A      4.380651   385A      4.399787   386A      4.407706  
     387A      4.413842   388A      4.435942   389A      4.454034  
     390A      4.467340   391A      4.480825   392A      4.489370  
     393A      4.489783   394A      4.496583   395A      4.507101  
     396A      4.517960   397A      4.524635   398A      4.533699  
     399A      4.553484   400A      4.564680   401A      4.575142  
     402A      4.585670   403A      4.604861   404A      4.613136  
     405A      4.621498   406A      4.630415   407A      4.635265  
     408A      4.657978   409A      4.667764   410A      4.671679  
     411A      4.684400   412A      4.687687   413A      4.714949  
     414A      4.717771   415A      4.724566   416A      4.737636  
     417A      4.740222   418A      4.744734   419A      4.756840  
     420A      4.768168   421A      4.780203   422A      4.784729  
     423A      4.790499   424A      4.805174   425A      4.816426  
     426A      4.823506   427A      4.844253   428A      4.856804  
     429A      4.862700   430A      4.882875   431A      4.894627  
     432A      4.895982   433A      4.905220   434A      4.913704  
     435A      4.927165   436A      4.936713   437A      4.944737  
     438A      4.945594   439A      4.956930   440A      4.966246  
     441A      4.978418   442A      4.981416   443A      4.995013  
     444A      5.000098   445A      5.018553   446A      5.024116  
     447A      5.033083   448A      5.053639   449A      5.062724  
     450A      5.074685   451A      5.094071   452A      5.111505  
     453A      5.137151   454A      5.144977   455A      5.164949  
     456A      5.176852   457A      5.191539   458A      5.213031  
     459A      5.229972   460A      5.261350   461A      5.270423  
     462A      5.276582   463A      5.287779   464A      5.302006  
     465A      5.321161   466A      5.335772   467A      5.343190  
     468A      5.361449   469A      5.376790   470A      5.401838  
     471A      5.456268   472A      5.466361   473A      5.481320  
     474A      5.488149   475A      5.522554   476A      5.538881  
     477A      5.563397   478A      5.567665   479A      5.629564  
     480A      5.639226   481A      5.649894   482A      5.659347  
     483A      5.669564   484A      5.689336   485A      5.693321  
     486A      5.743307   487A      5.755042   488A      5.800885  
     489A      5.812918   490A      5.817398   491A      5.834769  
     492A      5.843919   493A      5.875709   494A      5.901768  
     495A      5.913989   496A      5.921252   497A      5.949479  
     498A      5.967091   499A      6.030516   500A      6.037636  
     501A      6.046018   502A      6.069138   503A      6.072826  
     504A      6.112143   505A      6.142257   506A      6.155557  
     507A      6.270398   508A      6.304801   509A      6.326090  
     510A      6.354229   511A      6.386198   512A      6.395604  
     513A      6.400740   514A      6.434889   515A      6.459238  
     516A      6.488087   517A      6.488336   518A      6.503048  
     519A      6.518671   520A      6.535300   521A      6.561122  
     522A      6.590085   523A      6.719717   524A      6.741811  
     525A      6.795968   526A      6.808343   527A      6.817719  
     528A      6.948725   529A      7.013958   530A      7.026665  
     531A      7.054554   532A      7.096751   533A      7.214324  
     534A      7.269551   535A      7.293916   536A      7.324461  
     537A      7.371215   538A      7.388078   539A      7.400258  
     540A      7.483450   541A      7.516260   542A      7.548071  
     543A      7.585515   544A      7.598482   545A      7.600871  
     546A      7.637346   547A      7.688358   548A      7.719898  
     549A      7.750728   550A      7.762575   551A      7.814321  
     552A      7.815186   553A      7.829456   554A      7.848019  
     555A      7.936841   556A      7.947781   557A      7.987113  
     558A      8.124674   559A      8.150758   560A      8.314915  
     561A      8.449931   562A      8.648905   563A      9.605304  
     564A      9.702707   565A      9.914125   566A      9.941970  
     567A     12.250020   568A     14.175412   569A     14.265426  
     570A     14.707452   571A     14.815481   572A     43.876181  
     573A     45.476763   574A     45.626597   575A     45.821489  

    Final Occupation by Irrep:
              A 
    DOCC [    20 ]

  @DF-RHF Final Energy:  -266.95280745704247

   => Energetics <=

    Nuclear Repulsion Energy =            178.5741558850440356
    One-Electron Energy =                -718.2810090115895036
    Two-Electron Energy =                 272.7540456695029434
    Total Energy =                       -266.9528074570424678

Computation Completed


Properties will be evaluated at   0.000000,   0.000000,   0.000000 [a0]

Properties computed using the SCF density matrix

  Nuclear Dipole Moment: [e a0]
     X:  -120.0775      Y:    -4.1183      Z:     1.1561

  Electronic Dipole Moment: [e a0]
     X:   119.9175      Y:     4.2796      Z:    -1.8585

  Dipole Moment: [e a0]
     X:    -0.1600      Y:     0.1613      Z:    -0.7024     Total:     0.7382

  Dipole Moment: [D]
     X:    -0.4067      Y:     0.4099      Z:    -1.7853     Total:     1.8763


*** tstop() called on r282 at Fri Sep 10 20:04:48 2021
Module time:
	user time   =      75.63 seconds =       1.26 minutes
	system time =       1.04 seconds =       0.02 minutes
	total time  =         77 seconds =       1.28 minutes
Total time:
	user time   =     195.44 seconds =       3.26 minutes
	system time =       3.26 seconds =       0.05 minutes
	total time  =        199 seconds =       3.32 minutes

  //>>>>>>>>>>>>>>>>>>>>>>>>>>>>>>>>>>>//
  //            Monomer B HF           //
  //<<<<<<<<<<<<<<<<<<<<<<<<<<<<<<<<<<<//


*** tstart() called on r282
*** at Fri Sep 10 20:04:48 2021

   => Loading Basis Set <=

    Name: JUN-CC-PVTZ
    Role: ORBITAL
    Keyword: BASIS
    atoms 1-3, 12, 16, 19, 22              entry C          line   217 file /home/r08543048/miniconda3/share/psi4/basis/jun-cc-pvtz.gbs 
    atoms 4-5                              entry O          line   305 file /home/r08543048/miniconda3/share/psi4/basis/jun-cc-pvtz.gbs 
    atoms 6-11, 13-15, 17-18, 20-21, 23-25 entry H          line    36 file /home/r08543048/miniconda3/share/psi4/basis/jun-cc-pvtz.gbs 


         ---------------------------------------------------------
                                   SCF
               by Justin Turney, Rob Parrish, Andy Simmonett
                          and Daniel G. A. Smith
                              RHF Reference
                        1 Threads,  20980 MiB Core
         ---------------------------------------------------------

  ==> Geometry <==

    Molecular point group: c1
    Full point group: C1

    Geometry (in Angstrom), charge = 0, multiplicity = 1:

       Center              X                  Y                   Z               Mass       
    ------------   -----------------  -----------------  -----------------  -----------------
      Gh(C)          -1.894226222869     1.853296264000     0.328742674831    12.000000000000
      Gh(C)          -1.840803222869     0.678685264000    -0.631769325169    12.000000000000
      Gh(C)          -1.476302222869    -0.607914736000     0.052912674831    12.000000000000
      Gh(O)          -1.216565222869    -0.742334736000     1.228331674831    15.994914619570
      Gh(O)          -1.463430222869    -1.645866736000    -0.820780325169    15.994914619570
      Gh(H)          -0.930385222869     2.002896264000     0.810774674831     1.007825032230
      Gh(H)          -2.159741222869     2.764770264000    -0.203795325169     1.007825032230
      Gh(H)          -2.631799222869     1.679866264000     1.109662674831     1.007825032230
      Gh(H)          -1.109684222869     0.838934264000    -1.426876325169     1.007825032230
      Gh(H)          -2.797156222869     0.521040264000    -1.133538325169     1.007825032230
      Gh(H)          -1.205567222869    -2.425599736000    -0.304147325169     1.007825032230
         C            1.926676777131     2.090648264000    -0.328097325169    12.000000000000
         H            1.025281777131     2.140086264000    -0.941554325169     1.007825032230
         H            2.783599777131     2.205465264000    -0.993377325169     1.007825032230
         H            1.913619777131     2.942688264000     0.351555674831     1.007825032230
         C            1.999731777131     0.768507264000     0.425699674831    12.000000000000
         H            2.902055777131     0.747100264000     1.043014674831     1.007825032230
         H            1.153816777131     0.678454264000     1.112439674831     1.007825032230
         C            2.009112777131    -0.435668736000    -0.508141325169    12.000000000000
         H            2.859628777131    -0.354746736000    -1.191025325169     1.007825032230
         H            1.112765777131    -0.414454736000    -1.135045325169     1.007825032230
         C            2.075321777131    -1.756670736000     0.248306674831    12.000000000000
         H            1.233439777131    -1.846021736000     0.936506674831     1.007825032230
         H            2.059049777131    -2.609664736000    -0.430621325169     1.007825032230
         H            2.991244777131    -1.817521736000     0.837627674831     1.007825032230

  Running in c1 symmetry.

  Rotational constants: A =      0.05286  B =      0.03416  C =      0.02453 [cm^-1]
  Rotational constants: A =   1584.74025  B =   1024.23717  C =    735.43874 [MHz]
  Nuclear repulsion =  131.081209966686146

  Charge       = 0
  Multiplicity = 1
  Electrons    = 34
  Nalpha       = 17
  Nbeta        = 17

  ==> Algorithm <==

  SCF Algorithm Type is DF.
  DIIS enabled.
  MOM disabled.
  Fractional occupation disabled.
  Guess Type is SAD.
  Energy threshold   = 1.00e-08
  Density threshold  = 1.00e-08
  Integral threshold = 0.00e+00

  ==> Primary Basis <==

  Basis Set: JUN-CC-PVTZ
    Blend: JUN-CC-PVTZ
    Number of shells: 213
    Number of basis function: 575
    Number of Cartesian functions: 645
    Spherical Harmonics?: true
    Max angular momentum: 3

   => Loading Basis Set <=

    Name: (JUN-CC-PVTZ AUX)
    Role: JKFIT
    Keyword: DF_BASIS_SCF
    atoms 1-3, 12, 16, 19, 22              entry C          line   152 file /home/r08543048/miniconda3/share/psi4/basis/jun-cc-pvtz-jkfit.gbs 
    atoms 4-5                              entry O          line   272 file /home/r08543048/miniconda3/share/psi4/basis/jun-cc-pvtz-jkfit.gbs 
    atoms 6-11, 13-15, 17-18, 20-21, 23-25 entry H          line    70 file /home/r08543048/miniconda3/share/psi4/basis/jun-cc-pvtz-jkfit.gbs 

  ==> Pre-Iterations <==

   -------------------------------------------------------
    Irrep   Nso     Nmo     Nalpha   Nbeta   Ndocc  Nsocc
   -------------------------------------------------------
     A        575     575       0       0       0       0
   -------------------------------------------------------
    Total     575     575      17      17      17       0
   -------------------------------------------------------

  ==> Integral Setup <==

  ==> DiskDFJK: Density-Fitted J/K Matrices <==

    J tasked:                  Yes
    K tasked:                  Yes
    wK tasked:                  No
    OpenMP threads:              1
    Integrals threads:           1
    Memory [MiB]:            15735
    Algorithm:                Core
    Integral Cache:           LOAD
    Schwarz Cutoff:          1E-12
    Fitting Condition:       1E-10

   => Auxiliary Basis Set <=

  Basis Set: (JUN-CC-PVTZ AUX)
    Blend: JUN-CC-PVTZ-JKFIT
    Number of shells: 421
    Number of basis function: 1335
    Number of Cartesian functions: 1604
    Spherical Harmonics?: true
    Max angular momentum: 4

  Minimum eigenvalue in the overlap matrix is 3.6946443550E-05.
  Using Symmetric Orthogonalization.

  SCF Guess: Superposition of Atomic Densities via on-the-fly atomic UHF.

  ==> Iterations <==

                           Total Energy        Delta E     RMS |[F,P]|

   @DF-RHF iter SAD:  -156.79329387342082   -1.56793e+02   0.00000e+00 
   @DF-RHF iter   1:  -157.14982583463299   -3.56532e-01   1.00220e-03 DIIS
   @DF-RHF iter   2:  -157.31616415561945   -1.66338e-01   4.65919e-04 DIIS
   @DF-RHF iter   3:  -157.35340204983029   -3.72379e-02   8.21301e-05 DIIS
   @DF-RHF iter   4:  -157.35579545288098   -2.39340e-03   1.91706e-05 DIIS
   @DF-RHF iter   5:  -157.35588710455565   -9.16517e-05   4.95641e-06 DIIS
   @DF-RHF iter   6:  -157.35589475767949   -7.65312e-06   6.19821e-07 DIIS
   @DF-RHF iter   7:  -157.35589493696577   -1.79286e-07   1.09116e-07 DIIS
   @DF-RHF iter   8:  -157.35589494193658   -4.97081e-09   2.43494e-08 DIIS
   @DF-RHF iter   9:  -157.35589494221111   -2.74525e-10   5.50590e-09 DIIS
  Energy and wave function converged.


  ==> Post-Iterations <==

    Orbital Energies [Eh]
    ---------------------

    Doubly Occupied:                                                      

       1A    -11.213485     2A    -11.212839     3A    -11.207669  
       4A    -11.207605     5A     -1.071317     6A     -0.980186  
       7A     -0.860011     8A     -0.787626     9A     -0.638771  
      10A     -0.584452    11A     -0.575444    12A     -0.566675  
      13A     -0.514258    14A     -0.493828    15A     -0.469599  
      16A     -0.461477    17A     -0.455813  

    Virtual:                                                              

      18A      0.031996    19A      0.046214    20A      0.050095  
      21A      0.054623    22A      0.066045    23A      0.071631  
      24A      0.075457    25A      0.082702    26A      0.084049  
      27A      0.100437    28A      0.101942    29A      0.108433  
      30A      0.110115    31A      0.117051    32A      0.118426  
      33A      0.120028    34A      0.127384    35A      0.142283  
      36A      0.144734    37A      0.148780    38A      0.156624  
      39A      0.159662    40A      0.163150    41A      0.177461  
      42A      0.181520    43A      0.183546    44A      0.198548  
      45A      0.200644    46A      0.206212    47A      0.213845  
      48A      0.232089    49A      0.234857    50A      0.237582  
      51A      0.241072    52A      0.256526    53A      0.261103  
      54A      0.270188    55A      0.277322    56A      0.282191  
      57A      0.299782    58A      0.302191    59A      0.303147  
      60A      0.315392    61A      0.319855    62A      0.321559  
      63A      0.328507    64A      0.330724    65A      0.334208  
      66A      0.344683    67A      0.349471    68A      0.351910  
      69A      0.357582    70A      0.359573    71A      0.368544  
      72A      0.374446    73A      0.385543    74A      0.388373  
      75A      0.389382    76A      0.396948    77A      0.402017  
      78A      0.409723    79A      0.415862    80A      0.422541  
      81A      0.423643    82A      0.435546    83A      0.443157  
      84A      0.446961    85A      0.458315    86A      0.463148  
      87A      0.468849    88A      0.479762    89A      0.486800  
      90A      0.498246    91A      0.501895    92A      0.512471  
      93A      0.519936    94A      0.523938    95A      0.531120  
      96A      0.538657    97A      0.545471    98A      0.547804  
      99A      0.552491   100A      0.565178   101A      0.572723  
     102A      0.574552   103A      0.581686   104A      0.586664  
     105A      0.602077   106A      0.607983   107A      0.609019  
     108A      0.617372   109A      0.628286   110A      0.633219  
     111A      0.639346   112A      0.656577   113A      0.658935  
     114A      0.667735   115A      0.683956   116A      0.692031  
     117A      0.700499   118A      0.711947   119A      0.723429  
     120A      0.725577   121A      0.742152   122A      0.746386  
     123A      0.763567   124A      0.770697   125A      0.778247  
     126A      0.791028   127A      0.799704   128A      0.809669  
     129A      0.815192   130A      0.827194   131A      0.836013  
     132A      0.846743   133A      0.858255   134A      0.860616  
     135A      0.866451   136A      0.875956   137A      0.880884  
     138A      0.881820   139A      0.891598   140A      0.899753  
     141A      0.909530   142A      0.924360   143A      0.935557  
     144A      0.938655   145A      0.944575   146A      0.965897  
     147A      0.977481   148A      0.982118   149A      0.990634  
     150A      1.004651   151A      1.008427   152A      1.019196  
     153A      1.026629   154A      1.036017   155A      1.054388  
     156A      1.061695   157A      1.083594   158A      1.089975  
     159A      1.096501   160A      1.102493   161A      1.114110  
     162A      1.133430   163A      1.137815   164A      1.147606  
     165A      1.158572   166A      1.179593   167A      1.197330  
     168A      1.202641   169A      1.208757   170A      1.214916  
     171A      1.223544   172A      1.228032   173A      1.255003  
     174A      1.261143   175A      1.269971   176A      1.283133  
     177A      1.293412   178A      1.298851   179A      1.309390  
     180A      1.317222   181A      1.325628   182A      1.335593  
     183A      1.349758   184A      1.359465   185A      1.363852  
     186A      1.373619   187A      1.387739   188A      1.394238  
     189A      1.397776   190A      1.400508   191A      1.417560  
     192A      1.428639   193A      1.435980   194A      1.440414  
     195A      1.458572   196A      1.468191   197A      1.472881  
     198A      1.488772   199A      1.499628   200A      1.501727  
     201A      1.502443   202A      1.519569   203A      1.523437  
     204A      1.531036   205A      1.550397   206A      1.562224  
     207A      1.569582   208A      1.572690   209A      1.591349  
     210A      1.592408   211A      1.605201   212A      1.614034  
     213A      1.619922   214A      1.627919   215A      1.635333  
     216A      1.642151   217A      1.649504   218A      1.652358  
     219A      1.669761   220A      1.679372   221A      1.684050  
     222A      1.700876   223A      1.715685   224A      1.726699  
     225A      1.731153   226A      1.749231   227A      1.755579  
     228A      1.772501   229A      1.776226   230A      1.800493  
     231A      1.814060   232A      1.826783   233A      1.841216  
     234A      1.857512   235A      1.870279   236A      1.885531  
     237A      1.899797   238A      1.925266   239A      1.929870  
     240A      1.932864   241A      1.952478   242A      1.956304  
     243A      1.964151   244A      1.979381   245A      1.982624  
     246A      2.022676   247A      2.032530   248A      2.040810  
     249A      2.060951   250A      2.067888   251A      2.102036  
     252A      2.119668   253A      2.144532   254A      2.155818  
     255A      2.191228   256A      2.237402   257A      2.252962  
     258A      2.322615   259A      2.421948   260A      2.439414  
     261A      2.457354   262A      2.554156   263A      2.587720  
     264A      2.597877   265A      2.645597   266A      2.698087  
     267A      2.728979   268A      2.754368   269A      2.766553  
     270A      2.800468   271A      2.803125   272A      2.817887  
     273A      2.837590   274A      2.854539   275A      2.879054  
     276A      2.883280   277A      2.895441   278A      2.914669  
     279A      2.924700   280A      2.935491   281A      2.955874  
     282A      2.971150   283A      2.973083   284A      3.000659  
     285A      3.021060   286A      3.038222   287A      3.042826  
     288A      3.061815   289A      3.065911   290A      3.107309  
     291A      3.121443   292A      3.135461   293A      3.146437  
     294A      3.146723   295A      3.157327   296A      3.164323  
     297A      3.194580   298A      3.214505   299A      3.234685  
     300A      3.258204   301A      3.275691   302A      3.290714  
     303A      3.296520   304A      3.319687   305A      3.331397  
     306A      3.346501   307A      3.355815   308A      3.367248  
     309A      3.391006   310A      3.416088   311A      3.417924  
     312A      3.420438   313A      3.427776   314A      3.440143  
     315A      3.456956   316A      3.478980   317A      3.481299  
     318A      3.506930   319A      3.510841   320A      3.518567  
     321A      3.539994   322A      3.549250   323A      3.557130  
     324A      3.575176   325A      3.583190   326A      3.592101  
     327A      3.607880   328A      3.612054   329A      3.631823  
     330A      3.636479   331A      3.639997   332A      3.653992  
     333A      3.665397   334A      3.670002   335A      3.677166  
     336A      3.687473   337A      3.707221   338A      3.731313  
     339A      3.741463   340A      3.747284   341A      3.761601  
     342A      3.779645   343A      3.783322   344A      3.813121  
     345A      3.819179   346A      3.831542   347A      3.836518  
     348A      3.843934   349A      3.860942   350A      3.867531  
     351A      3.884319   352A      3.888145   353A      3.914159  
     354A      3.930694   355A      3.932737   356A      3.955708  
     357A      3.959001   358A      3.974519   359A      3.983113  
     360A      3.987191   361A      3.990740   362A      4.001126  
     363A      4.007203   364A      4.020146   365A      4.064084  
     366A      4.097447   367A      4.106814   368A      4.129203  
     369A      4.142230   370A      4.161974   371A      4.169034  
     372A      4.192866   373A      4.201260   374A      4.221620  
     375A      4.227617   376A      4.247565   377A      4.258942  
     378A      4.263163   379A      4.271700   380A      4.286472  
     381A      4.299675   382A      4.302104   383A      4.310491  
     384A      4.324169   385A      4.334958   386A      4.352193  
     387A      4.357952   388A      4.387160   389A      4.389624  
     390A      4.397240   391A      4.404875   392A      4.420238  
     393A      4.426170   394A      4.436465   395A      4.455040  
     396A      4.473938   397A      4.483500   398A      4.497486  
     399A      4.506858   400A      4.521744   401A      4.524755  
     402A      4.537655   403A      4.542474   404A      4.553713  
     405A      4.564448   406A      4.568547   407A      4.580388  
     408A      4.589995   409A      4.619265   410A      4.629187  
     411A      4.653252   412A      4.656783   413A      4.661712  
     414A      4.671526   415A      4.685778   416A      4.703167  
     417A      4.707177   418A      4.715062   419A      4.730753  
     420A      4.751342   421A      4.758837   422A      4.761095  
     423A      4.773452   424A      4.790141   425A      4.812194  
     426A      4.813264   427A      4.829405   428A      4.834415  
     429A      4.840009   430A      4.853431   431A      4.865461  
     432A      4.875693   433A      4.894124   434A      4.901747  
     435A      4.904326   436A      4.911080   437A      4.922578  
     438A      4.943408   439A      4.953635   440A      4.966997  
     441A      4.972601   442A      4.979777   443A      5.009721  
     444A      5.027419   445A      5.028386   446A      5.043026  
     447A      5.050826   448A      5.056560   449A      5.070742  
     450A      5.085513   451A      5.109322   452A      5.126680  
     453A      5.141342   454A      5.146502   455A      5.155826  
     456A      5.178868   457A      5.189974   458A      5.241606  
     459A      5.260292   460A      5.271066   461A      5.275544  
     462A      5.288858   463A      5.303881   464A      5.313136  
     465A      5.330604   466A      5.350669   467A      5.366675  
     468A      5.370206   469A      5.379895   470A      5.384013  
     471A      5.426205   472A      5.452887   473A      5.462154  
     474A      5.469319   475A      5.530281   476A      5.549154  
     477A      5.566711   478A      5.586906   479A      5.616852  
     480A      5.634687   481A      5.657923   482A      5.673839  
     483A      5.677718   484A      5.733860   485A      5.755057  
     486A      5.758450   487A      5.773425   488A      5.788217  
     489A      5.809403   490A      5.818959   491A      5.839862  
     492A      5.869749   493A      5.874548   494A      5.913578  
     495A      5.916538   496A      5.958189   497A      5.970721  
     498A      5.989016   499A      6.009853   500A      6.011398  
     501A      6.086751   502A      6.123305   503A      6.178013  
     504A      6.195264   505A      6.231522   506A      6.235788  
     507A      6.345545   508A      6.396167   509A      6.424697  
     510A      6.447575   511A      6.462018   512A      6.488209  
     513A      6.498982   514A      6.517987   515A      6.542302  
     516A      6.558094   517A      6.567255   518A      6.608195  
     519A      6.636980   520A      6.649139   521A      6.665710  
     522A      6.823162   523A      6.839000   524A      6.904828  
     525A      7.057013   526A      7.149018   527A      7.205988  
     528A      7.294910   529A      7.436885   530A      7.485598  
     531A      7.552139   532A      7.601955   533A      7.662238  
     534A      7.725971   535A      7.814736   536A      7.847112  
     537A      7.889645   538A      7.943532   539A      8.012926  
     540A      8.086034   541A      8.170291   542A      8.262225  
     543A      8.467000   544A      8.619181   545A      8.839167  
     546A      9.223594   547A      9.609418   548A      9.744381  
     549A      9.771838   550A      9.834493   551A      9.893693  
     552A      9.924579   553A      9.940989   554A      9.952089  
     555A      9.962852   556A     10.060684   557A     10.271804  
     558A     10.458074   559A     11.169241   560A     11.536532  
     561A     11.700706   562A     11.766238   563A     12.059841  
     564A     13.030634   565A     13.660131   566A     13.764981  
     567A     13.952402   568A     14.283188   569A     14.584407  
     570A     14.705484   571A     43.019027   572A     45.297750  
     573A     45.979290   574A     61.886028   575A     62.395021  

    Final Occupation by Irrep:
              A 
    DOCC [    17 ]

  @DF-RHF Final Energy:  -157.35589494221111

   => Energetics <=

    Nuclear Repulsion Energy =            131.0812099666861457
    One-Electron Energy =                -470.2720985315106077
    Two-Electron Energy =                 181.8349936226133821
    Total Energy =                       -157.3558949422111084

Computation Completed


Properties will be evaluated at   0.000000,   0.000000,   0.000000 [a0]

Properties computed using the SCF density matrix

  Nuclear Dipole Moment: [e a0]
     X:   128.6895      Y:    10.7191      Z:    -2.6151

  Electronic Dipole Moment: [e a0]
     X:  -128.6875      Y:   -10.7182      Z:     2.6148

  Dipole Moment: [e a0]
     X:     0.0020      Y:     0.0008      Z:    -0.0003     Total:     0.0022

  Dipole Moment: [D]
     X:     0.0052      Y:     0.0021      Z:    -0.0008     Total:     0.0057


*** tstop() called on r282 at Fri Sep 10 20:05:47 2021
Module time:
	user time   =      57.70 seconds =       0.96 minutes
	system time =       0.95 seconds =       0.02 minutes
	total time  =         59 seconds =       0.98 minutes
Total time:
	user time   =     253.14 seconds =       4.22 minutes
	system time =       4.21 seconds =       0.07 minutes
	total time  =        258 seconds =       4.30 minutes
  Constructing Basis Sets for SAPT...

   => Loading Basis Set <=

    Name: (JUN-CC-PVTZ AUX)
    Role: RIFIT
    Keyword: DF_BASIS_SAPT
    atoms 1-3, 12, 16, 19, 22              entry C          line   132 file /home/r08543048/miniconda3/share/psi4/basis/jun-cc-pvtz-ri.gbs 
    atoms 4-5                              entry O          line   244 file /home/r08543048/miniconda3/share/psi4/basis/jun-cc-pvtz-ri.gbs 
    atoms 6-11, 13-15, 17-18, 20-21, 23-25 entry H          line    30 file /home/r08543048/miniconda3/share/psi4/basis/jun-cc-pvtz-ri.gbs 


  //>>>>>>>>>>>>>>>>>>>>>>>>>>>>>>>>>>>//
  //               SAPT0               //
  //<<<<<<<<<<<<<<<<<<<<<<<<<<<<<<<<<<<//


*** tstart() called on r282
*** at Fri Sep 10 20:05:47 2021

        SAPT0  
    Ed Hohenstein
     6 June 2009

      Orbital Information
  --------------------------
    NSO        =       575
    NMO        =       575
    NRI        =      1353
    NOCC A     =        20
    NOCC B     =        17
    FOCC A     =         0
    FOCC B     =         0
    NVIR A     =       555
    NVIR B     =       558

    Elst10,r            =    -0.003029195006 [Eh]
    Exch10              =     0.007772039719 [Eh]
    Exch10 (S^2)        =     0.007762860587 [Eh]

    Iter     Energy [mEh]          dE [mEh]         Residual      Time [s]
       1      -0.40232358       0.402323583       2.658555668             2
       2      -0.48730797       0.084984387       0.609708689             3
       3      -0.48813899       0.000831017       0.198495350             5
       4      -0.48691883      -0.001220156       0.075776458             6
       5      -0.48674390      -0.000174929       0.022553907             8
       6      -0.48687112       0.000127221       0.010854722             9
       7      -0.48689191       0.000020783       0.004167883            11
       8      -0.48687445      -0.000017458       0.001526543            12
       9      -0.48687222      -0.000002224       0.000445378            14
      10      -0.48687422       0.000001992       0.000153679            15
      11      -0.48687396      -0.000000259       0.000057307            17
      12      -0.48687386      -0.000000097       0.000020694            18
      13      -0.48687390       0.000000039       0.000007277            20
      14      -0.48687391       0.000000010       0.000001910            21
      15      -0.48687390      -0.000000005       0.000000510            23

    CHF Iterations converged


    Iter     Energy [mEh]          dE [mEh]         Residual      Time [s]
       1      -1.27414911       1.274149109       5.005896041             1
       2      -1.51098921       0.236840104       1.467729445             3
       3      -1.52988781       0.018898597       0.344479419             4
       4      -1.52563134      -0.004256470       0.111326429             6
       5      -1.52456925      -0.001062090       0.020411706             7
       6      -1.52485229       0.000283040       0.005144005             8
       7      -1.52486750       0.000015207       0.001210709            10
       8      -1.52485599      -0.000011503       0.000254661            11
       9      -1.52485620       0.000000210       0.000061822            16
      10      -1.52485660       0.000000400       0.000013410            17
      11      -1.52485657      -0.000000031       0.000003220            19
      12      -1.52485656      -0.000000011       0.000000921            20

    CHF Iterations converged

    Ind20,r (A<-B)      =    -0.000486873905 [Eh]
    Ind20,r (B<-A)      =    -0.001524856562 [Eh]
    Ind20,r             =    -0.002011730467 [Eh]
    Exch-Ind20,r (A<-B) =     0.000403280701 [Eh]
    Exch-Ind20,r (B<-A) =     0.001114449559 [Eh]
    Exch-Ind20,r        =     0.001517730260 [Eh]
    Disp20              =    -0.010239955389 [Eh]
    Disp20 (SS)         =    -0.005119977695 [Eh]
    Disp20 (OS)         =    -0.005119977695 [Eh]
    Exch-Disp20         =     0.000867102534 [Eh]
    Exch-Disp20 (SS)    =     0.000563908336 [Eh]
    Exch-Disp20 (OS)    =     0.000303194198 [Eh]

    SAPT Results 
  --------------------------------------------------------------------------------------------------------
    Electrostatics                 -3.02919501 [mEh]      -1.90084856 [kcal/mol]      -7.95315039 [kJ/mol]
      Elst10,r                     -3.02919501 [mEh]      -1.90084856 [kcal/mol]      -7.95315039 [kJ/mol]

    Exchange                        7.77203972 [mEh]       4.87702855 [kcal/mol]      20.40548747 [kJ/mol]
      Exch10                        7.77203972 [mEh]       4.87702855 [kcal/mol]      20.40548747 [kJ/mol]
      Exch10(S^2)                   7.76286059 [mEh]       4.87126856 [kcal/mol]      20.38138766 [kJ/mol]

    Induction                      -0.98428255 [mEh]      -0.61764662 [kcal/mol]      -2.58423348 [kJ/mol]
      Ind20,r                      -2.01173047 [mEh]      -1.26237993 [kcal/mol]      -5.28179761 [kJ/mol]
      Exch-Ind20,r                  1.51773026 [mEh]       0.95239012 [kcal/mol]       3.98480025 [kJ/mol]
      delta HF,r (2)               -0.49028234 [mEh]      -0.30765681 [kcal/mol]      -1.28723611 [kJ/mol]

    Dispersion                     -9.37285286 [mEh]      -5.88155396 [kcal/mol]     -24.60842178 [kJ/mol]
      Disp20                      -10.23995539 [mEh]      -6.42566902 [kcal/mol]     -26.88499917 [kJ/mol]
      Exch-Disp20                   0.86710253 [mEh]       0.54411505 [kcal/mol]       2.27657739 [kJ/mol]
      Disp20 (SS)                  -5.11997769 [mEh]      -3.21283451 [kcal/mol]     -13.44249959 [kJ/mol]
      Disp20 (OS)                  -5.11997769 [mEh]      -3.21283451 [kcal/mol]     -13.44249959 [kJ/mol]
      Exch-Disp20 (SS)              0.56390834 [mEh]       0.35385782 [kcal/mol]       1.48054113 [kJ/mol]
      Exch-Disp20 (OS)              0.30319420 [mEh]       0.19025723 [kcal/mol]       0.79603626 [kJ/mol]

  Total HF                          3.75856216 [mEh]       2.35853337 [kcal/mol]       9.86810360 [kJ/mol]
  Total SAPT0                      -5.61429069 [mEh]      -3.52302060 [kcal/mol]     -14.74031818 [kJ/mol]

  Special recipe for scaled SAPT0 (see Manual):
    Electrostatics sSAPT0          -3.02919501 [mEh]      -1.90084856 [kcal/mol]      -7.95315039 [kJ/mol]
    Exchange sSAPT0                 7.77203972 [mEh]       4.87702855 [kcal/mol]      20.40548747 [kJ/mol]
    Induction sSAPT0               -0.97889230 [mEh]      -0.61426419 [kcal/mol]      -2.57008137 [kJ/mol]
    Dispersion sSAPT0              -9.36977332 [mEh]      -5.87962153 [kcal/mol]     -24.60033647 [kJ/mol]
  Total sSAPT0                     -5.60582091 [mEh]      -3.51770573 [kcal/mol]     -14.71808076 [kJ/mol]
  --------------------------------------------------------------------------------------------------------

*** tstop() called on r282 at Fri Sep 10 20:09:14 2021
Module time:
	user time   =     177.14 seconds =       2.95 minutes
	system time =      24.82 seconds =       0.41 minutes
	total time  =        207 seconds =       3.45 minutes
Total time:
	user time   =     430.45 seconds =       7.17 minutes
	system time =      29.03 seconds =       0.48 minutes
	total time  =        465 seconds =       7.75 minutes

    Psi4 stopped on: Friday, 10 September 2021 08:09PM
    Psi4 wall time for execution: 0:07:45.04

*** Psi4 exiting successfully. Buy a developer a beer!
