
    -----------------------------------------------------------------------
          Psi4: An Open-Source Ab Initio Electronic Structure Package
                               Psi4 1.3.2 release

                         Git: Rev {HEAD} ecbda83 


    R. M. Parrish, L. A. Burns, D. G. A. Smith, A. C. Simmonett,
    A. E. DePrince III, E. G. Hohenstein, U. Bozkaya, A. Yu. Sokolov,
    R. Di Remigio, R. M. Richard, J. F. Gonthier, A. M. James,
    H. R. McAlexander, A. Kumar, M. Saitow, X. Wang, B. P. Pritchard,
    P. Verma, H. F. Schaefer III, K. Patkowski, R. A. King, E. F. Valeev,
    F. A. Evangelista, J. M. Turney, T. D. Crawford, and C. D. Sherrill,
    J. Chem. Theory Comput. 13(7) pp 3185--3197 (2017).
    (doi: 10.1021/acs.jctc.7b00174)


                         Additional Contributions by
    P. Kraus, H. Kruse, M. H. Lechner, M. C. Schieber, R. A. Shaw,
    A. Alenaizan, R. Galvelis, Z. L. Glick, S. Lehtola, and J. P. Misiewicz

    -----------------------------------------------------------------------


    Psi4 started on: Friday, 10 September 2021 08:11PM

    Process ID: 57059
    Host:       r282
    PSIDATADIR: /home/r08543048/miniconda3/share/psi4
    Memory:     500.0 MiB
    Threads:    1
    
  ==> Input File <==

--------------------------------------------------------------------------
# Any line starting with the # character is a comment line
#! Sample  computation

memory 22 gb

molecule Dimer {
0 1
 C -1.245224    0.022056    0.193457
 O -0.974103   -0.128047    1.363518
 O -1.668065   -0.999024   -0.594619
 H -1.678908   -1.784613   -0.025667
 C -1.157632    1.301959   -0.578522
 H -0.914448    2.116123    0.094497
 H -0.383450    1.206159   -1.338598
 H -2.100342    1.493025   -1.086554








    
    
 --
0 1
 C   2.129829   -0.806775   -0.359796
 C   2.384116    0.590561    0.194192
 H   2.974975   -1.156811   -0.951595
 H   1.249720   -0.829560   -1.002719
 H   1.966346   -1.521412    0.445890
 H   2.514288    1.317144   -0.607790
 H   3.286262    0.609943    0.804410
 H   1.556374    0.919766    0.820942
   
   
   
   
   
   





units angstrom

no_reorient
symmetry c1
}

set globals{
  basis jun-cc-pvtz
}

energy('sapt0')


--------------------------------------------------------------------------

  Memory set to  20.489 GiB by Python driver.

  //>>>>>>>>>>>>>>>>>>>>>>>>>>>>>>>>>>>//
  //              Dimer HF             //
  //<<<<<<<<<<<<<<<<<<<<<<<<<<<<<<<<<<<//


*** tstart() called on r282
*** at Fri Sep 10 20:11:55 2021

   => Loading Basis Set <=

    Name: JUN-CC-PVTZ
    Role: ORBITAL
    Keyword: BASIS
    atoms 1, 5, 9-10    entry C          line   217 file /home/r08543048/miniconda3/share/psi4/basis/jun-cc-pvtz.gbs 
    atoms 2-3           entry O          line   305 file /home/r08543048/miniconda3/share/psi4/basis/jun-cc-pvtz.gbs 
    atoms 4, 6-8, 11-16 entry H          line    36 file /home/r08543048/miniconda3/share/psi4/basis/jun-cc-pvtz.gbs 


         ---------------------------------------------------------
                                   SCF
               by Justin Turney, Rob Parrish, Andy Simmonett
                          and Daniel G. A. Smith
                              RHF Reference
                        1 Threads,  20980 MiB Core
         ---------------------------------------------------------

  ==> Geometry <==

    Molecular point group: c1
    Full point group: C1

    Geometry (in Angstrom), charge = 0, multiplicity = 1:

       Center              X                  Y                   Z               Mass       
    ------------   -----------------  -----------------  -----------------  -----------------
         C           -1.152060226603     0.048097245100     0.162136441560    12.000000000000
         O           -0.880939226603    -0.102005754900     1.332197441560    15.994914619570
         O           -1.574901226603    -0.972982754900    -0.625939558440    15.994914619570
         H           -1.585744226603    -1.758571754900    -0.056987558440     1.007825032230
         C           -1.064468226603     1.328000245100    -0.609842558440    12.000000000000
         H           -0.821284226603     2.142164245100     0.063176441560     1.007825032230
         H           -0.290286226603     1.232200245100    -1.369918558440     1.007825032230
         H           -2.007178226603     1.519066245100    -1.117874558440     1.007825032230
         C            2.222992773397    -0.780733754900    -0.391116558440    12.000000000000
         C            2.477279773397     0.616602245100     0.162871441560    12.000000000000
         H            3.068138773397    -1.130769754900    -0.982915558440     1.007825032230
         H            1.342883773397    -0.803518754900    -1.034039558440     1.007825032230
         H            2.059509773397    -1.495370754900     0.414569441560     1.007825032230
         H            2.607451773397     1.343185245100    -0.639110558440     1.007825032230
         H            3.379425773397     0.635984245100     0.773089441560     1.007825032230
         H            1.649537773397     0.945807245100     0.789621441560     1.007825032230

  Running in c1 symmetry.

  Rotational constants: A =      0.14552  B =      0.05488  C =      0.05171 [cm^-1]
  Rotational constants: A =   4362.53182  B =   1645.36879  C =   1550.22414 [MHz]
  Nuclear repulsion =  243.256689917253851

  Charge       = 0
  Multiplicity = 1
  Electrons    = 50
  Nalpha       = 25
  Nbeta        = 25

  ==> Algorithm <==

  SCF Algorithm Type is DF.
  DIIS enabled.
  MOM disabled.
  Fractional occupation disabled.
  Guess Type is SAD.
  Energy threshold   = 1.00e-08
  Density threshold  = 1.00e-08
  Integral threshold = 0.00e+00

  ==> Primary Basis <==

  Basis Set: JUN-CC-PVTZ
    Blend: JUN-CC-PVTZ
    Number of shells: 138
    Number of basis function: 374
    Number of Cartesian functions: 420
    Spherical Harmonics?: true
    Max angular momentum: 3

   => Loading Basis Set <=

    Name: (JUN-CC-PVTZ AUX)
    Role: JKFIT
    Keyword: DF_BASIS_SCF
    atoms 1, 5, 9-10    entry C          line   152 file /home/r08543048/miniconda3/share/psi4/basis/jun-cc-pvtz-jkfit.gbs 
    atoms 2-3           entry O          line   272 file /home/r08543048/miniconda3/share/psi4/basis/jun-cc-pvtz-jkfit.gbs 
    atoms 4, 6-8, 11-16 entry H          line    70 file /home/r08543048/miniconda3/share/psi4/basis/jun-cc-pvtz-jkfit.gbs 

  ==> Pre-Iterations <==

   -------------------------------------------------------
    Irrep   Nso     Nmo     Nalpha   Nbeta   Ndocc  Nsocc
   -------------------------------------------------------
     A        374     374       0       0       0       0
   -------------------------------------------------------
    Total     374     374      25      25      25       0
   -------------------------------------------------------

  ==> Integral Setup <==

  ==> DiskDFJK: Density-Fitted J/K Matrices <==

    J tasked:                  Yes
    K tasked:                  Yes
    wK tasked:                  No
    OpenMP threads:              1
    Integrals threads:           1
    Memory [MiB]:            15735
    Algorithm:                Core
    Integral Cache:           SAVE
    Schwarz Cutoff:          1E-12
    Fitting Condition:       1E-10

   => Auxiliary Basis Set <=

  Basis Set: (JUN-CC-PVTZ AUX)
    Blend: JUN-CC-PVTZ-JKFIT
    Number of shells: 274
    Number of basis function: 870
    Number of Cartesian functions: 1046
    Spherical Harmonics?: true
    Max angular momentum: 4

  Minimum eigenvalue in the overlap matrix is 6.1237749012E-05.
  Using Symmetric Orthogonalization.

  SCF Guess: Superposition of Atomic Densities via on-the-fly atomic UHF.

  ==> Iterations <==

                           Total Energy        Delta E     RMS |[F,P]|

   @DF-RHF iter SAD:  -305.77170396418160   -3.05772e+02   0.00000e+00 
   @DF-RHF iter   1:  -306.89493663093532   -1.12323e+00   1.96048e-03 DIIS
   @DF-RHF iter   2:  -307.09835291442357   -2.03416e-01   1.09392e-03 DIIS
   @DF-RHF iter   3:  -307.15807576647865   -5.97229e-02   2.00641e-04 DIIS
   @DF-RHF iter   4:  -307.16163558290515   -3.55982e-03   9.57277e-05 DIIS
   @DF-RHF iter   5:  -307.16239172932018   -7.56146e-04   1.89889e-05 DIIS
   @DF-RHF iter   6:  -307.16243985063215   -4.81213e-05   9.29341e-06 DIIS
   @DF-RHF iter   7:  -307.16244978717503   -9.93654e-06   3.13811e-06 DIIS
   @DF-RHF iter   8:  -307.16245183773015   -2.05056e-06   1.15395e-06 DIIS
   @DF-RHF iter   9:  -307.16245212171600   -2.83986e-07   3.13802e-07 DIIS
   @DF-RHF iter  10:  -307.16245214080584   -1.90898e-08   7.43580e-08 DIIS
   @DF-RHF iter  11:  -307.16245214173739   -9.31550e-10   1.96806e-08 DIIS
   @DF-RHF iter  12:  -307.16245214179537   -5.79803e-11   4.88762e-09 DIIS
  Energy and wave function converged.


  ==> Post-Iterations <==

    Orbital Energies [Eh]
    ---------------------

    Doubly Occupied:                                                      

       1A    -20.615999     2A    -20.552928     3A    -11.391953  
       4A    -11.246277     5A    -11.209893     6A    -11.207693  
       7A     -1.466178     8A     -1.362591     9A     -1.031729  
      10A     -1.017396    11A     -0.841038    12A     -0.823464  
      13A     -0.708248    14A     -0.681869    15A     -0.655580  
      16A     -0.597438    17A     -0.593900    18A     -0.585962  
      19A     -0.576226    20A     -0.563286    21A     -0.508666  
      22A     -0.490281    23A     -0.485990    24A     -0.481024  
      25A     -0.457212  

    Virtual:                                                              

      26A      0.047511    27A      0.054526    28A      0.063451  
      29A      0.065344    30A      0.082767    31A      0.088305  
      32A      0.093258    33A      0.100215    34A      0.102344  
      35A      0.119090    36A      0.120566    37A      0.127981  
      38A      0.133975    39A      0.156965    40A      0.171606  
      41A      0.182335    42A      0.189772    43A      0.196369  
      44A      0.209061    45A      0.224195    46A      0.243066  
      47A      0.246754    48A      0.253857    49A      0.261433  
      50A      0.276901    51A      0.279494    52A      0.282140  
      53A      0.291184    54A      0.298773    55A      0.302894  
      56A      0.315937    57A      0.319282    58A      0.331505  
      59A      0.333278    60A      0.338656    61A      0.343727  
      62A      0.354328    63A      0.360900    64A      0.361829  
      65A      0.375474    66A      0.387572    67A      0.390587  
      68A      0.397777    69A      0.414635    70A      0.424620  
      71A      0.437051    72A      0.448601    73A      0.466165  
      74A      0.490221    75A      0.502246    76A      0.506910  
      77A      0.514234    78A      0.522857    79A      0.531830  
      80A      0.541533    81A      0.558511    82A      0.573712  
      83A      0.588522    84A      0.609565    85A      0.648139  
      86A      0.660224    87A      0.665583    88A      0.681645  
      89A      0.687926    90A      0.697737    91A      0.704981  
      92A      0.715431    93A      0.730564    94A      0.738916  
      95A      0.751332    96A      0.758921    97A      0.762518  
      98A      0.779203    99A      0.795538   100A      0.801326  
     101A      0.809071   102A      0.817795   103A      0.825094  
     104A      0.832793   105A      0.853627   106A      0.857314  
     107A      0.870926   108A      0.874460   109A      0.896507  
     110A      0.907012   111A      0.915472   112A      0.937175  
     113A      0.951047   114A      0.966775   115A      0.974776  
     116A      0.986089   117A      0.990546   118A      0.997421  
     119A      1.021160   120A      1.039062   121A      1.056590  
     122A      1.081094   123A      1.106151   124A      1.128096  
     125A      1.130930   126A      1.146034   127A      1.172081  
     128A      1.199506   129A      1.227200   130A      1.246585  
     131A      1.259885   132A      1.275646   133A      1.299310  
     134A      1.308518   135A      1.330502   136A      1.335480  
     137A      1.353951   138A      1.358224   139A      1.362844  
     140A      1.377534   141A      1.406457   142A      1.407405  
     143A      1.423064   144A      1.430062   145A      1.451473  
     146A      1.459561   147A      1.468659   148A      1.492217  
     149A      1.508331   150A      1.517088   151A      1.534014  
     152A      1.539360   153A      1.558936   154A      1.573742  
     155A      1.593491   156A      1.602872   157A      1.625652  
     158A      1.640184   159A      1.652912   160A      1.665922  
     161A      1.681743   162A      1.696092   163A      1.709858  
     164A      1.713887   165A      1.726378   166A      1.743133  
     167A      1.776599   168A      1.792652   169A      1.794609  
     170A      1.856800   171A      1.886743   172A      1.892112  
     173A      1.910129   174A      1.951340   175A      1.978105  
     176A      1.993651   177A      2.184282   178A      2.191385  
     179A      2.257157   180A      2.290864   181A      2.353159  
     182A      2.398894   183A      2.429932   184A      2.466302  
     185A      2.549144   186A      2.576966   187A      2.651301  
     188A      2.703791   189A      2.744594   190A      2.753153  
     191A      2.766747   192A      2.797267   193A      2.811447  
     194A      2.827583   195A      2.835908   196A      2.847204  
     197A      2.894915   198A      2.933716   199A      2.958820  
     200A      2.970341   201A      2.993892   202A      3.005900  
     203A      3.073111   204A      3.080843   205A      3.095295  
     206A      3.128695   207A      3.143908   208A      3.160674  
     209A      3.193902   210A      3.200754   211A      3.222300  
     212A      3.222977   213A      3.229444   214A      3.249159  
     215A      3.286683   216A      3.289200   217A      3.311550  
     218A      3.328844   219A      3.352785   220A      3.362717  
     221A      3.395241   222A      3.405383   223A      3.427711  
     224A      3.434492   225A      3.439162   226A      3.452508  
     227A      3.471973   228A      3.486036   229A      3.500301  
     230A      3.512695   231A      3.519359   232A      3.528719  
     233A      3.533813   234A      3.559491   235A      3.595128  
     236A      3.605576   237A      3.628631   238A      3.645597  
     239A      3.660502   240A      3.680526   241A      3.708720  
     242A      3.723497   243A      3.736756   244A      3.758827  
     245A      3.766082   246A      3.773860   247A      3.790611  
     248A      3.813361   249A      3.827175   250A      3.834189  
     251A      3.842601   252A      3.869761   253A      3.874856  
     254A      3.897098   255A      3.906961   256A      3.922153  
     257A      3.935045   258A      3.958971   259A      3.985772  
     260A      4.027851   261A      4.099902   262A      4.146633  
     263A      4.162996   264A      4.179705   265A      4.186155  
     266A      4.202783   267A      4.210362   268A      4.229185  
     269A      4.236085   270A      4.247284   271A      4.262873  
     272A      4.281752   273A      4.291544   274A      4.298452  
     275A      4.324287   276A      4.333250   277A      4.384478  
     278A      4.396790   279A      4.411981   280A      4.430118  
     281A      4.452581   282A      4.461382   283A      4.485753  
     284A      4.496306   285A      4.507926   286A      4.519147  
     287A      4.525588   288A      4.538895   289A      4.549713  
     290A      4.571285   291A      4.616066   292A      4.652798  
     293A      4.671160   294A      4.694190   295A      4.718423  
     296A      4.723161   297A      4.766170   298A      4.791200  
     299A      4.811743   300A      4.813891   301A      4.841024  
     302A      4.846519   303A      4.880195   304A      4.944748  
     305A      4.999251   306A      5.044254   307A      5.163090  
     308A      5.174078   309A      5.180987   310A      5.212041  
     311A      5.224597   312A      5.271533   313A      5.289099  
     314A      5.300925   315A      5.324524   316A      5.330397  
     317A      5.347728   318A      5.361535   319A      5.372005  
     320A      5.456553   321A      5.504773   322A      5.520551  
     323A      5.561636   324A      5.635553   325A      5.642631  
     326A      5.659321   327A      5.686765   328A      5.694739  
     329A      5.708319   330A      5.729302   331A      5.758731  
     332A      5.766172   333A      5.773463   334A      5.780724  
     335A      5.802177   336A      5.848213   337A      5.885306  
     338A      5.890695   339A      5.916973   340A      5.928787  
     341A      5.937754   342A      6.066180   343A      6.105945  
     344A      6.285257   345A      6.429129   346A      6.438389  
     347A      6.460505   348A      6.471812   349A      6.482145  
     350A      6.500042   351A      6.538288   352A      6.682724  
     353A      6.797130   354A      6.988206   355A      7.007722  
     356A      7.071040   357A      7.154563   358A      7.251659  
     359A      7.292781   360A      7.332061   361A      7.356810  
     362A      7.374721   363A      7.462209   364A      7.593852  
     365A      7.721864   366A      7.791001   367A      7.941611  
     368A      8.125519   369A     12.086008   370A     13.866672  
     371A     14.245831   372A     14.451062   373A     14.634296  
     374A     14.818553  

    Final Occupation by Irrep:
              A 
    DOCC [    25 ]

  @DF-RHF Final Energy:  -307.16245214179537

   => Energetics <=

    Nuclear Repulsion Energy =            243.2566899172538513
    One-Electron Energy =                -900.5326479503665951
    Two-Electron Energy =                 350.1135058913173452
    Total Energy =                       -307.1624521417953702

Computation Completed


Properties will be evaluated at   0.000000,   0.000000,   0.000000 [a0]

Properties computed using the SCF density matrix

  Nuclear Dipole Moment: [e a0]
     X:     8.8027      Y:     2.4605      Z:    -2.9594

  Electronic Dipole Moment: [e a0]
     X:    -8.9579      Y:    -2.3473      Z:     2.2576

  Dipole Moment: [e a0]
     X:    -0.1552      Y:     0.1132      Z:    -0.7018     Total:     0.7276

  Dipole Moment: [D]
     X:    -0.3945      Y:     0.2878      Z:    -1.7838     Total:     1.8495


*** tstop() called on r282 at Fri Sep 10 20:12:20 2021
Module time:
	user time   =      24.20 seconds =       0.40 minutes
	system time =       0.66 seconds =       0.01 minutes
	total time  =         25 seconds =       0.42 minutes
Total time:
	user time   =      24.20 seconds =       0.40 minutes
	system time =       0.66 seconds =       0.01 minutes
	total time  =         25 seconds =       0.42 minutes

  //>>>>>>>>>>>>>>>>>>>>>>>>>>>>>>>>>>>//
  //            Monomer A HF           //
  //<<<<<<<<<<<<<<<<<<<<<<<<<<<<<<<<<<<//


*** tstart() called on r282
*** at Fri Sep 10 20:12:20 2021

   => Loading Basis Set <=

    Name: JUN-CC-PVTZ
    Role: ORBITAL
    Keyword: BASIS
    atoms 1, 5, 9-10    entry C          line   217 file /home/r08543048/miniconda3/share/psi4/basis/jun-cc-pvtz.gbs 
    atoms 2-3           entry O          line   305 file /home/r08543048/miniconda3/share/psi4/basis/jun-cc-pvtz.gbs 
    atoms 4, 6-8, 11-16 entry H          line    36 file /home/r08543048/miniconda3/share/psi4/basis/jun-cc-pvtz.gbs 


         ---------------------------------------------------------
                                   SCF
               by Justin Turney, Rob Parrish, Andy Simmonett
                          and Daniel G. A. Smith
                              RHF Reference
                        1 Threads,  20980 MiB Core
         ---------------------------------------------------------

  ==> Geometry <==

    Molecular point group: c1
    Full point group: C1

    Geometry (in Angstrom), charge = 0, multiplicity = 1:

       Center              X                  Y                   Z               Mass       
    ------------   -----------------  -----------------  -----------------  -----------------
         C           -1.152060226603     0.048097245100     0.162136441560    12.000000000000
         O           -0.880939226603    -0.102005754900     1.332197441560    15.994914619570
         O           -1.574901226603    -0.972982754900    -0.625939558440    15.994914619570
         H           -1.585744226603    -1.758571754900    -0.056987558440     1.007825032230
         C           -1.064468226603     1.328000245100    -0.609842558440    12.000000000000
         H           -0.821284226603     2.142164245100     0.063176441560     1.007825032230
         H           -0.290286226603     1.232200245100    -1.369918558440     1.007825032230
         H           -2.007178226603     1.519066245100    -1.117874558440     1.007825032230
      Gh(C)           2.222992773397    -0.780733754900    -0.391116558440    12.000000000000
      Gh(C)           2.477279773397     0.616602245100     0.162871441560    12.000000000000
      Gh(H)           3.068138773397    -1.130769754900    -0.982915558440     1.007825032230
      Gh(H)           1.342883773397    -0.803518754900    -1.034039558440     1.007825032230
      Gh(H)           2.059509773397    -1.495370754900     0.414569441560     1.007825032230
      Gh(H)           2.607451773397     1.343185245100    -0.639110558440     1.007825032230
      Gh(H)           3.379425773397     0.635984245100     0.773089441560     1.007825032230
      Gh(H)           1.649537773397     0.945807245100     0.789621441560     1.007825032230

  Running in c1 symmetry.

  Rotational constants: A =      0.14552  B =      0.05488  C =      0.05171 [cm^-1]
  Rotational constants: A =   4362.53182  B =   1645.36879  C =   1550.22414 [MHz]
  Nuclear repulsion =  121.128138532312263

  Charge       = 0
  Multiplicity = 1
  Electrons    = 32
  Nalpha       = 16
  Nbeta        = 16

  ==> Algorithm <==

  SCF Algorithm Type is DF.
  DIIS enabled.
  MOM disabled.
  Fractional occupation disabled.
  Guess Type is SAD.
  Energy threshold   = 1.00e-08
  Density threshold  = 1.00e-08
  Integral threshold = 0.00e+00

  ==> Primary Basis <==

  Basis Set: JUN-CC-PVTZ
    Blend: JUN-CC-PVTZ
    Number of shells: 138
    Number of basis function: 374
    Number of Cartesian functions: 420
    Spherical Harmonics?: true
    Max angular momentum: 3

   => Loading Basis Set <=

    Name: (JUN-CC-PVTZ AUX)
    Role: JKFIT
    Keyword: DF_BASIS_SCF
    atoms 1, 5, 9-10    entry C          line   152 file /home/r08543048/miniconda3/share/psi4/basis/jun-cc-pvtz-jkfit.gbs 
    atoms 2-3           entry O          line   272 file /home/r08543048/miniconda3/share/psi4/basis/jun-cc-pvtz-jkfit.gbs 
    atoms 4, 6-8, 11-16 entry H          line    70 file /home/r08543048/miniconda3/share/psi4/basis/jun-cc-pvtz-jkfit.gbs 

  ==> Pre-Iterations <==

   -------------------------------------------------------
    Irrep   Nso     Nmo     Nalpha   Nbeta   Ndocc  Nsocc
   -------------------------------------------------------
     A        374     374       0       0       0       0
   -------------------------------------------------------
    Total     374     374      16      16      16       0
   -------------------------------------------------------

  ==> Integral Setup <==

  ==> DiskDFJK: Density-Fitted J/K Matrices <==

    J tasked:                  Yes
    K tasked:                  Yes
    wK tasked:                  No
    OpenMP threads:              1
    Integrals threads:           1
    Memory [MiB]:            15735
    Algorithm:                Core
    Integral Cache:           LOAD
    Schwarz Cutoff:          1E-12
    Fitting Condition:       1E-10

   => Auxiliary Basis Set <=

  Basis Set: (JUN-CC-PVTZ AUX)
    Blend: JUN-CC-PVTZ-JKFIT
    Number of shells: 274
    Number of basis function: 870
    Number of Cartesian functions: 1046
    Spherical Harmonics?: true
    Max angular momentum: 4

  Minimum eigenvalue in the overlap matrix is 6.1237749012E-05.
  Using Symmetric Orthogonalization.

  SCF Guess: Superposition of Atomic Densities via on-the-fly atomic UHF.

  ==> Iterations <==

                           Total Energy        Delta E     RMS |[F,P]|

   @DF-RHF iter SAD:  -227.00628727323127   -2.27006e+02   0.00000e+00 
   @DF-RHF iter   1:  -227.74684312264543   -7.40556e-01   1.59820e-03 DIIS
   @DF-RHF iter   2:  -227.85983940247513   -1.12996e-01   9.77353e-04 DIIS
   @DF-RHF iter   3:  -227.90167573174270   -4.18363e-02   1.57802e-04 DIIS
   @DF-RHF iter   4:  -227.90386303808725   -2.18731e-03   7.20897e-05 DIIS
   @DF-RHF iter   5:  -227.90433623493567   -4.73197e-04   1.79139e-05 DIIS
   @DF-RHF iter   6:  -227.90437791993602   -4.16850e-05   8.66168e-06 DIIS
   @DF-RHF iter   7:  -227.90438855976333   -1.06398e-05   2.87544e-06 DIIS
   @DF-RHF iter   8:  -227.90439036299682   -1.80323e-06   7.60477e-07 DIIS
   @DF-RHF iter   9:  -227.90439050458616   -1.41589e-07   1.57577e-07 DIIS
   @DF-RHF iter  10:  -227.90439050954885   -4.96269e-09   4.35146e-08 DIIS
   @DF-RHF iter  11:  -227.90439050978085   -2.32006e-10   1.24377e-08 DIIS
   @DF-RHF iter  12:  -227.90439050980200   -2.11458e-11   3.45104e-09 DIIS
  Energy and wave function converged.


  ==> Post-Iterations <==

    Orbital Energies [Eh]
    ---------------------

    Doubly Occupied:                                                      

       1A    -20.616064     2A    -20.552990     3A    -11.391825  
       4A    -11.246846     5A     -1.465964     6A     -1.362222  
       7A     -1.031420     8A     -0.823545     9A     -0.707876  
      10A     -0.681710    11A     -0.652414    12A     -0.586551  
      13A     -0.576266    14A     -0.563784    15A     -0.485273  
      16A     -0.457365  

    Virtual:                                                              

      17A      0.036965    18A      0.048780    19A      0.054990  
      20A      0.061860    21A      0.077731    22A      0.086233  
      23A      0.089839    24A      0.096090    25A      0.100633  
      26A      0.112897    27A      0.120014    28A      0.121060  
      29A      0.128609    30A      0.142517    31A      0.160222  
      32A      0.165433    33A      0.182866    34A      0.191945  
      35A      0.204467    36A      0.217144    37A      0.226730  
      38A      0.230323    39A      0.241751    40A      0.252239  
      41A      0.264448    42A      0.272239    43A      0.277106  
      44A      0.286450    45A      0.292664    46A      0.296350  
      47A      0.311682    48A      0.318016    49A      0.322939  
      50A      0.336435    51A      0.341734    52A      0.348674  
      53A      0.358047    54A      0.360744    55A      0.377491  
      56A      0.389036    57A      0.393670    58A      0.403592  
      59A      0.420696    60A      0.427656    61A      0.438016  
      62A      0.439891    63A      0.463626    64A      0.472079  
      65A      0.484356    66A      0.503741    67A      0.509451  
      68A      0.517905    69A      0.530023    70A      0.537933  
      71A      0.540274    72A      0.551026    73A      0.556128  
      74A      0.580998    75A      0.590407    76A      0.598074  
      77A      0.619049    78A      0.630048    79A      0.642702  
      80A      0.646723    81A      0.666708    82A      0.684950  
      83A      0.692512    84A      0.696864    85A      0.721337  
      86A      0.737195    87A      0.753770    88A      0.764265  
      89A      0.772473    90A      0.784282    91A      0.807562  
      92A      0.824715    93A      0.839704    94A      0.857141  
      95A      0.885200    96A      0.895059    97A      0.906298  
      98A      0.938793    99A      0.946016   100A      0.955368  
     101A      0.979834   102A      0.998498   103A      1.031504  
     104A      1.041588   105A      1.055781   106A      1.060928  
     107A      1.065412   108A      1.096558   109A      1.110905  
     110A      1.119094   111A      1.134380   112A      1.151099  
     113A      1.156320   114A      1.161508   115A      1.182085  
     116A      1.200727   117A      1.206225   118A      1.227873  
     119A      1.233837   120A      1.256685   121A      1.264573  
     122A      1.276065   123A      1.280819   124A      1.296996  
     125A      1.303972   126A      1.330112   127A      1.339086  
     128A      1.343963   129A      1.348324   130A      1.357811  
     131A      1.375485   132A      1.385786   133A      1.416613  
     134A      1.437286   135A      1.437809   136A      1.467241  
     137A      1.479966   138A      1.501067   139A      1.516024  
     140A      1.521581   141A      1.527091   142A      1.545227  
     143A      1.559131   144A      1.567480   145A      1.576717  
     146A      1.590427   147A      1.611429   148A      1.618062  
     149A      1.626939   150A      1.648431   151A      1.672644  
     152A      1.688927   153A      1.707535   154A      1.713024  
     155A      1.737365   156A      1.752875   157A      1.773101  
     158A      1.787817   159A      1.802357   160A      1.825168  
     161A      1.875455   162A      1.918214   163A      1.939882  
     164A      1.991660   165A      2.011879   166A      2.075792  
     167A      2.079674   168A      2.179088   169A      2.187101  
     170A      2.241257   171A      2.255811   172A      2.299777  
     173A      2.307658   174A      2.324282   175A      2.372171  
     176A      2.392927   177A      2.413293   178A      2.435779  
     179A      2.441977   180A      2.478779   181A      2.513945  
     182A      2.543505   183A      2.565636   184A      2.596073  
     185A      2.710323   186A      2.734987   187A      2.822671  
     188A      2.831337   189A      2.898734   190A      2.967019  
     191A      2.982375   192A      3.010895   193A      3.086739  
     194A      3.124278   195A      3.171929   196A      3.220384  
     197A      3.233883   198A      3.282170   199A      3.338353  
     200A      3.390023   201A      3.396186   202A      3.419141  
     203A      3.429776   204A      3.459337   205A      3.470371  
     206A      3.503240   207A      3.540415   208A      3.544081  
     209A      3.552354   210A      3.563950   211A      3.568700  
     212A      3.586661   213A      3.593979   214A      3.607448  
     215A      3.630189   216A      3.648545   217A      3.671349  
     218A      3.676432   219A      3.702899   220A      3.713633  
     221A      3.738174   222A      3.762578   223A      3.768203  
     224A      3.775564   225A      3.797720   226A      3.801382  
     227A      3.817267   228A      3.830069   229A      3.835063  
     230A      3.847696   231A      3.874273   232A      3.896395  
     233A      3.931306   234A      3.937840   235A      3.972684  
     236A      4.012752   237A      4.067901   238A      4.082116  
     239A      4.096967   240A      4.111411   241A      4.121340  
     242A      4.147759   243A      4.168373   244A      4.187177  
     245A      4.192907   246A      4.216322   247A      4.255036  
     248A      4.281313   249A      4.317840   250A      4.319330  
     251A      4.341651   252A      4.348465   253A      4.369590  
     254A      4.410006   255A      4.417993   256A      4.423954  
     257A      4.437311   258A      4.442890   259A      4.459619  
     260A      4.495136   261A      4.507046   262A      4.516801  
     263A      4.528100   264A      4.536404   265A      4.537066  
     266A      4.557234   267A      4.590528   268A      4.602035  
     269A      4.626183   270A      4.649766   271A      4.701432  
     272A      4.716435   273A      4.721102   274A      4.726671  
     275A      4.740054   276A      4.756338   277A      4.769166  
     278A      4.789254   279A      4.807472   280A      4.822137  
     281A      4.828696   282A      4.844695   283A      4.860976  
     284A      4.868764   285A      4.906081   286A      4.935879  
     287A      4.948070   288A      4.966643   289A      4.973090  
     290A      4.988607   291A      5.002891   292A      5.017932  
     293A      5.027905   294A      5.042274   295A      5.052814  
     296A      5.100722   297A      5.135464   298A      5.167314  
     299A      5.174117   300A      5.261107   301A      5.307063  
     302A      5.371594   303A      5.388919   304A      5.395040  
     305A      5.404738   306A      5.458955   307A      5.506843  
     308A      5.521457   309A      5.563355   310A      5.634546  
     311A      5.643426   312A      5.644601   313A      5.662438  
     314A      5.663501   315A      5.695448   316A      5.714400  
     317A      5.727393   318A      5.738477   319A      5.847833  
     320A      5.886494   321A      5.895703   322A      6.000764  
     323A      6.006497   324A      6.066073   325A      6.105653  
     326A      6.221600   327A      6.283138   328A      6.320405  
     329A      6.333236   330A      6.357406   331A      6.373568  
     332A      6.390313   333A      6.433207   334A      6.457808  
     335A      6.459700   336A      6.463194   337A      6.475731  
     338A      6.683119   339A      6.796607   340A      6.800351  
     341A      6.892912   342A      6.988700   343A      7.007906  
     344A      7.071185   345A      7.154389   346A      7.251937  
     347A      7.292135   348A      7.329043   349A      7.350322  
     350A      7.359738   351A      7.372656   352A      7.458635  
     353A      7.510144   354A      7.514672   355A      7.593483  
     356A      7.650284   357A      7.679181   358A      7.724325  
     359A      7.787190   360A      7.795391   361A      7.803305  
     362A      7.895998   363A      7.911358   364A      7.948574  
     365A      8.126761   366A      8.264002   367A      9.728986  
     368A      9.907663   369A     12.090988   370A     13.893747  
     371A     14.439144   372A     14.797745   373A     45.082574  
     374A     45.564786  

    Final Occupation by Irrep:
              A 
    DOCC [    16 ]

  @DF-RHF Final Energy:  -227.90439050980200

   => Energetics <=

    Nuclear Repulsion Energy =            121.1281385323122635
    One-Electron Energy =                -551.6608258283304167
    Two-Electron Energy =                 202.6282967862161399
    Total Energy =                       -227.9043905098019991

Computation Completed


Properties will be evaluated at   0.000000,   0.000000,   0.000000 [a0]

Properties computed using the SCF density matrix

  Nuclear Dipole Moment: [e a0]
     X:   -71.1489      Y:     5.2752      Z:     0.9113

  Electronic Dipole Moment: [e a0]
     X:    70.9934      Y:    -5.1426      Z:    -1.6786

  Dipole Moment: [e a0]
     X:    -0.1555      Y:     0.1327      Z:    -0.7674     Total:     0.7941

  Dipole Moment: [D]
     X:    -0.3952      Y:     0.3373      Z:    -1.9505     Total:     2.0185


*** tstop() called on r282 at Fri Sep 10 20:12:35 2021
Module time:
	user time   =      14.62 seconds =       0.24 minutes
	system time =       0.34 seconds =       0.01 minutes
	total time  =         15 seconds =       0.25 minutes
Total time:
	user time   =      38.83 seconds =       0.65 minutes
	system time =       1.00 seconds =       0.02 minutes
	total time  =         40 seconds =       0.67 minutes

  //>>>>>>>>>>>>>>>>>>>>>>>>>>>>>>>>>>>//
  //            Monomer B HF           //
  //<<<<<<<<<<<<<<<<<<<<<<<<<<<<<<<<<<<//


*** tstart() called on r282
*** at Fri Sep 10 20:12:35 2021

   => Loading Basis Set <=

    Name: JUN-CC-PVTZ
    Role: ORBITAL
    Keyword: BASIS
    atoms 1, 5, 9-10    entry C          line   217 file /home/r08543048/miniconda3/share/psi4/basis/jun-cc-pvtz.gbs 
    atoms 2-3           entry O          line   305 file /home/r08543048/miniconda3/share/psi4/basis/jun-cc-pvtz.gbs 
    atoms 4, 6-8, 11-16 entry H          line    36 file /home/r08543048/miniconda3/share/psi4/basis/jun-cc-pvtz.gbs 


         ---------------------------------------------------------
                                   SCF
               by Justin Turney, Rob Parrish, Andy Simmonett
                          and Daniel G. A. Smith
                              RHF Reference
                        1 Threads,  20980 MiB Core
         ---------------------------------------------------------

  ==> Geometry <==

    Molecular point group: c1
    Full point group: C1

    Geometry (in Angstrom), charge = 0, multiplicity = 1:

       Center              X                  Y                   Z               Mass       
    ------------   -----------------  -----------------  -----------------  -----------------
      Gh(C)          -1.152060226603     0.048097245100     0.162136441560    12.000000000000
      Gh(O)          -0.880939226603    -0.102005754900     1.332197441560    15.994914619570
      Gh(O)          -1.574901226603    -0.972982754900    -0.625939558440    15.994914619570
      Gh(H)          -1.585744226603    -1.758571754900    -0.056987558440     1.007825032230
      Gh(C)          -1.064468226603     1.328000245100    -0.609842558440    12.000000000000
      Gh(H)          -0.821284226603     2.142164245100     0.063176441560     1.007825032230
      Gh(H)          -0.290286226603     1.232200245100    -1.369918558440     1.007825032230
      Gh(H)          -2.007178226603     1.519066245100    -1.117874558440     1.007825032230
         C            2.222992773397    -0.780733754900    -0.391116558440    12.000000000000
         C            2.477279773397     0.616602245100     0.162871441560    12.000000000000
         H            3.068138773397    -1.130769754900    -0.982915558440     1.007825032230
         H            1.342883773397    -0.803518754900    -1.034039558440     1.007825032230
         H            2.059509773397    -1.495370754900     0.414569441560     1.007825032230
         H            2.607451773397     1.343185245100    -0.639110558440     1.007825032230
         H            3.379425773397     0.635984245100     0.773089441560     1.007825032230
         H            1.649537773397     0.945807245100     0.789621441560     1.007825032230

  Running in c1 symmetry.

  Rotational constants: A =      0.14552  B =      0.05488  C =      0.05171 [cm^-1]
  Rotational constants: A =   4362.53182  B =   1645.36879  C =   1550.22414 [MHz]
  Nuclear repulsion =   42.333573461842207

  Charge       = 0
  Multiplicity = 1
  Electrons    = 18
  Nalpha       = 9
  Nbeta        = 9

  ==> Algorithm <==

  SCF Algorithm Type is DF.
  DIIS enabled.
  MOM disabled.
  Fractional occupation disabled.
  Guess Type is SAD.
  Energy threshold   = 1.00e-08
  Density threshold  = 1.00e-08
  Integral threshold = 0.00e+00

  ==> Primary Basis <==

  Basis Set: JUN-CC-PVTZ
    Blend: JUN-CC-PVTZ
    Number of shells: 138
    Number of basis function: 374
    Number of Cartesian functions: 420
    Spherical Harmonics?: true
    Max angular momentum: 3

   => Loading Basis Set <=

    Name: (JUN-CC-PVTZ AUX)
    Role: JKFIT
    Keyword: DF_BASIS_SCF
    atoms 1, 5, 9-10    entry C          line   152 file /home/r08543048/miniconda3/share/psi4/basis/jun-cc-pvtz-jkfit.gbs 
    atoms 2-3           entry O          line   272 file /home/r08543048/miniconda3/share/psi4/basis/jun-cc-pvtz-jkfit.gbs 
    atoms 4, 6-8, 11-16 entry H          line    70 file /home/r08543048/miniconda3/share/psi4/basis/jun-cc-pvtz-jkfit.gbs 

  ==> Pre-Iterations <==

   -------------------------------------------------------
    Irrep   Nso     Nmo     Nalpha   Nbeta   Ndocc  Nsocc
   -------------------------------------------------------
     A        374     374       0       0       0       0
   -------------------------------------------------------
    Total     374     374       9       9       9       0
   -------------------------------------------------------

  ==> Integral Setup <==

  ==> DiskDFJK: Density-Fitted J/K Matrices <==

    J tasked:                  Yes
    K tasked:                  Yes
    wK tasked:                  No
    OpenMP threads:              1
    Integrals threads:           1
    Memory [MiB]:            15735
    Algorithm:                Core
    Integral Cache:           LOAD
    Schwarz Cutoff:          1E-12
    Fitting Condition:       1E-10

   => Auxiliary Basis Set <=

  Basis Set: (JUN-CC-PVTZ AUX)
    Blend: JUN-CC-PVTZ-JKFIT
    Number of shells: 274
    Number of basis function: 870
    Number of Cartesian functions: 1046
    Spherical Harmonics?: true
    Max angular momentum: 4

  Minimum eigenvalue in the overlap matrix is 6.1237749012E-05.
  Using Symmetric Orthogonalization.

  SCF Guess: Superposition of Atomic Densities via on-the-fly atomic UHF.

  ==> Iterations <==

                           Total Energy        Delta E     RMS |[F,P]|

   @DF-RHF iter SAD:   -78.65932730458947   -7.86593e+01   0.00000e+00 
   @DF-RHF iter   1:   -79.14812228489147   -4.88795e-01   1.16083e-03 DIIS
   @DF-RHF iter   2:   -79.23889902801454   -9.07767e-02   5.30014e-04 DIIS
   @DF-RHF iter   3:   -79.25881700026177   -1.99180e-02   8.66904e-05 DIIS
   @DF-RHF iter   4:   -79.26008225363881   -1.26525e-03   1.20262e-05 DIIS
   @DF-RHF iter   5:   -79.26011009394948   -2.78403e-05   2.15096e-06 DIIS
   @DF-RHF iter   6:   -79.26011093560004   -8.41651e-07   2.58716e-07 DIIS
   @DF-RHF iter   7:   -79.26011094850732   -1.29073e-08   3.02552e-08 DIIS
   @DF-RHF iter   8:   -79.26011094864586   -1.38542e-10   7.95700e-09 DIIS
  Energy and wave function converged.


  ==> Post-Iterations <==

    Orbital Energies [Eh]
    ---------------------

    Doubly Occupied:                                                      

       1A    -11.210576     2A    -11.209961     3A     -1.018369  
       4A     -0.841610     5A     -0.597791     6A     -0.596234  
       7A     -0.509722     8A     -0.487329     9A     -0.485842  

    Virtual:                                                              

      10A      0.036786    11A      0.049993    12A      0.056794  
      13A      0.062247    14A      0.077545    15A      0.088465  
      16A      0.089210    17A      0.093967    18A      0.098333  
      19A      0.113063    20A      0.119639    21A      0.122257  
      22A      0.131797    23A      0.149382    24A      0.152866  
      25A      0.166393    26A      0.180295    27A      0.192772  
      28A      0.209386    29A      0.215498    30A      0.218932  
      31A      0.231775    32A      0.241439    33A      0.253252  
      34A      0.260069    35A      0.282572    36A      0.283410  
      37A      0.292216    38A      0.298858    39A      0.310575  
      40A      0.324322    41A      0.331930    42A      0.341881  
      43A      0.344963    44A      0.347828    45A      0.349252  
      46A      0.351549    47A      0.363284    48A      0.369943  
      49A      0.374074    50A      0.382896    51A      0.403959  
      52A      0.405997    53A      0.423015    54A      0.429271  
      55A      0.447845    56A      0.469932    57A      0.481050  
      58A      0.486871    59A      0.490354    60A      0.504304  
      61A      0.514369    62A      0.522436    63A      0.528787  
      64A      0.533533    65A      0.546182    66A      0.569716  
      67A      0.577686    68A      0.598301    69A      0.627056  
      70A      0.637163    71A      0.640964    72A      0.657088  
      73A      0.683995    74A      0.713004    75A      0.735962  
      76A      0.740164    77A      0.745964    78A      0.754397  
      79A      0.773542    80A      0.787436    81A      0.790702  
      82A      0.800591    83A      0.829878    84A      0.834621  
      85A      0.847548    86A      0.856444    87A      0.864405  
      88A      0.873119    89A      0.883059    90A      0.911289  
      91A      0.912292    92A      0.920888    93A      0.939499  
      94A      0.951546    95A      0.969529    96A      0.976523  
      97A      0.988547    98A      0.999983    99A      1.011308  
     100A      1.016156   101A      1.047248   102A      1.065034  
     103A      1.070689   104A      1.091504   105A      1.112430  
     106A      1.125991   107A      1.141252   108A      1.156544  
     109A      1.174802   110A      1.185392   111A      1.197126  
     112A      1.205339   113A      1.227688   114A      1.258168  
     115A      1.280926   116A      1.299105   117A      1.314562  
     118A      1.338455   119A      1.356560   120A      1.359099  
     121A      1.363853   122A      1.373707   123A      1.395466  
     124A      1.400875   125A      1.414743   126A      1.430605  
     127A      1.462376   128A      1.470720   129A      1.475768  
     130A      1.486185   131A      1.490376   132A      1.508809  
     133A      1.521772   134A      1.557146   135A      1.571845  
     136A      1.584675   137A      1.613277   138A      1.622886  
     139A      1.628281   140A      1.650682   141A      1.663591  
     142A      1.672210   143A      1.697954   144A      1.708169  
     145A      1.715854   146A      1.776064   147A      1.781040  
     148A      1.784125   149A      1.807525   150A      1.833968  
     151A      1.842824   152A      1.880815   153A      1.905566  
     154A      1.910785   155A      1.928047   156A      1.943380  
     157A      1.965750   158A      2.000004   159A      2.056625  
     160A      2.088028   161A      2.112680   162A      2.149539  
     163A      2.361251   164A      2.385665   165A      2.432777  
     166A      2.515251   167A      2.586591   168A      2.626137  
     169A      2.682126   170A      2.710890   171A      2.722264  
     172A      2.742848   173A      2.761056   174A      2.767168  
     175A      2.789995   176A      2.812547   177A      2.838402  
     178A      2.848992   179A      2.861294   180A      2.896384  
     181A      2.900407   182A      2.959309   183A      2.975666  
     184A      2.997831   185A      3.015400   186A      3.072323  
     187A      3.078017   188A      3.098490   189A      3.111290  
     190A      3.136682   191A      3.189780   192A      3.200501  
     193A      3.228868   194A      3.235137   195A      3.258897  
     196A      3.293366   197A      3.303886   198A      3.314035  
     199A      3.354929   200A      3.363640   201A      3.391098  
     202A      3.435702   203A      3.450563   204A      3.450792  
     205A      3.504338   206A      3.512091   207A      3.517613  
     208A      3.528056   209A      3.544189   210A      3.581809  
     211A      3.603453   212A      3.613327   213A      3.619214  
     214A      3.640324   215A      3.683441   216A      3.696326  
     217A      3.719083   218A      3.755713   219A      3.770295  
     220A      3.803136   221A      3.821916   222A      3.845270  
     223A      3.859124   224A      3.873867   225A      3.876294  
     226A      3.907380   227A      3.913055   228A      3.922288  
     229A      3.933487   230A      3.952218   231A      3.961403  
     232A      3.976036   233A      4.054103   234A      4.105233  
     235A      4.138158   236A      4.173482   237A      4.186472  
     238A      4.206863   239A      4.211661   240A      4.232616  
     241A      4.238738   242A      4.253158   243A      4.274338  
     244A      4.290484   245A      4.293263   246A      4.320153  
     247A      4.342344   248A      4.376597   249A      4.402103  
     250A      4.420948   251A      4.433203   252A      4.437494  
     253A      4.479175   254A      4.485659   255A      4.493829  
     256A      4.503828   257A      4.514890   258A      4.524111  
     259A      4.535726   260A      4.593405   261A      4.621762  
     262A      4.633060   263A      4.645714   264A      4.655479  
     265A      4.676791   266A      4.683351   267A      4.706692  
     268A      4.740538   269A      4.766093   270A      4.769544  
     271A      4.779914   272A      4.787343   273A      4.812108  
     274A      4.813993   275A      4.829478   276A      4.884836  
     277A      4.898234   278A      4.905276   279A      4.933291  
     280A      4.939975   281A      4.948103   282A      4.959615  
     283A      4.988270   284A      5.039539   285A      5.045690  
     286A      5.068087   287A      5.136246   288A      5.176927  
     289A      5.195382   290A      5.213502   291A      5.226536  
     292A      5.250146   293A      5.272770   294A      5.289795  
     295A      5.316053   296A      5.320713   297A      5.342205  
     298A      5.357179   299A      5.362921   300A      5.425471  
     301A      5.556495   302A      5.646832   303A      5.684505  
     304A      5.709522   305A      5.719924   306A      5.756778  
     307A      5.765651   308A      5.769248   309A      5.782103  
     310A      5.799852   311A      5.913249   312A      5.920966  
     313A      5.928210   314A      6.007598   315A      6.018653  
     316A      6.072922   317A      6.143268   318A      6.159390  
     319A      6.282283   320A      6.303708   321A      6.342579  
     322A      6.452210   323A      6.460382   324A      6.466120  
     325A      6.480794   326A      6.500060   327A      6.516038  
     328A      6.597799   329A      6.629241   330A      6.731310  
     331A      6.822327   332A      7.047652   333A      7.142134  
     334A      7.172577   335A      7.252403   336A      7.477246  
     337A      7.481075   338A      7.581224   339A      7.671115  
     340A      7.820729   341A      7.840232   342A      7.877229  
     343A      7.928896   344A      8.046900   345A      8.088069  
     346A      8.254542   347A      8.579453   348A      8.789116  
     349A      9.178416   350A      9.518150   351A      9.702164  
     352A      9.769763   353A      9.846779   354A      9.884184  
     355A      9.915589   356A      9.933614   357A      9.950337  
     358A     10.011635   359A     10.254010   360A     10.434019  
     361A     11.116314   362A     11.450164   363A     11.633165  
     364A     11.704031   365A     11.966611   366A     12.993930  
     367A     13.616575   368A     13.905534   369A     14.251542  
     370A     14.640944   371A     42.483647   372A     46.163305  
     373A     61.344610   374A     61.611696  

    Final Occupation by Irrep:
              A 
    DOCC [     9 ]

  @DF-RHF Final Energy:   -79.26011094864586

   => Energetics <=

    Nuclear Repulsion Energy =             42.3335734618422066
    One-Electron Energy =                -189.2725034230800816
    Two-Electron Energy =                  67.6788190125920153
    Total Energy =                        -79.2601109486458597

Computation Completed


Properties will be evaluated at   0.000000,   0.000000,   0.000000 [a0]

Properties computed using the SCF density matrix

  Nuclear Dipole Moment: [e a0]
     X:    79.9516      Y:    -2.8147      Z:    -3.8706

  Electronic Dipole Moment: [e a0]
     X:   -79.9506      Y:     2.8141      Z:     3.8716

  Dipole Moment: [e a0]
     X:     0.0011      Y:    -0.0006      Z:     0.0010     Total:     0.0015

  Dipole Moment: [D]
     X:     0.0027      Y:    -0.0014      Z:     0.0025     Total:     0.0039


*** tstop() called on r282 at Fri Sep 10 20:12:46 2021
Module time:
	user time   =       9.18 seconds =       0.15 minutes
	system time =       0.23 seconds =       0.00 minutes
	total time  =         11 seconds =       0.18 minutes
Total time:
	user time   =      48.01 seconds =       0.80 minutes
	system time =       1.23 seconds =       0.02 minutes
	total time  =         51 seconds =       0.85 minutes
  Constructing Basis Sets for SAPT...

   => Loading Basis Set <=

    Name: (JUN-CC-PVTZ AUX)
    Role: RIFIT
    Keyword: DF_BASIS_SAPT
    atoms 1, 5, 9-10    entry C          line   132 file /home/r08543048/miniconda3/share/psi4/basis/jun-cc-pvtz-ri.gbs 
    atoms 2-3           entry O          line   244 file /home/r08543048/miniconda3/share/psi4/basis/jun-cc-pvtz-ri.gbs 
    atoms 4, 6-8, 11-16 entry H          line    30 file /home/r08543048/miniconda3/share/psi4/basis/jun-cc-pvtz-ri.gbs 


  //>>>>>>>>>>>>>>>>>>>>>>>>>>>>>>>>>>>//
  //               SAPT0               //
  //<<<<<<<<<<<<<<<<<<<<<<<<<<<<<<<<<<<//


*** tstart() called on r282
*** at Fri Sep 10 20:12:46 2021

        SAPT0  
    Ed Hohenstein
     6 June 2009

      Orbital Information
  --------------------------
    NSO        =       374
    NMO        =       374
    NRI        =       882
    NOCC A     =        16
    NOCC B     =         9
    FOCC A     =         0
    FOCC B     =         0
    NVIR A     =       358
    NVIR B     =       365

    Elst10,r            =    -0.001659668842 [Eh]
    Exch10              =     0.004224889952 [Eh]
    Exch10 (S^2)        =     0.004218477942 [Eh]

    Iter     Energy [mEh]          dE [mEh]         Residual      Time [s]
       1      -0.20149531       0.201495310       1.788024036             0
       2      -0.24218038       0.040685067       0.336451787             1
       3      -0.24198260      -0.000197779       0.136087157             1
       4      -0.24147706      -0.000505543       0.043915741             1
       5      -0.24143624      -0.000040811       0.014795135             2
       6      -0.24149524       0.000059001       0.006624651             2
       7      -0.24149659       0.000001343       0.003311928             3
       8      -0.24148831      -0.000008281       0.001169568             3
       9      -0.24148778      -0.000000525       0.000329787             3
      10      -0.24148877       0.000000993       0.000083200             4
      11      -0.24148862      -0.000000157       0.000026775             4
      12      -0.24148859      -0.000000024       0.000008853             5
      13      -0.24148861       0.000000016       0.000002763             5
      14      -0.24148861      -0.000000000       0.000000891             5

    CHF Iterations converged


    Iter     Energy [mEh]          dE [mEh]         Residual      Time [s]
       1      -0.75749795       0.757497945       3.932901517             1
       2      -0.90165802       0.144160077       1.019595963             1
       3      -0.91172232       0.010064299       0.195861703             1
       4      -0.90840628      -0.003316040       0.042622265             2
       5      -0.90850457       0.000098294       0.011918799             2
       6      -0.90862023       0.000115660       0.001832645             2
       7      -0.90860682      -0.000013413       0.000337651             3
       8      -0.90860771       0.000000889       0.000090835             3
       9      -0.90860796       0.000000247       0.000021440             3
      10      -0.90860790      -0.000000052       0.000003628             4
      11      -0.90860790      -0.000000001       0.000000681             4

    CHF Iterations converged

    Ind20,r (A<-B)      =    -0.000241488610 [Eh]
    Ind20,r (B<-A)      =    -0.000908607903 [Eh]
    Ind20,r             =    -0.001150096513 [Eh]
    Exch-Ind20,r (A<-B) =     0.000203388405 [Eh]
    Exch-Ind20,r (B<-A) =     0.000653819037 [Eh]
    Exch-Ind20,r        =     0.000857207443 [Eh]
    Disp20              =    -0.005634971464 [Eh]
    Disp20 (SS)         =    -0.002817485732 [Eh]
    Disp20 (OS)         =    -0.002817485732 [Eh]
    Exch-Disp20         =     0.000456003453 [Eh]
    Exch-Disp20 (SS)    =     0.000298962410 [Eh]
    Exch-Disp20 (OS)    =     0.000157041043 [Eh]

    SAPT Results 
  --------------------------------------------------------------------------------------------------------
    Electrostatics                 -1.65966884 [mEh]      -1.04145792 [kcal/mol]      -4.35745994 [kJ/mol]
      Elst10,r                     -1.65966884 [mEh]      -1.04145792 [kcal/mol]      -4.35745994 [kJ/mol]

    Exchange                        4.22488995 [mEh]       2.65115847 [kcal/mol]      11.09244704 [kJ/mol]
      Exch10                        4.22488995 [mEh]       2.65115847 [kcal/mol]      11.09244704 [kJ/mol]
      Exch10(S^2)                   4.21847794 [mEh]       2.64713487 [kcal/mol]      11.07561231 [kJ/mol]

    Induction                      -0.51590446 [mEh]      -0.32373493 [kcal/mol]      -1.35450697 [kJ/mol]
      Ind20,r                      -1.15009651 [mEh]      -0.72169646 [kcal/mol]      -3.01957798 [kJ/mol]
      Exch-Ind20,r                  0.85720744 [mEh]       0.53790579 [kcal/mol]       2.25059783 [kJ/mol]
      delta HF,r (2)               -0.22301539 [mEh]      -0.13994427 [kcal/mol]      -0.58552682 [kJ/mol]

    Dispersion                     -5.17896801 [mEh]      -3.24985149 [kcal/mol]     -13.59737864 [kJ/mol]
      Disp20                       -5.63497146 [mEh]      -3.53599798 [kcal/mol]     -14.79461554 [kJ/mol]
      Exch-Disp20                   0.45600345 [mEh]       0.28614649 [kcal/mol]       1.19723690 [kJ/mol]
      Disp20 (SS)                  -2.81748573 [mEh]      -1.76799899 [kcal/mol]      -7.39730777 [kJ/mol]
      Disp20 (OS)                  -2.81748573 [mEh]      -1.76799899 [kcal/mol]      -7.39730777 [kJ/mol]
      Exch-Disp20 (SS)              0.29896241 [mEh]       0.18760174 [kcal/mol]       0.78492570 [kJ/mol]
      Exch-Disp20 (OS)              0.15704104 [mEh]       0.09854474 [kcal/mol]       0.41231120 [kJ/mol]

  Total HF                          2.04931665 [mEh]       1.28596561 [kcal/mol]       5.38048013 [kJ/mol]
  Total SAPT0                      -3.12965136 [mEh]      -1.96388588 [kcal/mol]      -8.21689851 [kJ/mol]

  Special recipe for scaled SAPT0 (see Manual):
    Electrostatics sSAPT0          -1.65966884 [mEh]      -1.04145792 [kcal/mol]      -4.35745994 [kJ/mol]
    Exchange sSAPT0                 4.22488995 [mEh]       2.65115847 [kcal/mol]      11.09244704 [kJ/mol]
    Induction sSAPT0               -0.51198969 [mEh]      -0.32127838 [kcal/mol]      -1.34422876 [kJ/mol]
    Dispersion sSAPT0              -5.17688550 [mEh]      -3.24854469 [kcal/mol]     -13.59191100 [kJ/mol]
  Total sSAPT0                     -3.12365408 [mEh]      -1.96012253 [kcal/mol]      -8.20115266 [kJ/mol]
  --------------------------------------------------------------------------------------------------------

*** tstop() called on r282 at Fri Sep 10 20:13:29 2021
Module time:
	user time   =      34.45 seconds =       0.57 minutes
	system time =       6.35 seconds =       0.11 minutes
	total time  =         43 seconds =       0.72 minutes
Total time:
	user time   =      82.57 seconds =       1.38 minutes
	system time =       7.58 seconds =       0.13 minutes
	total time  =         94 seconds =       1.57 minutes

    Psi4 stopped on: Friday, 10 September 2021 08:13PM
    Psi4 wall time for execution: 0:01:34.32

*** Psi4 exiting successfully. Buy a developer a beer!
