
    -----------------------------------------------------------------------
          Psi4: An Open-Source Ab Initio Electronic Structure Package
                               Psi4 1.3.2 release

                         Git: Rev {HEAD} ecbda83 


    R. M. Parrish, L. A. Burns, D. G. A. Smith, A. C. Simmonett,
    A. E. DePrince III, E. G. Hohenstein, U. Bozkaya, A. Yu. Sokolov,
    R. Di Remigio, R. M. Richard, J. F. Gonthier, A. M. James,
    H. R. McAlexander, A. Kumar, M. Saitow, X. Wang, B. P. Pritchard,
    P. Verma, H. F. Schaefer III, K. Patkowski, R. A. King, E. F. Valeev,
    F. A. Evangelista, J. M. Turney, T. D. Crawford, and C. D. Sherrill,
    J. Chem. Theory Comput. 13(7) pp 3185--3197 (2017).
    (doi: 10.1021/acs.jctc.7b00174)


                         Additional Contributions by
    P. Kraus, H. Kruse, M. H. Lechner, M. C. Schieber, R. A. Shaw,
    A. Alenaizan, R. Galvelis, Z. L. Glick, S. Lehtola, and J. P. Misiewicz

    -----------------------------------------------------------------------


    Psi4 started on: Friday, 10 September 2021 08:21PM

    Process ID: 57075
    Host:       r282
    PSIDATADIR: /home/r08543048/miniconda3/share/psi4
    Memory:     500.0 MiB
    Threads:    1
    
  ==> Input File <==

--------------------------------------------------------------------------
# Any line starting with the # character is a comment line
#! Sample  computation

memory 22 gb

molecule Dimer {
0 1
 C 1.486470    1.816441   -0.087003
 C 1.201902    0.505287   -0.797632
 C 1.004926   -0.636264    0.158667
 O 0.955283   -0.557177    1.365849
 O 0.873072   -1.815403   -0.501391
 H 2.391845    1.742574    0.512161
 H 1.615384    2.618233   -0.811758
 H 0.668491    2.079098    0.579922
 H 2.006087    0.228448   -1.480754
 H 0.297532    0.567539   -1.406973
 H 0.734806   -2.488053    0.183854





    
    
 --
0 1
 C   -2.658450   -0.434128   -0.334025
 C   -2.284843    0.892401    0.318447
 H   -2.997357   -1.153503    0.410619
 H   -1.810081   -0.877163   -0.855537
 H   -3.461004   -0.305355   -1.059461
 H   -1.490923    0.760112    1.052879
 H   -3.140419    1.331120    0.830619
 H   -1.941225    1.615167   -0.421962
   
   
   
   
   
   





units angstrom

no_reorient
symmetry c1
}

set globals{
  basis jun-cc-pvtz
}

energy('sapt0')


--------------------------------------------------------------------------

  Memory set to  20.489 GiB by Python driver.

  //>>>>>>>>>>>>>>>>>>>>>>>>>>>>>>>>>>>//
  //              Dimer HF             //
  //<<<<<<<<<<<<<<<<<<<<<<<<<<<<<<<<<<<//


*** tstart() called on r282
*** at Fri Sep 10 20:21:54 2021

   => Loading Basis Set <=

    Name: JUN-CC-PVTZ
    Role: ORBITAL
    Keyword: BASIS
    atoms 1-3, 12-13  entry C          line   217 file /home/r08543048/miniconda3/share/psi4/basis/jun-cc-pvtz.gbs 
    atoms 4-5         entry O          line   305 file /home/r08543048/miniconda3/share/psi4/basis/jun-cc-pvtz.gbs 
    atoms 6-11, 14-19 entry H          line    36 file /home/r08543048/miniconda3/share/psi4/basis/jun-cc-pvtz.gbs 


         ---------------------------------------------------------
                                   SCF
               by Justin Turney, Rob Parrish, Andy Simmonett
                          and Daniel G. A. Smith
                              RHF Reference
                        1 Threads,  20980 MiB Core
         ---------------------------------------------------------

  ==> Geometry <==

    Molecular point group: c1
    Full point group: C1

    Geometry (in Angstrom), charge = 0, multiplicity = 1:

       Center              X                  Y                   Z               Mass       
    ------------   -----------------  -----------------  -----------------  -----------------
         C            1.418622602485     1.874646814729    -0.110471502925    12.000000000000
         C            1.134054602485     0.563492814729    -0.821100502925    12.000000000000
         C            0.937078602485    -0.578058185271     0.135198497075    12.000000000000
         O            0.887435602485    -0.498971185271     1.342380497075    15.994914619570
         O            0.805224602485    -1.757197185271    -0.524859502925    15.994914619570
         H            2.323997602485     1.800779814729     0.488692497075     1.007825032230
         H            1.547536602485     2.676438814729    -0.835226502925     1.007825032230
         H            0.600643602485     2.137303814729     0.556453497075     1.007825032230
         H            1.938239602485     0.286653814729    -1.504222502925     1.007825032230
         H            0.229684602485     0.625744814729    -1.430441502925     1.007825032230
         H            0.666958602485    -2.429847185271     0.160385497075     1.007825032230
         C           -2.726297397515    -0.375922185271    -0.357493502925    12.000000000000
         C           -2.352690397515     0.950606814729     0.294978497075    12.000000000000
         H           -3.065204397515    -1.095297185271     0.387150497075     1.007825032230
         H           -1.877928397515    -0.818957185271    -0.879005502925     1.007825032230
         H           -3.528851397515    -0.247149185271    -1.082929502925     1.007825032230
         H           -1.558770397515     0.818317814729     1.029410497075     1.007825032230
         H           -3.208266397515     1.389325814729     0.807150497075     1.007825032230
         H           -2.009072397515     1.673372814729    -0.445430502925     1.007825032230

  Running in c1 symmetry.

  Rotational constants: A =      0.08494  B =      0.04990  C =      0.03934 [cm^-1]
  Rotational constants: A =   2546.32228  B =   1495.92841  C =   1179.40455 [MHz]
  Nuclear repulsion =  316.967680374752263

  Charge       = 0
  Multiplicity = 1
  Electrons    = 58
  Nalpha       = 29
  Nbeta        = 29

  ==> Algorithm <==

  SCF Algorithm Type is DF.
  DIIS enabled.
  MOM disabled.
  Fractional occupation disabled.
  Guess Type is SAD.
  Energy threshold   = 1.00e-08
  Density threshold  = 1.00e-08
  Integral threshold = 0.00e+00

  ==> Primary Basis <==

  Basis Set: JUN-CC-PVTZ
    Blend: JUN-CC-PVTZ
    Number of shells: 163
    Number of basis function: 441
    Number of Cartesian functions: 495
    Spherical Harmonics?: true
    Max angular momentum: 3

   => Loading Basis Set <=

    Name: (JUN-CC-PVTZ AUX)
    Role: JKFIT
    Keyword: DF_BASIS_SCF
    atoms 1-3, 12-13  entry C          line   152 file /home/r08543048/miniconda3/share/psi4/basis/jun-cc-pvtz-jkfit.gbs 
    atoms 4-5         entry O          line   272 file /home/r08543048/miniconda3/share/psi4/basis/jun-cc-pvtz-jkfit.gbs 
    atoms 6-11, 14-19 entry H          line    70 file /home/r08543048/miniconda3/share/psi4/basis/jun-cc-pvtz-jkfit.gbs 

  ==> Pre-Iterations <==

   -------------------------------------------------------
    Irrep   Nso     Nmo     Nalpha   Nbeta   Ndocc  Nsocc
   -------------------------------------------------------
     A        441     441       0       0       0       0
   -------------------------------------------------------
    Total     441     441      29      29      29       0
   -------------------------------------------------------

  ==> Integral Setup <==

  ==> DiskDFJK: Density-Fitted J/K Matrices <==

    J tasked:                  Yes
    K tasked:                  Yes
    wK tasked:                  No
    OpenMP threads:              1
    Integrals threads:           1
    Memory [MiB]:            15735
    Algorithm:                Core
    Integral Cache:           SAVE
    Schwarz Cutoff:          1E-12
    Fitting Condition:       1E-10

   => Auxiliary Basis Set <=

  Basis Set: (JUN-CC-PVTZ AUX)
    Blend: JUN-CC-PVTZ-JKFIT
    Number of shells: 323
    Number of basis function: 1025
    Number of Cartesian functions: 1232
    Spherical Harmonics?: true
    Max angular momentum: 4

  Minimum eigenvalue in the overlap matrix is 4.3894167237E-05.
  Using Symmetric Orthogonalization.

  SCF Guess: Superposition of Atomic Densities via on-the-fly atomic UHF.

  ==> Iterations <==

                           Total Energy        Delta E     RMS |[F,P]|

   @DF-RHF iter SAD:  -344.84500580382002   -3.44845e+02   0.00000e+00 
   @DF-RHF iter   1:  -345.90284282735445   -1.05784e+00   1.75429e-03 DIIS
   @DF-RHF iter   2:  -346.13969877949387   -2.36856e-01   9.51780e-04 DIIS
   @DF-RHF iter   3:  -346.20558250456639   -6.58837e-02   1.80790e-04 DIIS
   @DF-RHF iter   4:  -346.20960489847073   -4.02239e-03   8.98044e-05 DIIS
   @DF-RHF iter   5:  -346.21046685546037   -8.61957e-04   1.56722e-05 DIIS
   @DF-RHF iter   6:  -346.21051860566467   -5.17502e-05   7.46960e-06 DIIS
   @DF-RHF iter   7:  -346.21052729755996   -8.69190e-06   2.72064e-06 DIIS
   @DF-RHF iter   8:  -346.21052935564001   -2.05808e-06   1.00365e-06 DIIS
   @DF-RHF iter   9:  -346.21052967260590   -3.16966e-07   2.29736e-07 DIIS
   @DF-RHF iter  10:  -346.21052968825103   -1.56451e-08   6.51897e-08 DIIS
   @DF-RHF iter  11:  -346.21052968903433   -7.83302e-10   1.71915e-08 DIIS
   @DF-RHF iter  12:  -346.21052968909351   -5.91740e-11   4.47881e-09 DIIS
  Energy and wave function converged.


  ==> Post-Iterations <==

    Orbital Energies [Eh]
    ---------------------

    Doubly Occupied:                                                      

       1A    -20.614060     2A    -20.551494     3A    -11.387346  
       4A    -11.248525     5A    -11.222014     6A    -11.211091  
       7A    -11.209359     8A     -1.464298     9A     -1.361210  
      10A     -1.069292    11A     -1.019214    12A     -0.916391  
      13A     -0.842605    14A     -0.793806    15A     -0.706472  
      16A     -0.690114    17A     -0.664674    18A     -0.600931  
      19A     -0.598331    20A     -0.595382    21A     -0.592225  
      22A     -0.535740    23A     -0.527355    24A     -0.511410  
      25A     -0.505210    26A     -0.494121    27A     -0.487263  
      28A     -0.477552    29A     -0.454025  

    Virtual:                                                              

      30A      0.048624    31A      0.051670    32A      0.058672  
      33A      0.062703    34A      0.071919    35A      0.083584  
      36A      0.090470    37A      0.095692    38A      0.099238  
      39A      0.113460    40A      0.117835    41A      0.120242  
      42A      0.123037    43A      0.133881    44A      0.136424  
      45A      0.154637    46A      0.165385    47A      0.173327  
      48A      0.184194    49A      0.189987    50A      0.204669  
      51A      0.208095    52A      0.221917    53A      0.239116  
      54A      0.241605    55A      0.251269    56A      0.262942  
      57A      0.270591    58A      0.275476    59A      0.282403  
      60A      0.290535    61A      0.293638    62A      0.295882  
      63A      0.298887    64A      0.309337    65A      0.315645  
      66A      0.323900    67A      0.331205    68A      0.334333  
      69A      0.340729    70A      0.346386    71A      0.348237  
      72A      0.351332    73A      0.365511    74A      0.371633  
      75A      0.377514    76A      0.381842    77A      0.392280  
      78A      0.400089    79A      0.404628    80A      0.407884  
      81A      0.417848    82A      0.440638    83A      0.449913  
      84A      0.458575    85A      0.480035    86A      0.482143  
      87A      0.495973    88A      0.505362    89A      0.518012  
      90A      0.520655    91A      0.526260    92A      0.539382  
      93A      0.546735    94A      0.554077    95A      0.564384  
      96A      0.581751    97A      0.590636    98A      0.594146  
      99A      0.617558   100A      0.636602   101A      0.649454  
     102A      0.660812   103A      0.681923   104A      0.694695  
     105A      0.700747   106A      0.710849   107A      0.714233  
     108A      0.723790   109A      0.730006   110A      0.738456  
     111A      0.751770   112A      0.760899   113A      0.768001  
     114A      0.775721   115A      0.789265   116A      0.794902  
     117A      0.808667   118A      0.817446   119A      0.826749  
     120A      0.828131   121A      0.830860   122A      0.843286  
     123A      0.847264   124A      0.862323   125A      0.870752  
     126A      0.884084   127A      0.895702   128A      0.901840  
     129A      0.910800   130A      0.916870   131A      0.932563  
     132A      0.944726   133A      0.951059   134A      0.963072  
     135A      0.969381   136A      0.990659   137A      0.996369  
     138A      1.011965   139A      1.036555   140A      1.043713  
     141A      1.066562   142A      1.068580   143A      1.077555  
     144A      1.088818   145A      1.110982   146A      1.140365  
     147A      1.153071   148A      1.167012   149A      1.178444  
     150A      1.202197   151A      1.217178   152A      1.245668  
     153A      1.257111   154A      1.275255   155A      1.303194  
     156A      1.314769   157A      1.326850   158A      1.339426  
     159A      1.344677   160A      1.346512   161A      1.354457  
     162A      1.364292   163A      1.387990   164A      1.393512  
     165A      1.407433   166A      1.408092   167A      1.419617  
     168A      1.433000   169A      1.436919   170A      1.460939  
     171A      1.463895   172A      1.481215   173A      1.483630  
     174A      1.501135   175A      1.511395   176A      1.518654  
     177A      1.526982   178A      1.542418   179A      1.554045  
     180A      1.571569   181A      1.594686   182A      1.608235  
     183A      1.618392   184A      1.628977   185A      1.640118  
     186A      1.655219   187A      1.658704   188A      1.672255  
     189A      1.681437   190A      1.687613   191A      1.699736  
     192A      1.711021   193A      1.729040   194A      1.753623  
     195A      1.764501   196A      1.780472   197A      1.784480  
     198A      1.798845   199A      1.841525   200A      1.856418  
     201A      1.887674   202A      1.894220   203A      1.909444  
     204A      1.928010   205A      1.938228   206A      1.953431  
     207A      1.988790   208A      2.009202   209A      2.121625  
     210A      2.190854   211A      2.254903   212A      2.283053  
     213A      2.312059   214A      2.389432   215A      2.442136  
     216A      2.446244   217A      2.469679   218A      2.580960  
     219A      2.602823   220A      2.668210   221A      2.715858  
     222A      2.733404   223A      2.757192   224A      2.778032  
     225A      2.804129   226A      2.813793   227A      2.828551  
     228A      2.840831   229A      2.849801   230A      2.866411  
     231A      2.914696   232A      2.917249   233A      2.940727  
     234A      2.952907   235A      2.962474   236A      2.983678  
     237A      3.035783   238A      3.054586   239A      3.078765  
     240A      3.085709   241A      3.096485   242A      3.111364  
     243A      3.131858   244A      3.138662   245A      3.147568  
     246A      3.184728   247A      3.194975   248A      3.197950  
     249A      3.218457   250A      3.228128   251A      3.238512  
     252A      3.274963   253A      3.281056   254A      3.312063  
     255A      3.316925   256A      3.328731   257A      3.345788  
     258A      3.347878   259A      3.362282   260A      3.387332  
     261A      3.398495   262A      3.424004   263A      3.435543  
     264A      3.442583   265A      3.448236   266A      3.457451  
     267A      3.468310   268A      3.484592   269A      3.490604  
     270A      3.502352   271A      3.504444   272A      3.510949  
     273A      3.523059   274A      3.531410   275A      3.538449  
     276A      3.565426   277A      3.571517   278A      3.585200  
     279A      3.599320   280A      3.612857   281A      3.632772  
     282A      3.658011   283A      3.665687   284A      3.678848  
     285A      3.704954   286A      3.719585   287A      3.741850  
     288A      3.751961   289A      3.767562   290A      3.795580  
     291A      3.811637   292A      3.831201   293A      3.838354  
     294A      3.849604   295A      3.856361   296A      3.861374  
     297A      3.876916   298A      3.882692   299A      3.892861  
     300A      3.900972   301A      3.913255   302A      3.923451  
     303A      3.945880   304A      3.979065   305A      3.983502  
     306A      3.999584   307A      4.032763   308A      4.067669  
     309A      4.113823   310A      4.179367   311A      4.187665  
     312A      4.192610   313A      4.197228   314A      4.207873  
     315A      4.217976   316A      4.221313   317A      4.227710  
     318A      4.241681   319A      4.247007   320A      4.269717  
     321A      4.286302   322A      4.296819   323A      4.304322  
     324A      4.321516   325A      4.337414   326A      4.346566  
     327A      4.354987   328A      4.382795   329A      4.411278  
     330A      4.420729   331A      4.434141   332A      4.451508  
     333A      4.462057   334A      4.471205   335A      4.477333  
     336A      4.487513   337A      4.499835   338A      4.513434  
     339A      4.523955   340A      4.546988   341A      4.559998  
     342A      4.570975   343A      4.586189   344A      4.626132  
     345A      4.665050   346A      4.673603   347A      4.683605  
     348A      4.691062   349A      4.692737   350A      4.727010  
     351A      4.738829   352A      4.745049   353A      4.765286  
     354A      4.800550   355A      4.809647   356A      4.827821  
     357A      4.857958   358A      4.882857   359A      4.933508  
     360A      4.948075   361A      4.952866   362A      5.001257  
     363A      5.069866   364A      5.143702   365A      5.153589  
     366A      5.179640   367A      5.210477   368A      5.225733  
     369A      5.243171   370A      5.261254   371A      5.274784  
     372A      5.281605   373A      5.293301   374A      5.309282  
     375A      5.316838   376A      5.324433   377A      5.335982  
     378A      5.349168   379A      5.352375   380A      5.368334  
     381A      5.471122   382A      5.482879   383A      5.527613  
     384A      5.623159   385A      5.642940   386A      5.655729  
     387A      5.669674   388A      5.690969   389A      5.700330  
     390A      5.736279   391A      5.743220   392A      5.762225  
     393A      5.773534   394A      5.776932   395A      5.780617  
     396A      5.800929   397A      5.806557   398A      5.829640  
     399A      5.857592   400A      5.894361   401A      5.905564  
     402A      5.920587   403A      5.927678   404A      5.939172  
     405A      5.957600   406A      6.035970   407A      6.068628  
     408A      6.150137   409A      6.303770   410A      6.452980  
     411A      6.461925   412A      6.483905   413A      6.492776  
     414A      6.501502   415A      6.521819   416A      6.529036  
     417A      6.586560   418A      6.714877   419A      6.804720  
     420A      7.011491   421A      7.018336   422A      7.085522  
     423A      7.156787   424A      7.274533   425A      7.301038  
     426A      7.354085   427A      7.368968   428A      7.387407  
     429A      7.467686   430A      7.613318   431A      7.743152  
     432A      7.813043   433A      7.970128   434A      8.140945  
     435A     12.066169   436A     14.030324   437A     14.178335  
     438A     14.283501   439A     14.653704   440A     14.684986  
     441A     14.740071  

    Final Occupation by Irrep:
              A 
    DOCC [    29 ]

  @DF-RHF Final Energy:  -346.21052968909351

   => Energetics <=

    Nuclear Repulsion Energy =            316.9676803747522627
    One-Electron Energy =               -1099.6534010746431704
    Two-Electron Energy =                 436.4751910107974027
    Total Energy =                       -346.2105296890935051

Computation Completed


Properties will be evaluated at   0.000000,   0.000000,   0.000000 [a0]

Properties computed using the SCF density matrix

  Nuclear Dipole Moment: [e a0]
     X:    -7.4363      Y:     6.3796      Z:    -2.5723

  Electronic Dipole Moment: [e a0]
     X:     7.4626      Y:    -6.3602      Z:     1.8886

  Dipole Moment: [e a0]
     X:     0.0262      Y:     0.0194      Z:    -0.6837     Total:     0.6845

  Dipole Moment: [D]
     X:     0.0666      Y:     0.0493      Z:    -1.7378     Total:     1.7397


*** tstop() called on r282 at Fri Sep 10 20:22:37 2021
Module time:
	user time   =      42.15 seconds =       0.70 minutes
	system time =       1.08 seconds =       0.02 minutes
	total time  =         43 seconds =       0.72 minutes
Total time:
	user time   =      42.15 seconds =       0.70 minutes
	system time =       1.08 seconds =       0.02 minutes
	total time  =         43 seconds =       0.72 minutes

  //>>>>>>>>>>>>>>>>>>>>>>>>>>>>>>>>>>>//
  //            Monomer A HF           //
  //<<<<<<<<<<<<<<<<<<<<<<<<<<<<<<<<<<<//


*** tstart() called on r282
*** at Fri Sep 10 20:22:37 2021

   => Loading Basis Set <=

    Name: JUN-CC-PVTZ
    Role: ORBITAL
    Keyword: BASIS
    atoms 1-3, 12-13  entry C          line   217 file /home/r08543048/miniconda3/share/psi4/basis/jun-cc-pvtz.gbs 
    atoms 4-5         entry O          line   305 file /home/r08543048/miniconda3/share/psi4/basis/jun-cc-pvtz.gbs 
    atoms 6-11, 14-19 entry H          line    36 file /home/r08543048/miniconda3/share/psi4/basis/jun-cc-pvtz.gbs 


         ---------------------------------------------------------
                                   SCF
               by Justin Turney, Rob Parrish, Andy Simmonett
                          and Daniel G. A. Smith
                              RHF Reference
                        1 Threads,  20980 MiB Core
         ---------------------------------------------------------

  ==> Geometry <==

    Molecular point group: c1
    Full point group: C1

    Geometry (in Angstrom), charge = 0, multiplicity = 1:

       Center              X                  Y                   Z               Mass       
    ------------   -----------------  -----------------  -----------------  -----------------
         C            1.418622602485     1.874646814729    -0.110471502925    12.000000000000
         C            1.134054602485     0.563492814729    -0.821100502925    12.000000000000
         C            0.937078602485    -0.578058185271     0.135198497075    12.000000000000
         O            0.887435602485    -0.498971185271     1.342380497075    15.994914619570
         O            0.805224602485    -1.757197185271    -0.524859502925    15.994914619570
         H            2.323997602485     1.800779814729     0.488692497075     1.007825032230
         H            1.547536602485     2.676438814729    -0.835226502925     1.007825032230
         H            0.600643602485     2.137303814729     0.556453497075     1.007825032230
         H            1.938239602485     0.286653814729    -1.504222502925     1.007825032230
         H            0.229684602485     0.625744814729    -1.430441502925     1.007825032230
         H            0.666958602485    -2.429847185271     0.160385497075     1.007825032230
      Gh(C)          -2.726297397515    -0.375922185271    -0.357493502925    12.000000000000
      Gh(C)          -2.352690397515     0.950606814729     0.294978497075    12.000000000000
      Gh(H)          -3.065204397515    -1.095297185271     0.387150497075     1.007825032230
      Gh(H)          -1.877928397515    -0.818957185271    -0.879005502925     1.007825032230
      Gh(H)          -3.528851397515    -0.247149185271    -1.082929502925     1.007825032230
      Gh(H)          -1.558770397515     0.818317814729     1.029410497075     1.007825032230
      Gh(H)          -3.208266397515     1.389325814729     0.807150497075     1.007825032230
      Gh(H)          -2.009072397515     1.673372814729    -0.445430502925     1.007825032230

  Running in c1 symmetry.

  Rotational constants: A =      0.08494  B =      0.04990  C =      0.03934 [cm^-1]
  Rotational constants: A =   2546.32228  B =   1495.92841  C =   1179.40455 [MHz]
  Nuclear repulsion =  178.567197599371895

  Charge       = 0
  Multiplicity = 1
  Electrons    = 40
  Nalpha       = 20
  Nbeta        = 20

  ==> Algorithm <==

  SCF Algorithm Type is DF.
  DIIS enabled.
  MOM disabled.
  Fractional occupation disabled.
  Guess Type is SAD.
  Energy threshold   = 1.00e-08
  Density threshold  = 1.00e-08
  Integral threshold = 0.00e+00

  ==> Primary Basis <==

  Basis Set: JUN-CC-PVTZ
    Blend: JUN-CC-PVTZ
    Number of shells: 163
    Number of basis function: 441
    Number of Cartesian functions: 495
    Spherical Harmonics?: true
    Max angular momentum: 3

   => Loading Basis Set <=

    Name: (JUN-CC-PVTZ AUX)
    Role: JKFIT
    Keyword: DF_BASIS_SCF
    atoms 1-3, 12-13  entry C          line   152 file /home/r08543048/miniconda3/share/psi4/basis/jun-cc-pvtz-jkfit.gbs 
    atoms 4-5         entry O          line   272 file /home/r08543048/miniconda3/share/psi4/basis/jun-cc-pvtz-jkfit.gbs 
    atoms 6-11, 14-19 entry H          line    70 file /home/r08543048/miniconda3/share/psi4/basis/jun-cc-pvtz-jkfit.gbs 

  ==> Pre-Iterations <==

   -------------------------------------------------------
    Irrep   Nso     Nmo     Nalpha   Nbeta   Ndocc  Nsocc
   -------------------------------------------------------
     A        441     441       0       0       0       0
   -------------------------------------------------------
    Total     441     441      20      20      20       0
   -------------------------------------------------------

  ==> Integral Setup <==

  ==> DiskDFJK: Density-Fitted J/K Matrices <==

    J tasked:                  Yes
    K tasked:                  Yes
    wK tasked:                  No
    OpenMP threads:              1
    Integrals threads:           1
    Memory [MiB]:            15735
    Algorithm:                Core
    Integral Cache:           LOAD
    Schwarz Cutoff:          1E-12
    Fitting Condition:       1E-10

   => Auxiliary Basis Set <=

  Basis Set: (JUN-CC-PVTZ AUX)
    Blend: JUN-CC-PVTZ-JKFIT
    Number of shells: 323
    Number of basis function: 1025
    Number of Cartesian functions: 1232
    Spherical Harmonics?: true
    Max angular momentum: 4

  Minimum eigenvalue in the overlap matrix is 4.3894167237E-05.
  Using Symmetric Orthogonalization.

  SCF Guess: Superposition of Atomic Densities via on-the-fly atomic UHF.

  ==> Iterations <==

                           Total Energy        Delta E     RMS |[F,P]|

   @DF-RHF iter SAD:  -266.06334771720901   -2.66063e+02   0.00000e+00 
   @DF-RHF iter   1:  -266.75371532854450   -6.90368e-01   1.47030e-03 DIIS
   @DF-RHF iter   2:  -266.90057072373281   -1.46855e-01   8.60876e-04 DIIS
   @DF-RHF iter   3:  -266.94931602938465   -4.87453e-02   1.51057e-04 DIIS
   @DF-RHF iter   4:  -266.95205595174247   -2.73992e-03   7.21256e-05 DIIS
   @DF-RHF iter   5:  -266.95265447676303   -5.98525e-04   1.46182e-05 DIIS
   @DF-RHF iter   6:  -266.95269912097126   -4.46442e-05   7.23902e-06 DIIS
   @DF-RHF iter   7:  -266.95270836060672   -9.23964e-06   2.58765e-06 DIIS
   @DF-RHF iter   8:  -266.95271028042123   -1.91981e-06   9.13984e-07 DIIS
   @DF-RHF iter   9:  -266.95271053269647   -2.52275e-07   2.13195e-07 DIIS
   @DF-RHF iter  10:  -266.95271054502427   -1.23278e-08   6.37327e-08 DIIS
   @DF-RHF iter  11:  -266.95271054576813   -7.43853e-10   1.56956e-08 DIIS
   @DF-RHF iter  12:  -266.95271054581690   -4.87717e-11   3.66724e-09 DIIS
  Energy and wave function converged.


  ==> Post-Iterations <==

    Orbital Energies [Eh]
    ---------------------

    Doubly Occupied:                                                      

       1A    -20.613810     2A    -20.551302     3A    -11.387006  
       4A    -11.249236     5A    -11.222884     6A     -1.463767  
       7A     -1.360607     8A     -1.069510     9A     -0.916588  
      10A     -0.793735    11A     -0.705929    12A     -0.689896  
      13A     -0.661891    14A     -0.598663    15A     -0.594014  
      16A     -0.536172    17A     -0.527749    18A     -0.506600  
      19A     -0.484273    20A     -0.453815  

    Virtual:                                                              

      21A      0.036941    22A      0.048343    23A      0.053072  
      24A      0.057147    25A      0.068917    26A      0.079528  
      27A      0.085259    28A      0.093620    29A      0.098849  
      30A      0.105174    31A      0.112760    32A      0.119969  
      33A      0.120945    34A      0.123634    35A      0.132822  
      36A      0.152040    37A      0.155725    38A      0.163363  
      39A      0.168808    40A      0.189190    41A      0.195718  
      42A      0.203770    43A      0.210363    44A      0.223782  
      45A      0.235481    46A      0.239746    47A      0.243409  
      48A      0.263752    49A      0.264347    50A      0.277291  
      51A      0.286294    52A      0.288968    53A      0.294377  
      54A      0.298656    55A      0.300357    56A      0.307616  
      57A      0.314901    58A      0.328134    59A      0.333056  
      60A      0.335793    61A      0.354350    62A      0.362511  
      63A      0.365118    64A      0.367796    65A      0.380309  
      66A      0.383905    67A      0.391561    68A      0.400439  
      69A      0.412128    70A      0.422799    71A      0.429580  
      72A      0.435615    73A      0.441134    74A      0.447915  
      75A      0.462297    76A      0.471609    77A      0.490299  
      78A      0.492723    79A      0.503491    80A      0.513353  
      81A      0.524775    82A      0.534450    83A      0.544476  
      84A      0.548319    85A      0.553545    86A      0.565693  
      87A      0.573336    88A      0.578269    89A      0.591359  
      90A      0.595343    91A      0.609467    92A      0.623593  
      93A      0.630945    94A      0.642885    95A      0.651686  
      96A      0.658927    97A      0.663806    98A      0.693817  
      99A      0.703522   100A      0.721208   101A      0.740444  
     102A      0.743715   103A      0.756182   104A      0.760036  
     105A      0.775831   106A      0.783787   107A      0.790863  
     108A      0.810460   109A      0.820872   110A      0.838240  
     111A      0.851807   112A      0.866368   113A      0.880699  
     114A      0.886437   115A      0.904535   116A      0.913168  
     117A      0.923767   118A      0.934846   119A      0.938214  
     120A      0.971203   121A      0.992191   122A      1.009390  
     123A      1.017439   124A      1.037514   125A      1.048796  
     126A      1.056219   127A      1.069447   128A      1.083940  
     129A      1.098449   130A      1.104190   131A      1.123117  
     132A      1.125117   133A      1.145960   134A      1.152898  
     135A      1.161460   136A      1.174521   137A      1.183078  
     138A      1.195047   139A      1.208887   140A      1.221515  
     141A      1.237090   142A      1.252474   143A      1.256672  
     144A      1.269385   145A      1.283839   146A      1.306469  
     147A      1.308797   148A      1.323122   149A      1.335734  
     150A      1.344224   151A      1.350201   152A      1.352729  
     153A      1.374234   154A      1.376450   155A      1.401642  
     156A      1.411604   157A      1.422406   158A      1.431646  
     159A      1.438040   160A      1.448736   161A      1.461200  
     162A      1.472534   163A      1.487807   164A      1.509487  
     165A      1.515625   166A      1.523523   167A      1.535259  
     168A      1.549138   169A      1.550127   170A      1.565259  
     171A      1.590077   172A      1.597625   173A      1.603466  
     174A      1.604904   175A      1.635781   176A      1.641770  
     177A      1.654381   178A      1.663377   179A      1.666169  
     180A      1.684626   181A      1.690929   182A      1.724811  
     183A      1.734595   184A      1.759909   185A      1.768028  
     186A      1.787148   187A      1.789999   188A      1.793347  
     189A      1.818316   190A      1.845876   191A      1.879959  
     192A      1.909133   193A      1.928062   194A      1.941580  
     195A      1.962397   196A      1.993272   197A      2.011265  
     198A      2.072680   199A      2.095745   200A      2.124589  
     201A      2.189171   202A      2.212399   203A      2.260539  
     204A      2.268267   205A      2.286688   206A      2.333032  
     207A      2.357375   208A      2.399692   209A      2.407936  
     210A      2.420904   211A      2.459642   212A      2.467885  
     213A      2.482028   214A      2.521100   215A      2.563544  
     216A      2.591058   217A      2.614693   218A      2.728125  
     219A      2.746581   220A      2.809370   221A      2.832317  
     222A      2.862905   223A      2.918191   224A      2.924241  
     225A      2.951579   226A      2.980385   227A      3.033620  
     228A      3.034097   229A      3.069863   230A      3.113416  
     231A      3.132713   232A      3.141014   233A      3.184826  
     234A      3.218233   235A      3.276792   236A      3.300837  
     237A      3.316446   238A      3.358013   239A      3.374031  
     240A      3.382770   241A      3.397093   242A      3.434886  
     243A      3.452997   244A      3.466232   245A      3.474687  
     246A      3.495085   247A      3.501360   248A      3.512562  
     249A      3.525428   250A      3.538796   251A      3.554377  
     252A      3.561778   253A      3.567074   254A      3.572350  
     255A      3.581543   256A      3.586973   257A      3.601875  
     258A      3.622458   259A      3.645127   260A      3.663800  
     261A      3.679101   262A      3.685299   263A      3.696584  
     264A      3.721699   265A      3.740125   266A      3.754864  
     267A      3.792330   268A      3.795813   269A      3.797489  
     270A      3.804829   271A      3.824104   272A      3.833503  
     273A      3.851186   274A      3.854198   275A      3.876743  
     276A      3.881252   277A      3.896732   278A      3.912177  
     279A      3.930155   280A      3.950348   281A      3.970137  
     282A      3.998806   283A      4.021555   284A      4.057800  
     285A      4.069915   286A      4.082244   287A      4.096387  
     288A      4.125545   289A      4.134084   290A      4.165842  
     291A      4.186407   292A      4.203445   293A      4.212064  
     294A      4.218728   295A      4.235380   296A      4.243811  
     297A      4.283941   298A      4.313375   299A      4.319433  
     300A      4.335411   301A      4.348876   302A      4.354664  
     303A      4.369050   304A      4.394863   305A      4.405957  
     306A      4.420233   307A      4.431995   308A      4.441510  
     309A      4.444827   310A      4.460328   311A      4.477391  
     312A      4.489782   313A      4.503015   314A      4.515173  
     315A      4.522095   316A      4.530416   317A      4.543129  
     318A      4.550633   319A      4.572744   320A      4.603152  
     321A      4.620063   322A      4.631486   323A      4.664554  
     324A      4.683003   325A      4.688294   326A      4.711116  
     327A      4.720174   328A      4.724271   329A      4.728428  
     330A      4.738916   331A      4.746047   332A      4.763076  
     333A      4.781048   334A      4.783396   335A      4.821493  
     336A      4.835614   337A      4.848253   338A      4.862333  
     339A      4.881985   340A      4.898551   341A      4.919442  
     342A      4.930024   343A      4.940995   344A      4.959282  
     345A      4.984735   346A      4.994419   347A      4.998344  
     348A      5.009979   349A      5.029956   350A      5.032989  
     351A      5.052827   352A      5.061928   353A      5.090630  
     354A      5.136974   355A      5.157974   356A      5.167267  
     357A      5.244709   358A      5.254730   359A      5.264215  
     360A      5.282624   361A      5.315967   362A      5.328051  
     363A      5.356733   364A      5.390553   365A      5.393203  
     366A      5.406329   367A      5.473112   368A      5.483029  
     369A      5.529742   370A      5.623317   371A      5.641054  
     372A      5.642762   373A      5.652644   374A      5.657698  
     375A      5.671897   376A      5.724952   377A      5.725937  
     378A      5.739049   379A      5.746583   380A      5.800871  
     381A      5.827465   382A      5.860482   383A      5.897336  
     384A      5.905735   385A      5.952875   386A      5.999524  
     387A      6.007432   388A      6.037088   389A      6.068853  
     390A      6.148443   391A      6.222893   392A      6.299123  
     393A      6.330980   394A      6.340720   395A      6.367876  
     396A      6.369454   397A      6.394660   398A      6.454100  
     399A      6.456420   400A      6.466985   401A      6.495340  
     402A      6.519726   403A      6.580077   404A      6.714596  
     405A      6.800394   406A      6.804987   407A      6.894361  
     408A      7.011926   409A      7.018466   410A      7.085485  
     411A      7.157348   412A      7.274325   413A      7.299220  
     414A      7.344862   415A      7.360514   416A      7.369046  
     417A      7.386634   418A      7.458952   419A      7.498524  
     420A      7.530661   421A      7.614573   422A      7.651714  
     423A      7.688431   424A      7.743610   425A      7.793092  
     426A      7.799969   427A      7.813596   428A      7.894017  
     429A      7.915751   430A      7.972296   431A      8.143619  
     432A      8.283184   433A      9.732842   434A      9.933474  
     435A     12.071907   436A     14.038980   437A     14.184792  
     438A     14.654960   439A     14.738232   440A     45.123478  
     441A     45.625359  

    Final Occupation by Irrep:
              A 
    DOCC [    20 ]

  @DF-RHF Final Energy:  -266.95271054581690

   => Energetics <=

    Nuclear Repulsion Energy =            178.5671975993718945
    One-Electron Energy =                -718.2649223216543533
    Two-Electron Energy =                 272.7450141764655882
    Total Energy =                       -266.9527105458168990

Computation Completed


Properties will be evaluated at   0.000000,   0.000000,   0.000000 [a0]

Properties computed using the SCF density matrix

  Nuclear Dipole Moment: [e a0]
     X:    78.9658      Y:    -3.3860      Z:    -1.5164

  Electronic Dipole Moment: [e a0]
     X:   -78.9339      Y:     3.4220      Z:     0.7822

  Dipole Moment: [e a0]
     X:     0.0318      Y:     0.0360      Z:    -0.7342     Total:     0.7358

  Dipole Moment: [D]
     X:     0.0809      Y:     0.0915      Z:    -1.8662     Total:     1.8702


*** tstop() called on r282 at Fri Sep 10 20:23:03 2021
Module time:
	user time   =      25.38 seconds =       0.42 minutes
	system time =       0.55 seconds =       0.01 minutes
	total time  =         26 seconds =       0.43 minutes
Total time:
	user time   =      67.53 seconds =       1.13 minutes
	system time =       1.63 seconds =       0.03 minutes
	total time  =         69 seconds =       1.15 minutes

  //>>>>>>>>>>>>>>>>>>>>>>>>>>>>>>>>>>>//
  //            Monomer B HF           //
  //<<<<<<<<<<<<<<<<<<<<<<<<<<<<<<<<<<<//


*** tstart() called on r282
*** at Fri Sep 10 20:23:03 2021

   => Loading Basis Set <=

    Name: JUN-CC-PVTZ
    Role: ORBITAL
    Keyword: BASIS
    atoms 1-3, 12-13  entry C          line   217 file /home/r08543048/miniconda3/share/psi4/basis/jun-cc-pvtz.gbs 
    atoms 4-5         entry O          line   305 file /home/r08543048/miniconda3/share/psi4/basis/jun-cc-pvtz.gbs 
    atoms 6-11, 14-19 entry H          line    36 file /home/r08543048/miniconda3/share/psi4/basis/jun-cc-pvtz.gbs 


         ---------------------------------------------------------
                                   SCF
               by Justin Turney, Rob Parrish, Andy Simmonett
                          and Daniel G. A. Smith
                              RHF Reference
                        1 Threads,  20980 MiB Core
         ---------------------------------------------------------

  ==> Geometry <==

    Molecular point group: c1
    Full point group: C1

    Geometry (in Angstrom), charge = 0, multiplicity = 1:

       Center              X                  Y                   Z               Mass       
    ------------   -----------------  -----------------  -----------------  -----------------
      Gh(C)           1.418622602485     1.874646814729    -0.110471502925    12.000000000000
      Gh(C)           1.134054602485     0.563492814729    -0.821100502925    12.000000000000
      Gh(C)           0.937078602485    -0.578058185271     0.135198497075    12.000000000000
      Gh(O)           0.887435602485    -0.498971185271     1.342380497075    15.994914619570
      Gh(O)           0.805224602485    -1.757197185271    -0.524859502925    15.994914619570
      Gh(H)           2.323997602485     1.800779814729     0.488692497075     1.007825032230
      Gh(H)           1.547536602485     2.676438814729    -0.835226502925     1.007825032230
      Gh(H)           0.600643602485     2.137303814729     0.556453497075     1.007825032230
      Gh(H)           1.938239602485     0.286653814729    -1.504222502925     1.007825032230
      Gh(H)           0.229684602485     0.625744814729    -1.430441502925     1.007825032230
      Gh(H)           0.666958602485    -2.429847185271     0.160385497075     1.007825032230
         C           -2.726297397515    -0.375922185271    -0.357493502925    12.000000000000
         C           -2.352690397515     0.950606814729     0.294978497075    12.000000000000
         H           -3.065204397515    -1.095297185271     0.387150497075     1.007825032230
         H           -1.877928397515    -0.818957185271    -0.879005502925     1.007825032230
         H           -3.528851397515    -0.247149185271    -1.082929502925     1.007825032230
         H           -1.558770397515     0.818317814729     1.029410497075     1.007825032230
         H           -3.208266397515     1.389325814729     0.807150497075     1.007825032230
         H           -2.009072397515     1.673372814729    -0.445430502925     1.007825032230

  Running in c1 symmetry.

  Rotational constants: A =      0.08494  B =      0.04990  C =      0.03934 [cm^-1]
  Rotational constants: A =   2546.32228  B =   1495.92841  C =   1179.40455 [MHz]
  Nuclear repulsion =   42.325925743127740

  Charge       = 0
  Multiplicity = 1
  Electrons    = 18
  Nalpha       = 9
  Nbeta        = 9

  ==> Algorithm <==

  SCF Algorithm Type is DF.
  DIIS enabled.
  MOM disabled.
  Fractional occupation disabled.
  Guess Type is SAD.
  Energy threshold   = 1.00e-08
  Density threshold  = 1.00e-08
  Integral threshold = 0.00e+00

  ==> Primary Basis <==

  Basis Set: JUN-CC-PVTZ
    Blend: JUN-CC-PVTZ
    Number of shells: 163
    Number of basis function: 441
    Number of Cartesian functions: 495
    Spherical Harmonics?: true
    Max angular momentum: 3

   => Loading Basis Set <=

    Name: (JUN-CC-PVTZ AUX)
    Role: JKFIT
    Keyword: DF_BASIS_SCF
    atoms 1-3, 12-13  entry C          line   152 file /home/r08543048/miniconda3/share/psi4/basis/jun-cc-pvtz-jkfit.gbs 
    atoms 4-5         entry O          line   272 file /home/r08543048/miniconda3/share/psi4/basis/jun-cc-pvtz-jkfit.gbs 
    atoms 6-11, 14-19 entry H          line    70 file /home/r08543048/miniconda3/share/psi4/basis/jun-cc-pvtz-jkfit.gbs 

  ==> Pre-Iterations <==

   -------------------------------------------------------
    Irrep   Nso     Nmo     Nalpha   Nbeta   Ndocc  Nsocc
   -------------------------------------------------------
     A        441     441       0       0       0       0
   -------------------------------------------------------
    Total     441     441       9       9       9       0
   -------------------------------------------------------

  ==> Integral Setup <==

  ==> DiskDFJK: Density-Fitted J/K Matrices <==

    J tasked:                  Yes
    K tasked:                  Yes
    wK tasked:                  No
    OpenMP threads:              1
    Integrals threads:           1
    Memory [MiB]:            15735
    Algorithm:                Core
    Integral Cache:           LOAD
    Schwarz Cutoff:          1E-12
    Fitting Condition:       1E-10

   => Auxiliary Basis Set <=

  Basis Set: (JUN-CC-PVTZ AUX)
    Blend: JUN-CC-PVTZ-JKFIT
    Number of shells: 323
    Number of basis function: 1025
    Number of Cartesian functions: 1232
    Spherical Harmonics?: true
    Max angular momentum: 4

  Minimum eigenvalue in the overlap matrix is 4.3894167237E-05.
  Using Symmetric Orthogonalization.

  SCF Guess: Superposition of Atomic Densities via on-the-fly atomic UHF.

  ==> Iterations <==

                           Total Energy        Delta E     RMS |[F,P]|

   @DF-RHF iter SAD:   -78.65839820881067   -7.86584e+01   0.00000e+00 
   @DF-RHF iter   1:   -79.14820529953775   -4.89807e-01   9.84068e-04 DIIS
   @DF-RHF iter   2:   -79.23892968029907   -9.07244e-02   4.49369e-04 DIIS
   @DF-RHF iter   3:   -79.25883911411600   -1.99094e-02   7.35127e-05 DIIS
   @DF-RHF iter   4:   -79.26010450691680   -1.26539e-03   1.02011e-05 DIIS
   @DF-RHF iter   5:   -79.26013235905710   -2.78521e-05   1.82386e-06 DIIS
   @DF-RHF iter   6:   -79.26013320061080   -8.41554e-07   2.19113e-07 DIIS
   @DF-RHF iter   7:   -79.26013321351144   -1.29006e-08   2.43037e-08 DIIS
   @DF-RHF iter   8:   -79.26013321364566   -1.34222e-10   4.16395e-09 DIIS
  Energy and wave function converged.


  ==> Post-Iterations <==

    Orbital Energies [Eh]
    ---------------------

    Doubly Occupied:                                                      

       1A    -11.210675     2A    -11.210051     3A     -1.018241  
       4A     -0.841693     5A     -0.597299     6A     -0.596426  
       7A     -0.509840     8A     -0.487001     9A     -0.486138  

    Virtual:                                                              

      10A      0.032156    11A      0.046755    12A      0.052637  
      13A      0.060844    14A      0.069953    15A      0.082705  
      16A      0.086906    17A      0.088731    18A      0.090215  
      19A      0.107858    20A      0.112310    21A      0.117993  
      22A      0.121043    23A      0.122912    24A      0.135199  
      25A      0.146557    26A      0.149482    27A      0.155543  
      28A      0.158312    29A      0.182600    30A      0.193553  
      31A      0.204055    32A      0.213062    33A      0.222382  
      34A      0.230468    35A      0.234034    36A      0.244691  
      37A      0.259236    38A      0.267808    39A      0.280432  
      40A      0.281612    41A      0.284714    42A      0.295369  
      43A      0.304091    44A      0.317736    45A      0.320786  
      46A      0.324075    47A      0.336479    48A      0.340630  
      49A      0.349246    50A      0.352786    51A      0.354457  
      52A      0.364124    53A      0.365745    54A      0.375579  
      55A      0.379164    56A      0.387117    57A      0.396546  
      58A      0.404159    59A      0.413366    60A      0.419736  
      61A      0.432807    62A      0.444417    63A      0.458894  
      64A      0.468972    65A      0.485030    66A      0.491355  
      67A      0.497373    68A      0.515784    69A      0.521470  
      70A      0.526990    71A      0.539473    72A      0.543292  
      73A      0.545817    74A      0.552083    75A      0.563550  
      76A      0.571470    77A      0.595368    78A      0.604745  
      79A      0.615030    80A      0.620235    81A      0.636780  
      82A      0.653239    83A      0.661453    84A      0.664952  
      85A      0.687415    86A      0.695466    87A      0.705121  
      88A      0.728966    89A      0.744038    90A      0.755390  
      91A      0.758700    92A      0.767828    93A      0.778337  
      94A      0.794209    95A      0.808498    96A      0.818779  
      97A      0.824736    98A      0.845962    99A      0.858026  
     100A      0.868770   101A      0.884862   102A      0.892350  
     103A      0.904085   104A      0.916827   105A      0.919933  
     106A      0.933120   107A      0.952003   108A      0.961645  
     109A      0.967567   110A      0.981012   111A      0.994080  
     112A      1.010722   113A      1.012235   114A      1.022121  
     115A      1.047431   116A      1.059621   117A      1.066729  
     118A      1.074529   119A      1.088888   120A      1.100340  
     121A      1.123675   122A      1.154583   123A      1.154990  
     124A      1.180588   125A      1.187743   126A      1.207044  
     127A      1.215651   128A      1.232599   129A      1.238107  
     130A      1.254833   131A      1.276987   132A      1.284549  
     133A      1.291365   134A      1.298555   135A      1.314199  
     136A      1.322247   137A      1.333879   138A      1.353511  
     139A      1.359861   140A      1.366536   141A      1.372022  
     142A      1.392761   143A      1.403476   144A      1.410960  
     145A      1.429025   146A      1.445605   147A      1.457178  
     148A      1.459435   149A      1.473952   150A      1.475800  
     151A      1.491383   152A      1.505853   153A      1.524454  
     154A      1.531444   155A      1.552340   156A      1.564403  
     157A      1.570939   158A      1.590265   159A      1.593858  
     160A      1.604494   161A      1.619779   162A      1.635992  
     163A      1.646276   164A      1.661918   165A      1.670843  
     166A      1.695522   167A      1.701763   168A      1.713746  
     169A      1.728520   170A      1.749101   171A      1.773514  
     172A      1.778310   173A      1.809159   174A      1.813448  
     175A      1.825400   176A      1.849237   177A      1.886906  
     178A      1.899293   179A      1.908490   180A      1.925750  
     181A      1.933066   182A      1.973999   183A      1.980578  
     184A      2.003297   185A      2.014095   186A      2.062159  
     187A      2.090241   188A      2.131190   189A      2.158404  
     190A      2.192263   191A      2.233820   192A      2.311548  
     193A      2.406086   194A      2.423981   195A      2.446265  
     196A      2.547318   197A      2.575381   198A      2.588714  
     199A      2.601009   200A      2.664879   201A      2.709621  
     202A      2.740379   203A      2.749755   204A      2.769971  
     205A      2.783025   206A      2.798412   207A      2.805373  
     208A      2.834658   209A      2.859718   210A      2.883411  
     211A      2.900801   212A      2.909016   213A      2.963392  
     214A      2.981685   215A      2.983167   216A      3.010191  
     217A      3.049760   218A      3.074820   219A      3.089825  
     220A      3.104449   221A      3.120775   222A      3.144367  
     223A      3.200985   224A      3.214087   225A      3.240445  
     226A      3.245206   227A      3.279131   228A      3.293860  
     229A      3.335865   230A      3.346530   231A      3.351854  
     232A      3.366707   233A      3.411482   234A      3.438629  
     235A      3.444408   236A      3.464562   237A      3.504570  
     238A      3.517595   239A      3.528888   240A      3.541956  
     241A      3.555559   242A      3.566132   243A      3.590626  
     244A      3.598661   245A      3.612149   246A      3.628413  
     247A      3.630742   248A      3.680525   249A      3.700620  
     250A      3.717782   251A      3.718125   252A      3.735396  
     253A      3.765770   254A      3.787660   255A      3.797533  
     256A      3.813660   257A      3.833090   258A      3.850238  
     259A      3.857636   260A      3.866804   261A      3.871590  
     262A      3.879498   263A      3.901787   264A      3.911129  
     265A      3.914118   266A      3.923674   267A      3.951439  
     268A      3.967884   269A      3.983284   270A      3.998347  
     271A      4.050382   272A      4.109787   273A      4.120544  
     274A      4.162383   275A      4.173920   276A      4.187463  
     277A      4.196985   278A      4.217285   279A      4.223470  
     280A      4.233065   281A      4.233949   282A      4.261457  
     283A      4.275892   284A      4.283336   285A      4.302729  
     286A      4.319785   287A      4.350455   288A      4.386752  
     289A      4.389767   290A      4.401054   291A      4.431958  
     292A      4.444273   293A      4.457396   294A      4.473622  
     295A      4.489237   296A      4.495334   297A      4.498053  
     298A      4.515427   299A      4.521494   300A      4.543068  
     301A      4.561561   302A      4.589147   303A      4.603890  
     304A      4.628024   305A      4.653220   306A      4.666620  
     307A      4.674392   308A      4.675062   309A      4.688700  
     310A      4.711794   311A      4.734944   312A      4.746680  
     313A      4.754790   314A      4.762637   315A      4.781039  
     316A      4.796929   317A      4.797971   318A      4.804132  
     319A      4.810339   320A      4.825118   321A      4.847919  
     322A      4.854139   323A      4.881735   324A      4.896842  
     325A      4.913600   326A      4.927566   327A      4.943711  
     328A      4.944101   329A      4.953200   330A      4.970558  
     331A      4.997261   332A      5.018116   333A      5.027404  
     334A      5.038356   335A      5.045463   336A      5.055819  
     337A      5.105811   338A      5.145993   339A      5.149416  
     340A      5.182448   341A      5.211628   342A      5.223338  
     343A      5.235920   344A      5.274921   345A      5.289937  
     346A      5.293151   347A      5.301143   348A      5.329748  
     349A      5.336443   350A      5.355066   351A      5.362594  
     352A      5.376249   353A      5.423482   354A      5.513019  
     355A      5.581410   356A      5.599554   357A      5.666537  
     358A      5.693795   359A      5.702933   360A      5.714070  
     361A      5.757656   362A      5.766936   363A      5.775549  
     364A      5.779320   365A      5.786521   366A      5.805738  
     367A      5.840280   368A      5.869959   369A      5.915492  
     370A      5.929933   371A      5.940746   372A      6.000694  
     373A      6.115643   374A      6.166163   375A      6.209862  
     376A      6.230508   377A      6.326017   378A      6.383769  
     379A      6.414696   380A      6.442316   381A      6.453125  
     382A      6.464717   383A      6.469763   384A      6.491215  
     385A      6.500168   386A      6.516061   387A      6.538826  
     388A      6.617671   389A      6.635433   390A      6.816626  
     391A      6.839394   392A      6.899957   393A      7.051889  
     394A      7.145700   395A      7.193201   396A      7.273502  
     397A      7.427392   398A      7.477037   399A      7.545219  
     400A      7.598419   401A      7.657308   402A      7.717337  
     403A      7.810421   404A      7.839751   405A      7.883834  
     406A      7.941510   407A      8.006479   408A      8.078358  
     409A      8.170616   410A      8.240001   411A      8.442062  
     412A      8.604365   413A      8.828024   414A      9.203210  
     415A      9.543623   416A      9.712473   417A      9.746929  
     418A      9.770367   419A      9.878012   420A      9.903413  
     421A      9.916693   422A      9.930224   423A      9.959366  
     424A     10.047181   425A     10.264051   426A     10.443634  
     427A     11.142932   428A     11.503621   429A     11.654010  
     430A     11.725395   431A     12.048787   432A     13.017115  
     433A     13.644290   434A     13.940141   435A     14.274644  
     436A     14.686484   437A     42.766230   438A     45.175757  
     439A     45.877511   440A     61.586216   441A     62.084898  

    Final Occupation by Irrep:
              A 
    DOCC [     9 ]

  @DF-RHF Final Energy:   -79.26013321364566

   => Energetics <=

    Nuclear Repulsion Energy =             42.3259257431277405
    One-Electron Energy =                -189.2573918036200951
    Two-Electron Energy =                  67.6713328468467097
    Total Energy =                        -79.2601332136456591

Computation Completed


Properties will be evaluated at   0.000000,   0.000000,   0.000000 [a0]

Properties computed using the SCF density matrix

  Nuclear Dipole Moment: [e a0]
     X:   -86.4021      Y:     9.7656      Z:    -1.0559

  Electronic Dipole Moment: [e a0]
     X:    86.4007      Y:    -9.7658      Z:     1.0565

  Dipole Moment: [e a0]
     X:    -0.0014      Y:    -0.0002      Z:     0.0006     Total:     0.0016

  Dipole Moment: [D]
     X:    -0.0036      Y:    -0.0006      Z:     0.0016     Total:     0.0040


*** tstop() called on r282 at Fri Sep 10 20:23:20 2021
Module time:
	user time   =      16.24 seconds =       0.27 minutes
	system time =       0.37 seconds =       0.01 minutes
	total time  =         17 seconds =       0.28 minutes
Total time:
	user time   =      83.77 seconds =       1.40 minutes
	system time =       2.00 seconds =       0.03 minutes
	total time  =         86 seconds =       1.43 minutes
  Constructing Basis Sets for SAPT...

   => Loading Basis Set <=

    Name: (JUN-CC-PVTZ AUX)
    Role: RIFIT
    Keyword: DF_BASIS_SAPT
    atoms 1-3, 12-13  entry C          line   132 file /home/r08543048/miniconda3/share/psi4/basis/jun-cc-pvtz-ri.gbs 
    atoms 4-5         entry O          line   244 file /home/r08543048/miniconda3/share/psi4/basis/jun-cc-pvtz-ri.gbs 
    atoms 6-11, 14-19 entry H          line    30 file /home/r08543048/miniconda3/share/psi4/basis/jun-cc-pvtz-ri.gbs 


  //>>>>>>>>>>>>>>>>>>>>>>>>>>>>>>>>>>>//
  //               SAPT0               //
  //<<<<<<<<<<<<<<<<<<<<<<<<<<<<<<<<<<<//


*** tstart() called on r282
*** at Fri Sep 10 20:23:20 2021

        SAPT0  
    Ed Hohenstein
     6 June 2009

      Orbital Information
  --------------------------
    NSO        =       441
    NMO        =       441
    NRI        =      1039
    NOCC A     =        20
    NOCC B     =         9
    FOCC A     =         0
    FOCC B     =         0
    NVIR A     =       421
    NVIR B     =       432

    Elst10,r            =    -0.001957787105 [Eh]
    Exch10              =     0.004785231639 [Eh]
    Exch10 (S^2)        =     0.004779204124 [Eh]

    Iter     Energy [mEh]          dE [mEh]         Residual      Time [s]
       1      -0.20015337       0.200153367       1.780402280             1
       2      -0.23901184       0.038858470       0.320588706             2
       3      -0.23904494       0.000033104       0.101258746             2
       4      -0.23849956      -0.000545382       0.026614171             3
       5      -0.23854065       0.000041087       0.012148061             4
       6      -0.23857154       0.000030892       0.004557222             5
       7      -0.23856815      -0.000003388       0.002255560             5
       8      -0.23856332      -0.000004834       0.000699664             6
       9      -0.23856386       0.000000545       0.000299817             7
      10      -0.23856449       0.000000628       0.000099851             7
      11      -0.23856446      -0.000000030       0.000034670             8
      12      -0.23856438      -0.000000078       0.000011242             9
      13      -0.23856439       0.000000012       0.000003988             9
      14      -0.23856440       0.000000006       0.000001076            10
      15      -0.23856440      -0.000000002       0.000000288            11

    CHF Iterations converged


    Iter     Energy [mEh]          dE [mEh]         Residual      Time [s]
       1      -0.71660926       0.716609259       3.654097832             0
       2      -0.85243776       0.135828500       0.878843601             1
       3      -0.85908458       0.006646825       0.195366113             2
       4      -0.85694620      -0.002138383       0.061891270             2
       5      -0.85662891      -0.000317293       0.012094745             3
       6      -0.85677722       0.000148315       0.001763728             3
       7      -0.85676663      -0.000010593       0.000440062             4
       8      -0.85676610      -0.000000531       0.000123451             5
       9      -0.85676662       0.000000520       0.000021593             5
      10      -0.85676661      -0.000000011       0.000004069             6
      11      -0.85676660      -0.000000013       0.000000789             6

    CHF Iterations converged

    Ind20,r (A<-B)      =    -0.000238564397 [Eh]
    Ind20,r (B<-A)      =    -0.000856766595 [Eh]
    Ind20,r             =    -0.001095330992 [Eh]
    Exch-Ind20,r (A<-B) =     0.000191705379 [Eh]
    Exch-Ind20,r (B<-A) =     0.000649935178 [Eh]
    Exch-Ind20,r        =     0.000841640557 [Eh]
    Disp20              =    -0.006357833589 [Eh]
    Disp20 (SS)         =    -0.003178916795 [Eh]
    Disp20 (OS)         =    -0.003178916795 [Eh]
    Exch-Disp20         =     0.000508729669 [Eh]
    Exch-Disp20 (SS)    =     0.000335255427 [Eh]
    Exch-Disp20 (OS)    =     0.000173474242 [Eh]

    SAPT Results 
  --------------------------------------------------------------------------------------------------------
    Electrostatics                 -1.95778711 [mEh]      -1.22852996 [kcal/mol]      -5.14016934 [kJ/mol]
      Elst10,r                     -1.95778711 [mEh]      -1.22852996 [kcal/mol]      -5.14016934 [kJ/mol]

    Exchange                        4.78523164 [mEh]       3.00277819 [kcal/mol]      12.56362394 [kJ/mol]
      Exch10                        4.78523164 [mEh]       3.00277819 [kcal/mol]      12.56362394 [kJ/mol]
      Exch10(S^2)                   4.77920412 [mEh]       2.99899586 [kcal/mol]      12.54779870 [kJ/mol]

    Induction                      -0.51337416 [mEh]      -0.32214715 [kcal/mol]      -1.34786368 [kJ/mol]
      Ind20,r                      -1.09533099 [mEh]      -0.68733057 [kcal/mol]      -2.87579112 [kJ/mol]
      Exch-Ind20,r                  0.84164056 [mEh]       0.52813742 [kcal/mol]       2.20972698 [kJ/mol]
      delta HF,r (2)               -0.25968373 [mEh]      -0.16295400 [kcal/mol]      -0.68179954 [kJ/mol]

    Dispersion                     -5.84910392 [mEh]      -3.67036812 [kcal/mol]     -15.35682023 [kJ/mol]
      Disp20                       -6.35783359 [mEh]      -3.98960081 [kcal/mol]     -16.69248979 [kJ/mol]
      Exch-Disp20                   0.50872967 [mEh]       0.31923269 [kcal/mol]       1.33566956 [kJ/mol]
      Disp20 (SS)                  -3.17891679 [mEh]      -1.99480040 [kcal/mol]      -8.34624489 [kJ/mol]
      Disp20 (OS)                  -3.17891679 [mEh]      -1.99480040 [kcal/mol]      -8.34624489 [kJ/mol]
      Exch-Disp20 (SS)              0.33525543 [mEh]       0.21037596 [kcal/mol]       0.88021300 [kJ/mol]
      Exch-Disp20 (OS)              0.17347424 [mEh]       0.10885673 [kcal/mol]       0.45545656 [kJ/mol]

  Total HF                          2.31407037 [mEh]       1.45210108 [kcal/mol]       6.07559092 [kJ/mol]
  Total SAPT0                      -3.53503355 [mEh]      -2.21826704 [kcal/mol]      -9.28122931 [kJ/mol]

  Special recipe for scaled SAPT0 (see Manual):
    Electrostatics sSAPT0          -1.95778711 [mEh]      -1.22852996 [kcal/mol]      -5.14016934 [kJ/mol]
    Exchange sSAPT0                 4.78523164 [mEh]       3.00277819 [kcal/mol]      12.56362394 [kJ/mol]
    Induction sSAPT0               -0.51018572 [mEh]      -0.32014638 [kcal/mol]      -1.33949244 [kJ/mol]
    Dispersion sSAPT0              -5.84717667 [mEh]      -3.66915875 [kcal/mol]     -15.35176022 [kJ/mol]
  Total sSAPT0                     -3.52991786 [mEh]      -2.21505690 [kcal/mol]      -9.26779806 [kJ/mol]
  --------------------------------------------------------------------------------------------------------

*** tstop() called on r282 at Fri Sep 10 20:24:38 2021
Module time:
	user time   =      64.63 seconds =       1.08 minutes
	system time =      11.19 seconds =       0.19 minutes
	total time  =         78 seconds =       1.30 minutes
Total time:
	user time   =     148.52 seconds =       2.48 minutes
	system time =      13.19 seconds =       0.22 minutes
	total time  =        164 seconds =       2.73 minutes

    Psi4 stopped on: Friday, 10 September 2021 08:24PM
    Psi4 wall time for execution: 0:02:44.02

*** Psi4 exiting successfully. Buy a developer a beer!
