
    -----------------------------------------------------------------------
          Psi4: An Open-Source Ab Initio Electronic Structure Package
                               Psi4 1.3.2 release

                         Git: Rev {HEAD} ecbda83 


    R. M. Parrish, L. A. Burns, D. G. A. Smith, A. C. Simmonett,
    A. E. DePrince III, E. G. Hohenstein, U. Bozkaya, A. Yu. Sokolov,
    R. Di Remigio, R. M. Richard, J. F. Gonthier, A. M. James,
    H. R. McAlexander, A. Kumar, M. Saitow, X. Wang, B. P. Pritchard,
    P. Verma, H. F. Schaefer III, K. Patkowski, R. A. King, E. F. Valeev,
    F. A. Evangelista, J. M. Turney, T. D. Crawford, and C. D. Sherrill,
    J. Chem. Theory Comput. 13(7) pp 3185--3197 (2017).
    (doi: 10.1021/acs.jctc.7b00174)


                         Additional Contributions by
    P. Kraus, H. Kruse, M. H. Lechner, M. C. Schieber, R. A. Shaw,
    A. Alenaizan, R. Galvelis, Z. L. Glick, S. Lehtola, and J. P. Misiewicz

    -----------------------------------------------------------------------


    Psi4 started on: Friday, 10 September 2021 08:15PM

    Process ID: 57067
    Host:       r282
    PSIDATADIR: /home/r08543048/miniconda3/share/psi4
    Memory:     500.0 MiB
    Threads:    1
    
  ==> Input File <==

--------------------------------------------------------------------------
# Any line starting with the # character is a comment line
#! Sample  computation

memory 22 gb

molecule Dimer {
0 1
 C  0.733443    1.936084    0.094794
 C  0.751206    0.666281   -0.737124
 C  0.671799   -0.573092    0.107709
 O  0.647967   -0.613093    1.317500
 O  0.629450   -1.691961   -0.660149
 H  1.568836    1.953432    0.791406
 H  0.799403    2.810959   -0.549353
 H -0.183485    2.002238    0.676794
 H  1.659819    0.589626   -1.337402
 H -0.079725    0.632056   -1.443179
 H  0.584671   -2.436237   -0.039668





    
    
 --
0 1
 C   -2.750186    0.071381   -0.014798
 H   -2.682650    1.066128   -0.447892
 H   -3.786272   -0.142465    0.232450
 H   -2.392623   -0.663054   -0.732188
 H   -2.144887    0.023826    0.886740
   
   
   
   
   
   
   
   
   





units angstrom

no_reorient
symmetry c1
}

set globals{
  basis jun-cc-pvtz
}

energy('sapt0')


--------------------------------------------------------------------------

  Memory set to  20.489 GiB by Python driver.

  //>>>>>>>>>>>>>>>>>>>>>>>>>>>>>>>>>>>//
  //              Dimer HF             //
  //<<<<<<<<<<<<<<<<<<<<<<<<<<<<<<<<<<<//


*** tstart() called on r282
*** at Fri Sep 10 20:15:41 2021

   => Loading Basis Set <=

    Name: JUN-CC-PVTZ
    Role: ORBITAL
    Keyword: BASIS
    atoms 1-3, 12     entry C          line   217 file /home/r08543048/miniconda3/share/psi4/basis/jun-cc-pvtz.gbs 
    atoms 4-5         entry O          line   305 file /home/r08543048/miniconda3/share/psi4/basis/jun-cc-pvtz.gbs 
    atoms 6-11, 13-16 entry H          line    36 file /home/r08543048/miniconda3/share/psi4/basis/jun-cc-pvtz.gbs 


         ---------------------------------------------------------
                                   SCF
               by Justin Turney, Rob Parrish, Andy Simmonett
                          and Daniel G. A. Smith
                              RHF Reference
                        1 Threads,  20980 MiB Core
         ---------------------------------------------------------

  ==> Geometry <==

    Molecular point group: c1
    Full point group: C1

    Geometry (in Angstrom), charge = 0, multiplicity = 1:

       Center              X                  Y                   Z               Mass       
    ------------   -----------------  -----------------  -----------------  -----------------
         C            0.660183790723     2.000247842291     0.073214788681    12.000000000000
         C            0.677946790723     0.730444842291    -0.758703211319    12.000000000000
         C            0.598539790723    -0.508928157709     0.086129788681    12.000000000000
         O            0.574707790723    -0.548929157709     1.295920788681    15.994914619570
         O            0.556190790723    -1.627797157709    -0.681728211319    15.994914619570
         H            1.495576790723     2.017595842291     0.769826788681     1.007825032230
         H            0.726143790723     2.875122842291    -0.570932211319     1.007825032230
         H           -0.256744209277     2.066401842291     0.655214788681     1.007825032230
         H            1.586559790723     0.653789842291    -1.358981211319     1.007825032230
         H           -0.152984209277     0.696219842291    -1.464758211319     1.007825032230
         H            0.511411790723    -2.372073157709    -0.061247211319     1.007825032230
         C           -2.823445209277     0.135544842291    -0.036377211319    12.000000000000
         H           -2.755909209277     1.130291842291    -0.469471211319     1.007825032230
         H           -3.859531209277    -0.078301157709     0.210870788681     1.007825032230
         H           -2.465882209277    -0.598890157709    -0.753767211319     1.007825032230
         H           -2.218146209277     0.087989842291     0.865160788681     1.007825032230

  Running in c1 symmetry.

  Rotational constants: A =      0.09474  B =      0.08064  C =      0.05807 [cm^-1]
  Rotational constants: A =   2840.11427  B =   2417.49880  C =   1740.79155 [MHz]
  Nuclear repulsion =  248.217462434133807

  Charge       = 0
  Multiplicity = 1
  Electrons    = 50
  Nalpha       = 25
  Nbeta        = 25

  ==> Algorithm <==

  SCF Algorithm Type is DF.
  DIIS enabled.
  MOM disabled.
  Fractional occupation disabled.
  Guess Type is SAD.
  Energy threshold   = 1.00e-08
  Density threshold  = 1.00e-08
  Integral threshold = 0.00e+00

  ==> Primary Basis <==

  Basis Set: JUN-CC-PVTZ
    Blend: JUN-CC-PVTZ
    Number of shells: 138
    Number of basis function: 374
    Number of Cartesian functions: 420
    Spherical Harmonics?: true
    Max angular momentum: 3

   => Loading Basis Set <=

    Name: (JUN-CC-PVTZ AUX)
    Role: JKFIT
    Keyword: DF_BASIS_SCF
    atoms 1-3, 12     entry C          line   152 file /home/r08543048/miniconda3/share/psi4/basis/jun-cc-pvtz-jkfit.gbs 
    atoms 4-5         entry O          line   272 file /home/r08543048/miniconda3/share/psi4/basis/jun-cc-pvtz-jkfit.gbs 
    atoms 6-11, 13-16 entry H          line    70 file /home/r08543048/miniconda3/share/psi4/basis/jun-cc-pvtz-jkfit.gbs 

  ==> Pre-Iterations <==

   -------------------------------------------------------
    Irrep   Nso     Nmo     Nalpha   Nbeta   Ndocc  Nsocc
   -------------------------------------------------------
     A        374     374       0       0       0       0
   -------------------------------------------------------
    Total     374     374      25      25      25       0
   -------------------------------------------------------

  ==> Integral Setup <==

  ==> DiskDFJK: Density-Fitted J/K Matrices <==

    J tasked:                  Yes
    K tasked:                  Yes
    wK tasked:                  No
    OpenMP threads:              1
    Integrals threads:           1
    Memory [MiB]:            15735
    Algorithm:                Core
    Integral Cache:           SAVE
    Schwarz Cutoff:          1E-12
    Fitting Condition:       1E-10

   => Auxiliary Basis Set <=

  Basis Set: (JUN-CC-PVTZ AUX)
    Blend: JUN-CC-PVTZ-JKFIT
    Number of shells: 274
    Number of basis function: 870
    Number of Cartesian functions: 1046
    Spherical Harmonics?: true
    Max angular momentum: 4

  Minimum eigenvalue in the overlap matrix is 4.6131707517E-05.
  Using Symmetric Orthogonalization.

  SCF Guess: Superposition of Atomic Densities via on-the-fly atomic UHF.

  ==> Iterations <==

                           Total Energy        Delta E     RMS |[F,P]|

   @DF-RHF iter SAD:  -305.80889707895841   -3.05809e+02   0.00000e+00 
   @DF-RHF iter   1:  -306.89960594404039   -1.09071e+00   1.95362e-03 DIIS
   @DF-RHF iter   2:  -307.10349193932217   -2.03886e-01   1.06890e-03 DIIS
   @DF-RHF iter   3:  -307.16041915336365   -5.69272e-02   2.04294e-04 DIIS
   @DF-RHF iter   4:  -307.16398856796229   -3.56941e-03   9.68879e-05 DIIS
   @DF-RHF iter   5:  -307.16476358229465   -7.75014e-04   1.82492e-05 DIIS
   @DF-RHF iter   6:  -307.16480979925484   -4.62170e-05   8.99506e-06 DIIS
   @DF-RHF iter   7:  -307.16481919436563   -9.39511e-06   3.08652e-06 DIIS
   @DF-RHF iter   8:  -307.16482118122019   -1.98685e-06   1.13990e-06 DIIS
   @DF-RHF iter   9:  -307.16482146120927   -2.79989e-07   2.89950e-07 DIIS
   @DF-RHF iter  10:  -307.16482147697815   -1.57689e-08   8.02593e-08 DIIS
   @DF-RHF iter  11:  -307.16482147796972   -9.91577e-10   2.05058e-08 DIIS
   @DF-RHF iter  12:  -307.16482147803453   -6.48015e-11   4.80129e-09 DIIS
  Energy and wave function converged.


  ==> Post-Iterations <==

    Orbital Energies [Eh]
    ---------------------

    Doubly Occupied:                                                      

       1A    -20.613509     2A    -20.550604     3A    -11.386577  
       4A    -11.247808     5A    -11.221810     6A    -11.206470  
       7A     -1.463592     8A     -1.360429     9A     -1.068722  
      10A     -0.946140    11A     -0.915826    12A     -0.793120  
      13A     -0.705636    14A     -0.689543    15A     -0.662369  
      16A     -0.598402    17A     -0.594206    18A     -0.548179  
      19A     -0.547365    20A     -0.546673    21A     -0.535126  
      22A     -0.526499    23A     -0.505268    24A     -0.483440  
      25A     -0.453436  

    Virtual:                                                              

      26A      0.049223    27A      0.055207    28A      0.061270  
      29A      0.062155    30A      0.087527    31A      0.090611  
      32A      0.095196    33A      0.099427    34A      0.100518  
      35A      0.118390    36A      0.125682    37A      0.127513  
      38A      0.135748    39A      0.166329    40A      0.170341  
      41A      0.186853    42A      0.191857    43A      0.198873  
      44A      0.208908    45A      0.233998    46A      0.235548  
      47A      0.251977    48A      0.258680    49A      0.263043  
      50A      0.267333    51A      0.275865    52A      0.285945  
      53A      0.290635    54A      0.298495    55A      0.304368  
      56A      0.309431    57A      0.317810    58A      0.323931  
      59A      0.327390    60A      0.341352    61A      0.345189  
      62A      0.351235    63A      0.362862    64A      0.368282  
      65A      0.381434    66A      0.393977    67A      0.398481  
      68A      0.406320    69A      0.414171    70A      0.431563  
      71A      0.444239    72A      0.452253    73A      0.463639  
      74A      0.488221    75A      0.490363    76A      0.517769  
      77A      0.524553    78A      0.533167    79A      0.536727  
      80A      0.540526    81A      0.567824    82A      0.583931  
      83A      0.606377    84A      0.634019    85A      0.641253  
      86A      0.666993    87A      0.673862    88A      0.683340  
      89A      0.698770    90A      0.699392    91A      0.705770  
      92A      0.714907    93A      0.724826    94A      0.737194  
      95A      0.749665    96A      0.757499    97A      0.768419  
      98A      0.782630    99A      0.786379   100A      0.807129  
     101A      0.814315   102A      0.822781   103A      0.837546  
     104A      0.851464   105A      0.864650   106A      0.876469  
     107A      0.880201   108A      0.887131   109A      0.900485  
     110A      0.907636   111A      0.912944   112A      0.936361  
     113A      0.939692   114A      0.968224   115A      0.978125  
     116A      1.001986   117A      1.015275   118A      1.024618  
     119A      1.037705   120A      1.053069   121A      1.063232  
     122A      1.107362   123A      1.118481   124A      1.134012  
     125A      1.147821   126A      1.156559   127A      1.165966  
     128A      1.182846   129A      1.197463   130A      1.226470  
     131A      1.229197   132A      1.270255   133A      1.282826  
     134A      1.300710   135A      1.314727   136A      1.334957  
     137A      1.341023   138A      1.361828   139A      1.372007  
     140A      1.384790   141A      1.395295   142A      1.423591  
     143A      1.431027   144A      1.435902   145A      1.451224  
     146A      1.453903   147A      1.474220   148A      1.483865  
     149A      1.505262   150A      1.529840   151A      1.543727  
     152A      1.556529   153A      1.574551   154A      1.588439  
     155A      1.605598   156A      1.616362   157A      1.630894  
     158A      1.645664   159A      1.651670   160A      1.655639  
     161A      1.675202   162A      1.687772   163A      1.706644  
     164A      1.720088   165A      1.730786   166A      1.758084  
     167A      1.761948   168A      1.803367   169A      1.822183  
     170A      1.840116   171A      1.911536   172A      1.914091  
     173A      1.930079   174A      1.946427   175A      1.974684  
     176A      2.106917   177A      2.175831   178A      2.198504  
     179A      2.262542   180A      2.296761   181A      2.366936  
     182A      2.424214   183A      2.437854   184A      2.450663  
     185A      2.579442   186A      2.590124   187A      2.678111  
     188A      2.707133   189A      2.749207   190A      2.762766  
     191A      2.788268   192A      2.800220   193A      2.815526  
     194A      2.825701   195A      2.871652   196A      2.901055  
     197A      2.923397   198A      2.945665   199A      2.968402  
     200A      3.020957   201A      3.035441   202A      3.056273  
     203A      3.084539   204A      3.090960   205A      3.111834  
     206A      3.118116   207A      3.137130   208A      3.154705  
     209A      3.164943   210A      3.172409   211A      3.188254  
     212A      3.195911   213A      3.223874   214A      3.253428  
     215A      3.265571   216A      3.284006   217A      3.309610  
     218A      3.329864   219A      3.356256   220A      3.363239  
     221A      3.371494   222A      3.380245   223A      3.391300  
     224A      3.393374   225A      3.425823   226A      3.455894  
     227A      3.468385   228A      3.477161   229A      3.498405  
     230A      3.506448   231A      3.521975   232A      3.532950  
     233A      3.556664   234A      3.574310   235A      3.614409  
     236A      3.619383   237A      3.635108   238A      3.648716  
     239A      3.674441   240A      3.679292   241A      3.700033  
     242A      3.726037   243A      3.736069   244A      3.745236  
     245A      3.779680   246A      3.787745   247A      3.796709  
     248A      3.806663   249A      3.811177   250A      3.832603  
     251A      3.837925   252A      3.870840   253A      3.874998  
     254A      3.883583   255A      3.896378   256A      3.932697  
     257A      3.942967   258A      3.988420   259A      3.996421  
     260A      4.019797   261A      4.071759   262A      4.117740  
     263A      4.170427   264A      4.186592   265A      4.201140  
     266A      4.207103   267A      4.214363   268A      4.227451  
     269A      4.243829   270A      4.256813   271A      4.295413  
     272A      4.305024   273A      4.316399   274A      4.326614  
     275A      4.343678   276A      4.367352   277A      4.386372  
     278A      4.395124   279A      4.399899   280A      4.420663  
     281A      4.436296   282A      4.451886   283A      4.458255  
     284A      4.469308   285A      4.485972   286A      4.506607  
     287A      4.523867   288A      4.550320   289A      4.560698  
     290A      4.585745   291A      4.622281   292A      4.631280  
     293A      4.666712   294A      4.685336   295A      4.703488  
     296A      4.734595   297A      4.738461   298A      4.769031  
     299A      4.835648   300A      4.855469   301A      4.896325  
     302A      4.923239   303A      4.943603   304A      4.997155  
     305A      5.067742   306A      5.096542   307A      5.098771  
     308A      5.115944   309A      5.144542   310A      5.153117  
     311A      5.244999   312A      5.261904   313A      5.276177  
     314A      5.316002   315A      5.322372   316A      5.351620  
     317A      5.466585   318A      5.479666   319A      5.511776  
     320A      5.518345   321A      5.521075   322A      5.529699  
     323A      5.614018   324A      5.622102   325A      5.643690  
     326A      5.655127   327A      5.668693   328A      5.686111  
     329A      5.688415   330A      5.720903   331A      5.722746  
     332A      5.737647   333A      5.744179   334A      5.751845  
     335A      5.798369   336A      5.826838   337A      5.854087  
     338A      5.895771   339A      5.910051   340A      5.942356  
     341A      6.031674   342A      6.067662   343A      6.145267  
     344A      6.297619   345A      6.333300   346A      6.362229  
     347A      6.386319   348A      6.464599   349A      6.491644  
     350A      6.506256   351A      6.568326   352A      6.710585  
     353A      6.803011   354A      7.002797   355A      7.012318  
     356A      7.072474   357A      7.148083   358A      7.265015  
     359A      7.279082   360A      7.348383   361A      7.366359  
     362A      7.382120   363A      7.457716   364A      7.598691  
     365A      7.738721   366A      7.809354   367A      7.968200  
     368A      8.133515   369A     12.034577   370A     13.944812  
     371A     14.166853   372A     14.609009   373A     14.722483  
     374A     15.281654  

    Final Occupation by Irrep:
              A 
    DOCC [    25 ]

  @DF-RHF Final Energy:  -307.16482147803453

   => Energetics <=

    Nuclear Repulsion Energy =            248.2174624341338074
    One-Electron Energy =                -910.4230714800578426
    Two-Electron Energy =                 355.0407875678894811
    Total Energy =                       -307.1648214780345256

Computation Completed


Properties will be evaluated at   0.000000,   0.000000,   0.000000 [a0]

Properties computed using the SCF density matrix

  Nuclear Dipole Moment: [e a0]
     X:    -6.9220      Y:     6.0626      Z:    -2.0389

  Electronic Dipole Moment: [e a0]
     X:     6.9257      Y:    -5.9717      Z:     1.3433

  Dipole Moment: [e a0]
     X:     0.0037      Y:     0.0909      Z:    -0.6956     Total:     0.7015

  Dipole Moment: [D]
     X:     0.0094      Y:     0.2310      Z:    -1.7681     Total:     1.7831


*** tstop() called on r282 at Fri Sep 10 20:16:08 2021
Module time:
	user time   =      25.52 seconds =       0.43 minutes
	system time =       0.66 seconds =       0.01 minutes
	total time  =         27 seconds =       0.45 minutes
Total time:
	user time   =      25.52 seconds =       0.43 minutes
	system time =       0.66 seconds =       0.01 minutes
	total time  =         27 seconds =       0.45 minutes

  //>>>>>>>>>>>>>>>>>>>>>>>>>>>>>>>>>>>//
  //            Monomer A HF           //
  //<<<<<<<<<<<<<<<<<<<<<<<<<<<<<<<<<<<//


*** tstart() called on r282
*** at Fri Sep 10 20:16:08 2021

   => Loading Basis Set <=

    Name: JUN-CC-PVTZ
    Role: ORBITAL
    Keyword: BASIS
    atoms 1-3, 12     entry C          line   217 file /home/r08543048/miniconda3/share/psi4/basis/jun-cc-pvtz.gbs 
    atoms 4-5         entry O          line   305 file /home/r08543048/miniconda3/share/psi4/basis/jun-cc-pvtz.gbs 
    atoms 6-11, 13-16 entry H          line    36 file /home/r08543048/miniconda3/share/psi4/basis/jun-cc-pvtz.gbs 


         ---------------------------------------------------------
                                   SCF
               by Justin Turney, Rob Parrish, Andy Simmonett
                          and Daniel G. A. Smith
                              RHF Reference
                        1 Threads,  20980 MiB Core
         ---------------------------------------------------------

  ==> Geometry <==

    Molecular point group: c1
    Full point group: C1

    Geometry (in Angstrom), charge = 0, multiplicity = 1:

       Center              X                  Y                   Z               Mass       
    ------------   -----------------  -----------------  -----------------  -----------------
         C            0.660183790723     2.000247842291     0.073214788681    12.000000000000
         C            0.677946790723     0.730444842291    -0.758703211319    12.000000000000
         C            0.598539790723    -0.508928157709     0.086129788681    12.000000000000
         O            0.574707790723    -0.548929157709     1.295920788681    15.994914619570
         O            0.556190790723    -1.627797157709    -0.681728211319    15.994914619570
         H            1.495576790723     2.017595842291     0.769826788681     1.007825032230
         H            0.726143790723     2.875122842291    -0.570932211319     1.007825032230
         H           -0.256744209277     2.066401842291     0.655214788681     1.007825032230
         H            1.586559790723     0.653789842291    -1.358981211319     1.007825032230
         H           -0.152984209277     0.696219842291    -1.464758211319     1.007825032230
         H            0.511411790723    -2.372073157709    -0.061247211319     1.007825032230
      Gh(C)          -2.823445209277     0.135544842291    -0.036377211319    12.000000000000
      Gh(H)          -2.755909209277     1.130291842291    -0.469471211319     1.007825032230
      Gh(H)          -3.859531209277    -0.078301157709     0.210870788681     1.007825032230
      Gh(H)          -2.465882209277    -0.598890157709    -0.753767211319     1.007825032230
      Gh(H)          -2.218146209277     0.087989842291     0.865160788681     1.007825032230

  Running in c1 symmetry.

  Rotational constants: A =      0.09474  B =      0.08064  C =      0.05807 [cm^-1]
  Rotational constants: A =   2840.11427  B =   2417.49880  C =   1740.79155 [MHz]
  Nuclear repulsion =  178.604079432426460

  Charge       = 0
  Multiplicity = 1
  Electrons    = 40
  Nalpha       = 20
  Nbeta        = 20

  ==> Algorithm <==

  SCF Algorithm Type is DF.
  DIIS enabled.
  MOM disabled.
  Fractional occupation disabled.
  Guess Type is SAD.
  Energy threshold   = 1.00e-08
  Density threshold  = 1.00e-08
  Integral threshold = 0.00e+00

  ==> Primary Basis <==

  Basis Set: JUN-CC-PVTZ
    Blend: JUN-CC-PVTZ
    Number of shells: 138
    Number of basis function: 374
    Number of Cartesian functions: 420
    Spherical Harmonics?: true
    Max angular momentum: 3

   => Loading Basis Set <=

    Name: (JUN-CC-PVTZ AUX)
    Role: JKFIT
    Keyword: DF_BASIS_SCF
    atoms 1-3, 12     entry C          line   152 file /home/r08543048/miniconda3/share/psi4/basis/jun-cc-pvtz-jkfit.gbs 
    atoms 4-5         entry O          line   272 file /home/r08543048/miniconda3/share/psi4/basis/jun-cc-pvtz-jkfit.gbs 
    atoms 6-11, 13-16 entry H          line    70 file /home/r08543048/miniconda3/share/psi4/basis/jun-cc-pvtz-jkfit.gbs 

  ==> Pre-Iterations <==

   -------------------------------------------------------
    Irrep   Nso     Nmo     Nalpha   Nbeta   Ndocc  Nsocc
   -------------------------------------------------------
     A        374     374       0       0       0       0
   -------------------------------------------------------
    Total     374     374      20      20      20       0
   -------------------------------------------------------

  ==> Integral Setup <==

  ==> DiskDFJK: Density-Fitted J/K Matrices <==

    J tasked:                  Yes
    K tasked:                  Yes
    wK tasked:                  No
    OpenMP threads:              1
    Integrals threads:           1
    Memory [MiB]:            15735
    Algorithm:                Core
    Integral Cache:           LOAD
    Schwarz Cutoff:          1E-12
    Fitting Condition:       1E-10

   => Auxiliary Basis Set <=

  Basis Set: (JUN-CC-PVTZ AUX)
    Blend: JUN-CC-PVTZ-JKFIT
    Number of shells: 274
    Number of basis function: 870
    Number of Cartesian functions: 1046
    Spherical Harmonics?: true
    Max angular momentum: 4

  Minimum eigenvalue in the overlap matrix is 4.6131707517E-05.
  Using Symmetric Orthogonalization.

  SCF Guess: Superposition of Atomic Densities via on-the-fly atomic UHF.

  ==> Iterations <==

                           Total Energy        Delta E     RMS |[F,P]|

   @DF-RHF iter SAD:  -266.06490526000948   -2.66065e+02   0.00000e+00 
   @DF-RHF iter   1:  -266.75370514542374   -6.88800e-01   1.73373e-03 DIIS
   @DF-RHF iter   2:  -266.90060099659701   -1.46896e-01   1.01480e-03 DIIS
   @DF-RHF iter   3:  -266.94932096980307   -4.87200e-02   1.78101e-04 DIIS
   @DF-RHF iter   4:  -266.95206057290392   -2.73960e-03   8.50569e-05 DIIS
   @DF-RHF iter   5:  -266.95265910930101   -5.98536e-04   1.72313e-05 DIIS
   @DF-RHF iter   6:  -266.95270375744377   -4.46481e-05   8.53723e-06 DIIS
   @DF-RHF iter   7:  -266.95271299454157   -9.23710e-06   3.05148e-06 DIIS
   @DF-RHF iter   8:  -266.95271491354077   -1.91900e-06   1.07669e-06 DIIS
   @DF-RHF iter   9:  -266.95271516525918   -2.51718e-07   2.50725e-07 DIIS
   @DF-RHF iter  10:  -266.95271517751263   -1.22535e-08   7.49685e-08 DIIS
   @DF-RHF iter  11:  -266.95271517825114   -7.38510e-10   1.84310e-08 DIIS
   @DF-RHF iter  12:  -266.95271517829923   -4.80895e-11   4.26662e-09 DIIS
  Energy and wave function converged.


  ==> Post-Iterations <==

    Orbital Energies [Eh]
    ---------------------

    Doubly Occupied:                                                      

       1A    -20.613779     2A    -20.551361     3A    -11.386962  
       4A    -11.249166     5A    -11.222751     6A     -1.463864  
       7A     -1.360689     8A     -1.069567     9A     -0.916507  
      10A     -0.793656    11A     -0.705923    12A     -0.690062  
      13A     -0.662191    14A     -0.598674    15A     -0.593847  
      16A     -0.536095    17A     -0.527701    18A     -0.506509  
      19A     -0.484383    20A     -0.453935  

    Virtual:                                                              

      21A      0.041508    22A      0.052425    23A      0.054266  
      24A      0.060479    25A      0.083107    26A      0.084151  
      27A      0.090019    28A      0.098783    29A      0.100399  
      30A      0.111007    31A      0.118978    32A      0.126138  
      33A      0.135107    34A      0.156180    35A      0.167673  
      36A      0.186152    37A      0.189509    38A      0.201176  
      39A      0.207492    40A      0.217893    41A      0.231987  
      42A      0.242708    43A      0.251650    44A      0.258046  
      45A      0.261346    46A      0.266689    47A      0.276345  
      48A      0.278278    49A      0.294688    50A      0.302179  
      51A      0.303155    52A      0.314726    53A      0.321213  
      54A      0.332597    55A      0.341736    56A      0.354183  
      57A      0.356088    58A      0.371150    59A      0.381105  
      60A      0.390281    61A      0.402825    62A      0.404565  
      63A      0.408755    64A      0.421612    65A      0.444871  
      66A      0.452158    67A      0.461916    68A      0.474486  
      69A      0.486566    70A      0.491236    71A      0.499272  
      72A      0.527412    73A      0.531405    74A      0.537174  
      75A      0.543089    76A      0.552310    77A      0.573910  
      78A      0.583289    79A      0.586051    80A      0.598624  
      81A      0.609749    82A      0.617801    83A      0.646077  
      84A      0.651600    85A      0.692549    86A      0.711209  
      87A      0.722113    88A      0.733830    89A      0.738438  
      90A      0.745947    91A      0.767965    92A      0.775477  
      93A      0.793471    94A      0.821085    95A      0.832513  
      96A      0.843908    97A      0.860437    98A      0.873334  
      99A      0.878800   100A      0.892271   101A      0.896685  
     102A      0.907902   103A      0.910681   104A      0.933801  
     105A      0.951676   106A      0.966202   107A      0.985696  
     108A      0.998378   109A      1.019989   110A      1.025481  
     111A      1.030825   112A      1.055258   113A      1.067385  
     114A      1.070417   115A      1.107165   116A      1.121910  
     117A      1.132092   118A      1.150919   119A      1.159784  
     120A      1.168544   121A      1.185964   122A      1.200733  
     123A      1.221996   124A      1.233146   125A      1.241747  
     126A      1.254184   127A      1.259212   128A      1.281045  
     129A      1.299805   130A      1.321821   131A      1.334879  
     132A      1.341680   133A      1.348250   134A      1.380032  
     135A      1.389406   136A      1.398285   137A      1.414473  
     138A      1.428300   139A      1.443221   140A      1.457230  
     141A      1.464849   142A      1.468972   143A      1.492162  
     144A      1.514720   145A      1.518529   146A      1.541781  
     147A      1.561666   148A      1.570255   149A      1.579993  
     150A      1.598970   151A      1.609534   152A      1.616884  
     153A      1.634024   154A      1.649046   155A      1.662439  
     156A      1.676733   157A      1.683696   158A      1.710814  
     159A      1.724768   160A      1.757755   161A      1.765869  
     162A      1.792483   163A      1.809295   164A      1.834758  
     165A      1.861517   166A      1.881126   167A      1.912288  
     168A      1.923515   169A      1.936148   170A      1.984111  
     171A      2.105646   172A      2.176155   173A      2.202892  
     174A      2.256112   175A      2.273828   176A      2.292890  
     177A      2.299368   178A      2.336072   179A      2.369192  
     180A      2.377755   181A      2.430317   182A      2.445571  
     183A      2.455320   184A      2.586456   185A      2.595413  
     186A      2.716545   187A      2.720586   188A      2.809822  
     189A      2.815301   190A      2.856158   191A      2.904384  
     192A      2.917982   193A      2.946894   194A      2.981844  
     195A      3.018221   196A      3.035852   197A      3.066264  
     198A      3.110992   199A      3.128670   200A      3.137078  
     201A      3.176460   202A      3.215189   203A      3.251821  
     204A      3.303166   205A      3.311321   206A      3.353518  
     207A      3.367385   208A      3.374614   209A      3.385358  
     210A      3.422763   211A      3.449137   212A      3.466637  
     213A      3.491062   214A      3.492198   215A      3.506559  
     216A      3.517316   217A      3.529055   218A      3.546664  
     219A      3.555153   220A      3.558635   221A      3.579695  
     222A      3.597427   223A      3.609096   224A      3.614875  
     225A      3.625024   226A      3.635789   227A      3.663085  
     228A      3.678511   229A      3.684376   230A      3.694983  
     231A      3.724142   232A      3.750207   233A      3.788956  
     234A      3.807612   235A      3.822332   236A      3.832902  
     237A      3.862533   238A      3.863455   239A      3.878861  
     240A      3.879787   241A      3.926159   242A      3.935912  
     243A      3.974210   244A      3.984249   245A      4.009713  
     246A      4.039112   247A      4.066426   248A      4.074265  
     249A      4.101970   250A      4.114763   251A      4.145188  
     252A      4.170435   253A      4.206569   254A      4.212059  
     255A      4.216725   256A      4.219905   257A      4.242080  
     258A      4.287102   259A      4.298951   260A      4.314859  
     261A      4.322316   262A      4.339250   263A      4.346553  
     264A      4.347657   265A      4.377115   266A      4.390012  
     267A      4.397713   268A      4.411263   269A      4.434717  
     270A      4.448354   271A      4.453078   272A      4.472760  
     273A      4.492166   274A      4.507362   275A      4.563033  
     276A      4.617294   277A      4.636435   278A      4.649642  
     279A      4.662099   280A      4.671110   281A      4.701948  
     282A      4.705913   283A      4.721118   284A      4.732710  
     285A      4.750874   286A      4.757018   287A      4.760126  
     288A      4.803185   289A      4.833091   290A      4.841372  
     291A      4.859953   292A      4.874113   293A      4.887020  
     294A      4.915634   295A      4.928117   296A      4.939729  
     297A      4.953982   298A      4.995001   299A      5.037312  
     300A      5.072533   301A      5.106665   302A      5.146641  
     303A      5.154014   304A      5.230053   305A      5.242712  
     306A      5.243538   307A      5.253220   308A      5.264058  
     309A      5.277048   310A      5.317332   311A      5.324288  
     312A      5.355254   313A      5.468171   314A      5.479129  
     315A      5.523956   316A      5.617606   317A      5.642915  
     318A      5.656406   319A      5.669553   320A      5.732365  
     321A      5.741409   322A      5.796760   323A      5.822399  
     324A      5.853394   325A      5.894304   326A      5.907600  
     327A      5.940208   328A      6.017940   329A      6.026396  
     330A      6.029019   331A      6.033812   332A      6.066711  
     333A      6.144266   334A      6.166961   335A      6.190073  
     336A      6.208402   337A      6.298560   338A      6.356215  
     339A      6.359329   340A      6.456399   341A      6.491037  
     342A      6.506447   343A      6.563539   344A      6.604103  
     345A      6.710525   346A      6.802781   347A      7.002669  
     348A      7.012068   349A      7.071856   350A      7.147668  
     351A      7.262999   352A      7.274485   353A      7.347823  
     354A      7.364626   355A      7.373767   356A      7.409809  
     357A      7.427135   358A      7.466944   359A      7.529717  
     360A      7.599364   361A      7.738660   362A      7.794311  
     363A      7.798673   364A      7.807934   365A      7.819005  
     366A      7.968619   367A      8.133715   368A     10.093729  
     369A     12.035853   370A     13.945478   371A     14.178310  
     372A     14.611843   373A     14.723861   374A     46.782224  

    Final Occupation by Irrep:
              A 
    DOCC [    20 ]

  @DF-RHF Final Energy:  -266.95271517829923

   => Energetics <=

    Nuclear Repulsion Energy =            178.6040794324264596
    One-Electron Energy =                -718.3383498409471031
    Two-Electron Energy =                 272.7815552302213860
    Total Energy =                       -266.9527151782992291

Computation Completed


Properties will be evaluated at   0.000000,   0.000000,   0.000000 [a0]

Properties computed using the SCF density matrix

  Nuclear Dipole Moment: [e a0]
     X:    46.4441      Y:     3.5032      Z:    -1.3483

  Electronic Dipole Moment: [e a0]
     X:   -46.4219      Y:    -3.3964      Z:     0.6218

  Dipole Moment: [e a0]
     X:     0.0223      Y:     0.1068      Z:    -0.7265     Total:     0.7347

  Dipole Moment: [D]
     X:     0.0566      Y:     0.2714      Z:    -1.8466     Total:     1.8673


*** tstop() called on r282 at Fri Sep 10 20:16:24 2021
Module time:
	user time   =      16.05 seconds =       0.27 minutes
	system time =       0.35 seconds =       0.01 minutes
	total time  =         16 seconds =       0.27 minutes
Total time:
	user time   =      41.58 seconds =       0.69 minutes
	system time =       1.01 seconds =       0.02 minutes
	total time  =         43 seconds =       0.72 minutes

  //>>>>>>>>>>>>>>>>>>>>>>>>>>>>>>>>>>>//
  //            Monomer B HF           //
  //<<<<<<<<<<<<<<<<<<<<<<<<<<<<<<<<<<<//


*** tstart() called on r282
*** at Fri Sep 10 20:16:24 2021

   => Loading Basis Set <=

    Name: JUN-CC-PVTZ
    Role: ORBITAL
    Keyword: BASIS
    atoms 1-3, 12     entry C          line   217 file /home/r08543048/miniconda3/share/psi4/basis/jun-cc-pvtz.gbs 
    atoms 4-5         entry O          line   305 file /home/r08543048/miniconda3/share/psi4/basis/jun-cc-pvtz.gbs 
    atoms 6-11, 13-16 entry H          line    36 file /home/r08543048/miniconda3/share/psi4/basis/jun-cc-pvtz.gbs 


         ---------------------------------------------------------
                                   SCF
               by Justin Turney, Rob Parrish, Andy Simmonett
                          and Daniel G. A. Smith
                              RHF Reference
                        1 Threads,  20980 MiB Core
         ---------------------------------------------------------

  ==> Geometry <==

    Molecular point group: c1
    Full point group: C1

    Geometry (in Angstrom), charge = 0, multiplicity = 1:

       Center              X                  Y                   Z               Mass       
    ------------   -----------------  -----------------  -----------------  -----------------
      Gh(C)           0.660183790723     2.000247842291     0.073214788681    12.000000000000
      Gh(C)           0.677946790723     0.730444842291    -0.758703211319    12.000000000000
      Gh(C)           0.598539790723    -0.508928157709     0.086129788681    12.000000000000
      Gh(O)           0.574707790723    -0.548929157709     1.295920788681    15.994914619570
      Gh(O)           0.556190790723    -1.627797157709    -0.681728211319    15.994914619570
      Gh(H)           1.495576790723     2.017595842291     0.769826788681     1.007825032230
      Gh(H)           0.726143790723     2.875122842291    -0.570932211319     1.007825032230
      Gh(H)          -0.256744209277     2.066401842291     0.655214788681     1.007825032230
      Gh(H)           1.586559790723     0.653789842291    -1.358981211319     1.007825032230
      Gh(H)          -0.152984209277     0.696219842291    -1.464758211319     1.007825032230
      Gh(H)           0.511411790723    -2.372073157709    -0.061247211319     1.007825032230
         C           -2.823445209277     0.135544842291    -0.036377211319    12.000000000000
         H           -2.755909209277     1.130291842291    -0.469471211319     1.007825032230
         H           -3.859531209277    -0.078301157709     0.210870788681     1.007825032230
         H           -2.465882209277    -0.598890157709    -0.753767211319     1.007825032230
         H           -2.218146209277     0.087989842291     0.865160788681     1.007825032230

  Running in c1 symmetry.

  Rotational constants: A =      0.09474  B =      0.08064  C =      0.05807 [cm^-1]
  Rotational constants: A =   2840.11427  B =   2417.49880  C =   1740.79155 [MHz]
  Nuclear repulsion =   13.473862079765347

  Charge       = 0
  Multiplicity = 1
  Electrons    = 10
  Nalpha       = 5
  Nbeta        = 5

  ==> Algorithm <==

  SCF Algorithm Type is DF.
  DIIS enabled.
  MOM disabled.
  Fractional occupation disabled.
  Guess Type is SAD.
  Energy threshold   = 1.00e-08
  Density threshold  = 1.00e-08
  Integral threshold = 0.00e+00

  ==> Primary Basis <==

  Basis Set: JUN-CC-PVTZ
    Blend: JUN-CC-PVTZ
    Number of shells: 138
    Number of basis function: 374
    Number of Cartesian functions: 420
    Spherical Harmonics?: true
    Max angular momentum: 3

   => Loading Basis Set <=

    Name: (JUN-CC-PVTZ AUX)
    Role: JKFIT
    Keyword: DF_BASIS_SCF
    atoms 1-3, 12     entry C          line   152 file /home/r08543048/miniconda3/share/psi4/basis/jun-cc-pvtz-jkfit.gbs 
    atoms 4-5         entry O          line   272 file /home/r08543048/miniconda3/share/psi4/basis/jun-cc-pvtz-jkfit.gbs 
    atoms 6-11, 13-16 entry H          line    70 file /home/r08543048/miniconda3/share/psi4/basis/jun-cc-pvtz-jkfit.gbs 

  ==> Pre-Iterations <==

   -------------------------------------------------------
    Irrep   Nso     Nmo     Nalpha   Nbeta   Ndocc  Nsocc
   -------------------------------------------------------
     A        374     374       0       0       0       0
   -------------------------------------------------------
    Total     374     374       5       5       5       0
   -------------------------------------------------------

  ==> Integral Setup <==

  ==> DiskDFJK: Density-Fitted J/K Matrices <==

    J tasked:                  Yes
    K tasked:                  Yes
    wK tasked:                  No
    OpenMP threads:              1
    Integrals threads:           1
    Memory [MiB]:            15735
    Algorithm:                Core
    Integral Cache:           LOAD
    Schwarz Cutoff:          1E-12
    Fitting Condition:       1E-10

   => Auxiliary Basis Set <=

  Basis Set: (JUN-CC-PVTZ AUX)
    Blend: JUN-CC-PVTZ-JKFIT
    Number of shells: 274
    Number of basis function: 870
    Number of Cartesian functions: 1046
    Spherical Harmonics?: true
    Max angular momentum: 4

  Minimum eigenvalue in the overlap matrix is 4.6131707517E-05.
  Using Symmetric Orthogonalization.

  SCF Guess: Superposition of Atomic Densities via on-the-fly atomic UHF.

  ==> Iterations <==

                           Total Energy        Delta E     RMS |[F,P]|

   @DF-RHF iter SAD:   -39.65569082147206   -3.96557e+01   0.00000e+00 
   @DF-RHF iter   1:   -40.14542492312325   -4.89734e-01   9.28427e-04 DIIS
   @DF-RHF iter   2:   -40.20266749941257   -5.72426e-02   3.85227e-04 DIIS
   @DF-RHF iter   3:   -40.21281956535357   -1.01521e-02   6.17148e-05 DIIS
   @DF-RHF iter   4:   -40.21352531078566   -7.05745e-04   7.47784e-06 DIIS
   @DF-RHF iter   5:   -40.21353494887990   -9.63809e-06   6.41737e-07 DIIS
   @DF-RHF iter   6:   -40.21353502862399   -7.97441e-08   5.19109e-08 DIIS
   @DF-RHF iter   7:   -40.21353502905853   -4.34547e-10   4.32179e-09 DIIS
  Energy and wave function converged.


  ==> Post-Iterations <==

    Orbital Energies [Eh]
    ---------------------

    Doubly Occupied:                                                      

       1A    -11.205640     2A     -0.943617     3A     -0.545676  
       4A     -0.545351     5A     -0.544853  

    Virtual:                                                              

       6A      0.032215     7A      0.048696     8A      0.054989  
       9A      0.059718    10A      0.083032    11A      0.088660  
      12A      0.091349    13A      0.091987    14A      0.094688  
      15A      0.112356    16A      0.119520    17A      0.124873  
      18A      0.134009    19A      0.142376    20A      0.147722  
      21A      0.159712    22A      0.178752    23A      0.186129  
      24A      0.208817    25A      0.219522    26A      0.228222  
      27A      0.230733    28A      0.242725    29A      0.246443  
      30A      0.257033    31A      0.267704    32A      0.282016  
      33A      0.289775    34A      0.298418    35A      0.301627  
      36A      0.319802    37A      0.328779    38A      0.335172  
      39A      0.342447    40A      0.346538    41A      0.353332  
      42A      0.357752    43A      0.369783    44A      0.372571  
      45A      0.376126    46A      0.389843    47A      0.400842  
      48A      0.416262    49A      0.429560    50A      0.443131  
      51A      0.462036    52A      0.469658    53A      0.482389  
      54A      0.495503    55A      0.501407    56A      0.507154  
      57A      0.522898    58A      0.532476    59A      0.545833  
      60A      0.547419    61A      0.572309    62A      0.585564  
      63A      0.591505    64A      0.614996    65A      0.618740  
      66A      0.645827    67A      0.664438    68A      0.676134  
      69A      0.680334    70A      0.689322    71A      0.692914  
      72A      0.716476    73A      0.742665    74A      0.746971  
      75A      0.756598    76A      0.769246    77A      0.784381  
      78A      0.809058    79A      0.812732    80A      0.857018  
      81A      0.867482    82A      0.890755    83A      0.908924  
      84A      0.911664    85A      0.930112    86A      0.932862  
      87A      0.946315    88A      0.952609    89A      0.966135  
      90A      0.979184    91A      0.991347    92A      1.004064  
      93A      1.040585    94A      1.046679    95A      1.056008  
      96A      1.065087    97A      1.084287    98A      1.107662  
      99A      1.120262   100A      1.148857   101A      1.150546  
     102A      1.161024   103A      1.173147   104A      1.183392  
     105A      1.203548   106A      1.209322   107A      1.232249  
     108A      1.243881   109A      1.249397   110A      1.265367  
     111A      1.279541   112A      1.289568   113A      1.311882  
     114A      1.333858   115A      1.340725   116A      1.355438  
     117A      1.358196   118A      1.372735   119A      1.394072  
     120A      1.405835   121A      1.414328   122A      1.440386  
     123A      1.462888   124A      1.483435   125A      1.508483  
     126A      1.517650   127A      1.531661   128A      1.550921  
     129A      1.552775   130A      1.563702   131A      1.579721  
     132A      1.598919   133A      1.607852   134A      1.625096  
     135A      1.626404   136A      1.648054   137A      1.674050  
     138A      1.688576   139A      1.703824   140A      1.708716  
     141A      1.729107   142A      1.759483   143A      1.783069  
     144A      1.808109   145A      1.825388   146A      1.837015  
     147A      1.906931   148A      1.914806   149A      1.931049  
     150A      1.945532   151A      1.965500   152A      1.987569  
     153A      2.043976   154A      2.085150   155A      2.127226  
     156A      2.149238   157A      2.177526   158A      2.223213  
     159A      2.309864   160A      2.395434   161A      2.418081  
     162A      2.440365   163A      2.538210   164A      2.570831  
     165A      2.586780   166A      2.612989   167A      2.659888  
     168A      2.693537   169A      2.736640   170A      2.747393  
     171A      2.754588   172A      2.791956   173A      2.812130  
     174A      2.833036   175A      2.877124   176A      2.884859  
     177A      2.903713   178A      2.967899   179A      2.988605  
     180A      3.028338   181A      3.059434   182A      3.080651  
     183A      3.094875   184A      3.112650   185A      3.160045  
     186A      3.162474   187A      3.167678   188A      3.227478  
     189A      3.252116   190A      3.271009   191A      3.302011  
     192A      3.347814   193A      3.377476   194A      3.390415  
     195A      3.404900   196A      3.419643   197A      3.550443  
     198A      3.564635   199A      3.595704   200A      3.605970  
     201A      3.613443   202A      3.622100   203A      3.670114  
     204A      3.687760   205A      3.697775   206A      3.706620  
     207A      3.727832   208A      3.748797   209A      3.770402  
     210A      3.779423   211A      3.790514   212A      3.797626  
     213A      3.809019   214A      3.815890   215A      3.855608  
     216A      3.859961   217A      3.877642   218A      3.893129  
     219A      3.909251   220A      3.925835   221A      3.974184  
     222A      3.979146   223A      4.011476   224A      4.035454  
     225A      4.099093   226A      4.114239   227A      4.161028  
     228A      4.174134   229A      4.185223   230A      4.209188  
     231A      4.229367   232A      4.254285   233A      4.271230  
     234A      4.318834   235A      4.320601   236A      4.344065  
     237A      4.375128   238A      4.389927   239A      4.394721  
     240A      4.408335   241A      4.415354   242A      4.446137  
     243A      4.459663   244A      4.477821   245A      4.513294  
     246A      4.531224   247A      4.543051   248A      4.555928  
     249A      4.584201   250A      4.588663   251A      4.605039  
     252A      4.619463   253A      4.660525   254A      4.675138  
     255A      4.690317   256A      4.702023   257A      4.732326  
     258A      4.747513   259A      4.781066   260A      4.786250  
     261A      4.805700   262A      4.808295   263A      4.822553  
     264A      4.833363   265A      4.863284   266A      4.884865  
     267A      4.893715   268A      4.906071   269A      4.913619  
     270A      4.926181   271A      4.937227   272A      4.969545  
     273A      4.989841   274A      5.004454   275A      5.013505  
     276A      5.018245   277A      5.038473   278A      5.044305  
     279A      5.091523   280A      5.095499   281A      5.103861  
     282A      5.122653   283A      5.148103   284A      5.151765  
     285A      5.221125   286A      5.282642   287A      5.315123  
     288A      5.364098   289A      5.420145   290A      5.508678  
     291A      5.516972   292A      5.523813   293A      5.526021  
     294A      5.577413   295A      5.594464   296A      5.624879  
     297A      5.661858   298A      5.688142   299A      5.690849  
     300A      5.714296   301A      5.723386   302A      5.731104  
     303A      5.753277   304A      5.774106   305A      5.836774  
     306A      5.866347   307A      5.996817   308A      6.109359  
     309A      6.165821   310A      6.206972   311A      6.225026  
     312A      6.314021   313A      6.325942   314A      6.361384  
     315A      6.374424   316A      6.398485   317A      6.418906  
     318A      6.446941   319A      6.452952   320A      6.471087  
     321A      6.519894   322A      6.598441   323A      6.628170  
     324A      6.817188   325A      6.834151   326A      6.897667  
     327A      7.048819   328A      7.146113   329A      7.189148  
     330A      7.268832   331A      7.422910   332A      7.475086  
     333A      7.540301   334A      7.594060   335A      7.655205  
     336A      7.711976   337A      7.805719   338A      7.839441  
     339A      7.880555   340A      7.941128   341A      8.004888  
     342A      8.072467   343A      8.166706   344A      8.227072  
     345A      8.433077   346A      8.599987   347A      8.816087  
     348A      9.189617   349A      9.501780   350A      9.689673  
     351A      9.738650   352A      9.760019   353A      9.862993  
     354A      9.897423   355A      9.914855   356A      9.924330  
     357A      9.941278   358A     10.042676   359A     10.261718  
     360A     10.437761   361A     11.137419   362A     11.488666  
     363A     11.646435   364A     11.710148   365A     12.040683  
     366A     13.014204   367A     13.640758   368A     13.937120  
     369A     15.270616   370A     42.714306   371A     45.162370  
     372A     45.836429   373A     61.396964   374A     61.936639  

    Final Occupation by Irrep:
              A 
    DOCC [     5 ]

  @DF-RHF Final Energy:   -40.21353502905853

   => Energetics <=

    Nuclear Repulsion Energy =             13.4738620797653468
    One-Electron Energy =                 -79.8045238673760053
    Two-Electron Energy =                  26.1171267585521321
    Total Energy =                        -40.2135350290585336

Computation Completed


Properties will be evaluated at   0.000000,   0.000000,   0.000000 [a0]

Properties computed using the SCF density matrix

  Nuclear Dipole Moment: [e a0]
     X:   -53.3661      Y:     2.5594      Z:    -0.6906

  Electronic Dipole Moment: [e a0]
     X:    53.3650      Y:    -2.5594      Z:     0.6904

  Dipole Moment: [e a0]
     X:    -0.0011      Y:    -0.0001      Z:    -0.0002     Total:     0.0011

  Dipole Moment: [D]
     X:    -0.0028      Y:    -0.0001      Z:    -0.0005     Total:     0.0029


*** tstop() called on r282 at Fri Sep 10 20:16:32 2021
Module time:
	user time   =       8.13 seconds =       0.14 minutes
	system time =       0.22 seconds =       0.00 minutes
	total time  =          8 seconds =       0.13 minutes
Total time:
	user time   =      49.71 seconds =       0.83 minutes
	system time =       1.24 seconds =       0.02 minutes
	total time  =         51 seconds =       0.85 minutes
  Constructing Basis Sets for SAPT...

   => Loading Basis Set <=

    Name: (JUN-CC-PVTZ AUX)
    Role: RIFIT
    Keyword: DF_BASIS_SAPT
    atoms 1-3, 12     entry C          line   132 file /home/r08543048/miniconda3/share/psi4/basis/jun-cc-pvtz-ri.gbs 
    atoms 4-5         entry O          line   244 file /home/r08543048/miniconda3/share/psi4/basis/jun-cc-pvtz-ri.gbs 
    atoms 6-11, 13-16 entry H          line    30 file /home/r08543048/miniconda3/share/psi4/basis/jun-cc-pvtz-ri.gbs 


  //>>>>>>>>>>>>>>>>>>>>>>>>>>>>>>>>>>>//
  //               SAPT0               //
  //<<<<<<<<<<<<<<<<<<<<<<<<<<<<<<<<<<<//


*** tstart() called on r282
*** at Fri Sep 10 20:16:33 2021

        SAPT0  
    Ed Hohenstein
     6 June 2009

      Orbital Information
  --------------------------
    NSO        =       374
    NMO        =       374
    NRI        =       882
    NOCC A     =        20
    NOCC B     =         5
    FOCC A     =         0
    FOCC B     =         0
    NVIR A     =       354
    NVIR B     =       369

    Elst10,r            =    -0.001630112851 [Eh]
    Exch10              =     0.003410939353 [Eh]
    Exch10 (S^2)        =     0.003407399428 [Eh]

    Iter     Energy [mEh]          dE [mEh]         Residual      Time [s]
       1      -0.13094340       0.130943397       1.450618283             0
       2      -0.15274404       0.021800641       0.478385799             1
       3      -0.15458667       0.001842629       0.117201281             1
       4      -0.15430641      -0.000280255       0.047644278             2
       5      -0.15415047      -0.000155945       0.011929010             2
       6      -0.15417529       0.000024825       0.005964975             3
       7      -0.15418811       0.000012820       0.002149831             3
       8      -0.15418339      -0.000004727       0.000829271             3
       9      -0.15418266      -0.000000724       0.000243439             4
      10      -0.15418321       0.000000550       0.000082692             4
      11      -0.15418318      -0.000000036       0.000027835             5
      12      -0.15418313      -0.000000042       0.000009938             5
      13      -0.15418314       0.000000008       0.000003544             6
      14      -0.15418315       0.000000004       0.000000788             6

    CHF Iterations converged


    Iter     Energy [mEh]          dE [mEh]         Residual      Time [s]
       1      -0.53971472       0.539714724       3.132938936             0
       2      -0.65321161       0.113496887       0.563836926             1
       3      -0.65359991       0.000388300       0.146519500             1
       4      -0.65253199      -0.001067924       0.037683561             1
       5      -0.65247063      -0.000061359       0.006949998             2
       6      -0.65253737       0.000066741       0.000960748             2
       7      -0.65253032      -0.000007050       0.000157793             2
       8      -0.65253105       0.000000726       0.000017731             3
       9      -0.65253099      -0.000000052       0.000002145             3
      10      -0.65253100       0.000000004       0.000000270             3

    CHF Iterations converged

    Ind20,r (A<-B)      =    -0.000154183147 [Eh]
    Ind20,r (B<-A)      =    -0.000652530998 [Eh]
    Ind20,r             =    -0.000806714145 [Eh]
    Exch-Ind20,r (A<-B) =     0.000128988206 [Eh]
    Exch-Ind20,r (B<-A) =     0.000496589360 [Eh]
    Exch-Ind20,r        =     0.000625577566 [Eh]
    Disp20              =    -0.004470546600 [Eh]
    Disp20 (SS)         =    -0.002235273300 [Eh]
    Disp20 (OS)         =    -0.002235273300 [Eh]
    Exch-Disp20         =     0.000353956217 [Eh]
    Exch-Disp20 (SS)    =     0.000235466309 [Eh]
    Exch-Disp20 (OS)    =     0.000118489908 [Eh]

    SAPT Results 
  --------------------------------------------------------------------------------------------------------
    Electrostatics                 -1.63011285 [mEh]      -1.02291126 [kcal/mol]      -4.27986070 [kJ/mol]
      Elst10,r                     -1.63011285 [mEh]      -1.02291126 [kcal/mol]      -4.27986070 [kJ/mol]

    Exchange                        3.41093935 [mEh]       2.14039676 [kcal/mol]       8.95542004 [kJ/mol]
      Exch10                        3.41093935 [mEh]       2.14039676 [kcal/mol]       8.95542004 [kJ/mol]
      Exch10(S^2)                   3.40739943 [mEh]       2.13817542 [kcal/mol]       8.94612597 [kJ/mol]

    Induction                      -0.35209718 [mEh]      -0.22094432 [kcal/mol]      -0.92443102 [kJ/mol]
      Ind20,r                      -0.80671414 [mEh]      -0.50622077 [kcal/mol]      -2.11802770 [kJ/mol]
      Exch-Ind20,r                  0.62557757 [mEh]       0.39255585 [kcal/mol]       1.64245367 [kJ/mol]
      delta HF,r (2)               -0.17096060 [mEh]      -0.10727940 [kcal/mol]      -0.44885700 [kJ/mol]

    Dispersion                     -4.11659038 [mEh]      -2.58319946 [kcal/mol]     -10.80810656 [kJ/mol]
      Disp20                       -4.47054660 [mEh]      -2.80531034 [kcal/mol]     -11.73741848 [kJ/mol]
      Exch-Disp20                   0.35395622 [mEh]       0.22211088 [kcal/mol]       0.92931192 [kJ/mol]
      Disp20 (SS)                  -2.23527330 [mEh]      -1.40265517 [kcal/mol]      -5.86870924 [kJ/mol]
      Disp20 (OS)                  -2.23527330 [mEh]      -1.40265517 [kcal/mol]      -5.86870924 [kJ/mol]
      Exch-Disp20 (SS)              0.23546631 [mEh]       0.14775734 [kcal/mol]       0.61821671 [kJ/mol]
      Exch-Disp20 (OS)              0.11848991 [mEh]       0.07435354 [kcal/mol]       0.31109521 [kJ/mol]

  Total HF                          1.42872932 [mEh]       0.89654119 [kcal/mol]       3.75112832 [kJ/mol]
  Total SAPT0                      -2.68786106 [mEh]      -1.68665828 [kcal/mol]      -7.05697824 [kJ/mol]

  Special recipe for scaled SAPT0 (see Manual):
    Electrostatics sSAPT0          -1.63011285 [mEh]      -1.02291126 [kcal/mol]      -4.27986070 [kJ/mol]
    Exchange sSAPT0                 3.41093935 [mEh]       2.14039676 [kcal/mol]       8.95542004 [kJ/mol]
    Induction sSAPT0               -0.35014543 [mEh]      -0.21971957 [kcal/mol]      -0.91930669 [kJ/mol]
    Dispersion sSAPT0              -4.11548607 [mEh]      -2.58250650 [kcal/mol]     -10.80520718 [kJ/mol]
  Total sSAPT0                     -2.68480499 [mEh]      -1.68474057 [kcal/mol]      -7.04895454 [kJ/mol]
  --------------------------------------------------------------------------------------------------------

*** tstop() called on r282 at Fri Sep 10 20:17:13 2021
Module time:
	user time   =      33.46 seconds =       0.56 minutes
	system time =       6.59 seconds =       0.11 minutes
	total time  =         40 seconds =       0.67 minutes
Total time:
	user time   =      83.28 seconds =       1.39 minutes
	system time =       7.83 seconds =       0.13 minutes
	total time  =         92 seconds =       1.53 minutes

    Psi4 stopped on: Friday, 10 September 2021 08:17PM
    Psi4 wall time for execution: 0:01:31.47

*** Psi4 exiting successfully. Buy a developer a beer!
