
    -----------------------------------------------------------------------
          Psi4: An Open-Source Ab Initio Electronic Structure Package
                               Psi4 1.3.2 release

                         Git: Rev {HEAD} ecbda83 


    R. M. Parrish, L. A. Burns, D. G. A. Smith, A. C. Simmonett,
    A. E. DePrince III, E. G. Hohenstein, U. Bozkaya, A. Yu. Sokolov,
    R. Di Remigio, R. M. Richard, J. F. Gonthier, A. M. James,
    H. R. McAlexander, A. Kumar, M. Saitow, X. Wang, B. P. Pritchard,
    P. Verma, H. F. Schaefer III, K. Patkowski, R. A. King, E. F. Valeev,
    F. A. Evangelista, J. M. Turney, T. D. Crawford, and C. D. Sherrill,
    J. Chem. Theory Comput. 13(7) pp 3185--3197 (2017).
    (doi: 10.1021/acs.jctc.7b00174)


                         Additional Contributions by
    P. Kraus, H. Kruse, M. H. Lechner, M. C. Schieber, R. A. Shaw,
    A. Alenaizan, R. Galvelis, Z. L. Glick, S. Lehtola, and J. P. Misiewicz

    -----------------------------------------------------------------------


    Psi4 started on: Friday, 10 September 2021 08:24PM

    Process ID: 57081
    Host:       r282
    PSIDATADIR: /home/r08543048/miniconda3/share/psi4
    Memory:     500.0 MiB
    Threads:    1
    
  ==> Input File <==

--------------------------------------------------------------------------
# Any line starting with the # character is a comment line
#! Sample  computation

memory 22 gb

molecule Dimer {
0 1
 C -1.104488    2.064697    0.151362
 C -1.404936    0.844252   -0.700262
 C -1.521602   -0.413173    0.113715
 O -1.336834   -0.512110    1.306272
 O -1.864288   -1.472014   -0.662934
 H -0.167067    1.940694    0.689188
 H -1.029154    2.952210   -0.474355
 H -1.890059    2.224571    0.887155
 H -0.625863    0.671044   -1.445851
 H -2.333921    0.958687   -1.261092
 H -1.901905   -2.236562   -0.067043





    
    
 --
0 1
 C   1.892282   -1.442051   -0.259693
 C   2.183439   -0.188699    0.556682
 C   2.582053    0.987348   -0.326680
 H   1.090205   -1.264007   -0.978416
 H   2.773843   -1.751622   -0.823220
 H   1.590065   -2.272871    0.377649
 H   2.985387   -0.396591    1.267952
 H   1.304561    0.070147    1.150041
 H   2.787696    1.882179    0.260681
 H   3.476943    0.752114   -0.904737
 H   1.787745    1.228764   -1.035397
   
   
   





units angstrom

no_reorient
symmetry c1
}

set globals{
  basis jun-cc-pvtz
}

energy('sapt0')


--------------------------------------------------------------------------

  Memory set to  20.489 GiB by Python driver.

  //>>>>>>>>>>>>>>>>>>>>>>>>>>>>>>>>>>>//
  //              Dimer HF             //
  //<<<<<<<<<<<<<<<<<<<<<<<<<<<<<<<<<<<//


*** tstart() called on r282
*** at Fri Sep 10 20:24:58 2021

   => Loading Basis Set <=

    Name: JUN-CC-PVTZ
    Role: ORBITAL
    Keyword: BASIS
    atoms 1-3, 12-14  entry C          line   217 file /home/r08543048/miniconda3/share/psi4/basis/jun-cc-pvtz.gbs 
    atoms 4-5         entry O          line   305 file /home/r08543048/miniconda3/share/psi4/basis/jun-cc-pvtz.gbs 
    atoms 6-11, 15-22 entry H          line    36 file /home/r08543048/miniconda3/share/psi4/basis/jun-cc-pvtz.gbs 


         ---------------------------------------------------------
                                   SCF
               by Justin Turney, Rob Parrish, Andy Simmonett
                          and Daniel G. A. Smith
                              RHF Reference
                        1 Threads,  20980 MiB Core
         ---------------------------------------------------------

  ==> Geometry <==

    Molecular point group: c1
    Full point group: C1

    Geometry (in Angstrom), charge = 0, multiplicity = 1:

       Center              X                  Y                   Z               Mass       
    ------------   -----------------  -----------------  -----------------  -----------------
         C           -1.021886749593     2.104590618071     0.131584315269    12.000000000000
         C           -1.322334749593     0.884145618071    -0.720039684731    12.000000000000
         C           -1.439000749593    -0.373279381929     0.093937315269    12.000000000000
         O           -1.254232749593    -0.472216381929     1.286494315269    15.994914619570
         O           -1.781686749593    -1.432120381929    -0.682711684731    15.994914619570
         H           -0.084465749593     1.980587618071     0.669410315269     1.007825032230
         H           -0.946552749593     2.992103618071    -0.494132684731     1.007825032230
         H           -1.807457749593     2.264464618071     0.867377315269     1.007825032230
         H           -0.543261749593     0.710937618071    -1.465628684731     1.007825032230
         H           -2.251319749593     0.998580618071    -1.280869684731     1.007825032230
         H           -1.819303749593    -2.196668381929    -0.086820684731     1.007825032230
         C            1.974883250407    -1.402157381929    -0.279470684731    12.000000000000
         C            2.266040250407    -0.148805381929     0.536904315269    12.000000000000
         C            2.664654250407     1.027241618071    -0.346457684731    12.000000000000
         H            1.172806250407    -1.224113381929    -0.998193684731     1.007825032230
         H            2.856444250407    -1.711728381929    -0.842997684731     1.007825032230
         H            1.672666250407    -2.232977381929     0.357871315269     1.007825032230
         H            3.067988250407    -0.356697381929     1.248174315269     1.007825032230
         H            1.387162250407     0.110040618071     1.130263315269     1.007825032230
         H            2.870297250407     1.922072618071     0.240903315269     1.007825032230
         H            3.559544250407     0.792007618071    -0.924514684731     1.007825032230
         H            1.870346250407     1.268657618071    -1.055174684731     1.007825032230

  Running in c1 symmetry.

  Rotational constants: A =      0.07162  B =      0.03764  C =      0.02975 [cm^-1]
  Rotational constants: A =   2147.24748  B =   1128.47200  C =    892.03198 [MHz]
  Nuclear repulsion =  395.608915909284349

  Charge       = 0
  Multiplicity = 1
  Electrons    = 66
  Nalpha       = 33
  Nbeta        = 33

  ==> Algorithm <==

  SCF Algorithm Type is DF.
  DIIS enabled.
  MOM disabled.
  Fractional occupation disabled.
  Guess Type is SAD.
  Energy threshold   = 1.00e-08
  Density threshold  = 1.00e-08
  Integral threshold = 0.00e+00

  ==> Primary Basis <==

  Basis Set: JUN-CC-PVTZ
    Blend: JUN-CC-PVTZ
    Number of shells: 188
    Number of basis function: 508
    Number of Cartesian functions: 570
    Spherical Harmonics?: true
    Max angular momentum: 3

   => Loading Basis Set <=

    Name: (JUN-CC-PVTZ AUX)
    Role: JKFIT
    Keyword: DF_BASIS_SCF
    atoms 1-3, 12-14  entry C          line   152 file /home/r08543048/miniconda3/share/psi4/basis/jun-cc-pvtz-jkfit.gbs 
    atoms 4-5         entry O          line   272 file /home/r08543048/miniconda3/share/psi4/basis/jun-cc-pvtz-jkfit.gbs 
    atoms 6-11, 15-22 entry H          line    70 file /home/r08543048/miniconda3/share/psi4/basis/jun-cc-pvtz-jkfit.gbs 

  ==> Pre-Iterations <==

   -------------------------------------------------------
    Irrep   Nso     Nmo     Nalpha   Nbeta   Ndocc  Nsocc
   -------------------------------------------------------
     A        508     508       0       0       0       0
   -------------------------------------------------------
    Total     508     508      33      33      33       0
   -------------------------------------------------------

  ==> Integral Setup <==

  ==> DiskDFJK: Density-Fitted J/K Matrices <==

    J tasked:                  Yes
    K tasked:                  Yes
    wK tasked:                  No
    OpenMP threads:              1
    Integrals threads:           1
    Memory [MiB]:            15735
    Algorithm:                Core
    Integral Cache:           SAVE
    Schwarz Cutoff:          1E-12
    Fitting Condition:       1E-10

   => Auxiliary Basis Set <=

  Basis Set: (JUN-CC-PVTZ AUX)
    Blend: JUN-CC-PVTZ-JKFIT
    Number of shells: 372
    Number of basis function: 1180
    Number of Cartesian functions: 1418
    Spherical Harmonics?: true
    Max angular momentum: 4

  Minimum eigenvalue in the overlap matrix is 4.0779726057E-05.
  Using Symmetric Orthogonalization.

  SCF Guess: Superposition of Atomic Densities via on-the-fly atomic UHF.

  ==> Iterations <==

                           Total Energy        Delta E     RMS |[F,P]|

   @DF-RHF iter SAD:  -383.93936665037432   -3.83939e+02   0.00000e+00 
   @DF-RHF iter   1:  -384.90012880539467   -9.60762e-01   1.61711e-03 DIIS
   @DF-RHF iter   2:  -385.17563173985394   -2.75503e-01   8.72099e-04 DIIS
   @DF-RHF iter   3:  -385.25217276696242   -7.65410e-02   1.64454e-04 DIIS
   @DF-RHF iter   4:  -385.25672332835416   -4.55056e-03   8.25230e-05 DIIS
   @DF-RHF iter   5:  -385.25764175491270   -9.18427e-04   1.44294e-05 DIIS
   @DF-RHF iter   6:  -385.25769780135425   -5.60464e-05   6.39072e-06 DIIS
   @DF-RHF iter   7:  -385.25770693308766   -9.13173e-06   2.41857e-06 DIIS
   @DF-RHF iter   8:  -385.25770892989453   -1.99681e-06   9.91461e-07 DIIS
   @DF-RHF iter   9:  -385.25770930568228   -3.75788e-07   2.79984e-07 DIIS
   @DF-RHF iter  10:  -385.25770933343426   -2.77520e-08   7.48206e-08 DIIS
   @DF-RHF iter  11:  -385.25770933515236   -1.71809e-09   1.90592e-08 DIIS
   @DF-RHF iter  12:  -385.25770933525314   -1.00783e-10   5.01471e-09 DIIS
  Energy and wave function converged.


  ==> Post-Iterations <==

    Orbital Energies [Eh]
    ---------------------

    Doubly Occupied:                                                      

       1A    -20.614013     2A    -20.551547     3A    -11.387525  
       4A    -11.249270     5A    -11.222504     6A    -11.212050  
       7A    -11.209145     8A    -11.207648     9A     -1.464413  
      10A     -1.361371    11A     -1.069946    12A     -1.053244  
      13A     -0.925748    14A     -0.916664    15A     -0.799270  
      16A     -0.794160    17A     -0.706648    18A     -0.690451  
      19A     -0.666598    20A     -0.621006    21A     -0.600323  
      22A     -0.597126    23A     -0.594815    24A     -0.550174  
      25A     -0.536309    26A     -0.531096    27A     -0.527377  
      28A     -0.506709    29A     -0.488301    30A     -0.474902  
      31A     -0.474306    32A     -0.463880    33A     -0.453630  

    Virtual:                                                              

      34A      0.046911    35A      0.051576    36A      0.057465  
      37A      0.059573    38A      0.069766    39A      0.073173  
      40A      0.085351    41A      0.092958    42A      0.094816  
      43A      0.109037    44A      0.113691    45A      0.117483  
      46A      0.119035    47A      0.122253    48A      0.130201  
      49A      0.142645    50A      0.146648    51A      0.151057  
      52A      0.154445    53A      0.165742    54A      0.174269  
      55A      0.184725    56A      0.200342    57A      0.205041  
      58A      0.213778    59A      0.217255    60A      0.225869  
      61A      0.242498    62A      0.246897    63A      0.257647  
      64A      0.260762    65A      0.264619    66A      0.279100  
      67A      0.284628    68A      0.288250    69A      0.293033  
      70A      0.301883    71A      0.303685    72A      0.310048  
      73A      0.313869    74A      0.319871    75A      0.327134  
      76A      0.330815    77A      0.339214    78A      0.341471  
      79A      0.346848    80A      0.350052    81A      0.352515  
      82A      0.361652    83A      0.368568    84A      0.378793  
      85A      0.387833    86A      0.393374    87A      0.399201  
      88A      0.406902    89A      0.412964    90A      0.417287  
      91A      0.427992    92A      0.437617    93A      0.439218  
      94A      0.448608    95A      0.457540    96A      0.464935  
      97A      0.476368    98A      0.487636    99A      0.495233  
     100A      0.503771   101A      0.522541   102A      0.526361  
     103A      0.528490   104A      0.531073   105A      0.540544  
     106A      0.550753   107A      0.557821   108A      0.560814  
     109A      0.572163   110A      0.581005   111A      0.592238  
     112A      0.597430   113A      0.612018   114A      0.615994  
     115A      0.632603   116A      0.642372   117A      0.654751  
     118A      0.663409   119A      0.684899   120A      0.686436  
     121A      0.699909   122A      0.709472   123A      0.714377  
     124A      0.722471   125A      0.732123   126A      0.744768  
     127A      0.754589   128A      0.765662   129A      0.770527  
     130A      0.778901   131A      0.790833   132A      0.793589  
     133A      0.808119   134A      0.809274   135A      0.814728  
     136A      0.820859   137A      0.828027   138A      0.832206  
     139A      0.843240   140A      0.852128   141A      0.857262  
     142A      0.865220   143A      0.876790   144A      0.885391  
     145A      0.891170   146A      0.904182   147A      0.912039  
     148A      0.914294   149A      0.926002   150A      0.933372  
     151A      0.934478   152A      0.948749   153A      0.961614  
     154A      0.975122   155A      0.984025   156A      1.001545  
     157A      1.003401   158A      1.010256   159A      1.032838  
     160A      1.044615   161A      1.062387   162A      1.081351  
     163A      1.085965   164A      1.095807   165A      1.106613  
     166A      1.132366   167A      1.137106   168A      1.151619  
     169A      1.170638   170A      1.175170   171A      1.196155  
     172A      1.207710   173A      1.227736   174A      1.238455  
     175A      1.253450   176A      1.265893   177A      1.283313  
     178A      1.299808   179A      1.315321   180A      1.321317  
     181A      1.337021   182A      1.342272   183A      1.344672  
     184A      1.365125   185A      1.372924   186A      1.385775  
     187A      1.392854   188A      1.408853   189A      1.413400  
     190A      1.427307   191A      1.435809   192A      1.437820  
     193A      1.453183   194A      1.464784   195A      1.466779  
     196A      1.479679   197A      1.488757   198A      1.493278  
     199A      1.511408   200A      1.514934   201A      1.528643  
     202A      1.534478   203A      1.550110   204A      1.557087  
     205A      1.563913   206A      1.569335   207A      1.582364  
     208A      1.596931   209A      1.606061   210A      1.624472  
     211A      1.630776   212A      1.637401   213A      1.646932  
     214A      1.655409   215A      1.672133   216A      1.676531  
     217A      1.694082   218A      1.703518   219A      1.707322  
     220A      1.720905   221A      1.729296   222A      1.750296  
     223A      1.763535   224A      1.773362   225A      1.791179  
     226A      1.795841   227A      1.825533   228A      1.845654  
     229A      1.848990   230A      1.867305   231A      1.879758  
     232A      1.910096   233A      1.918649   234A      1.939033  
     235A      1.949203   236A      1.963413   237A      1.970365  
     238A      1.976169   239A      1.992951   240A      2.003859  
     241A      2.095147   242A      2.133089   243A      2.207999  
     244A      2.239173   245A      2.289215   246A      2.327518  
     247A      2.391082   248A      2.448044   249A      2.463022  
     250A      2.492667   251A      2.592939   252A      2.606085  
     253A      2.706595   254A      2.724464   255A      2.748347  
     256A      2.767162   257A      2.783345   258A      2.800583  
     259A      2.824326   260A      2.845634   261A      2.872389  
     262A      2.876449   263A      2.901197   264A      2.911919  
     265A      2.917602   266A      2.921921   267A      2.943364  
     268A      2.959858   269A      2.976640   270A      2.981169  
     271A      2.994563   272A      3.027327   273A      3.032266  
     274A      3.036026   275A      3.066465   276A      3.088198  
     277A      3.098584   278A      3.109331   279A      3.125386  
     280A      3.137571   281A      3.149587   282A      3.158583  
     283A      3.172749   284A      3.194550   285A      3.207962  
     286A      3.217463   287A      3.240681   288A      3.260414  
     289A      3.271933   290A      3.284904   291A      3.294726  
     292A      3.316537   293A      3.334529   294A      3.343552  
     295A      3.350407   296A      3.370865   297A      3.376205  
     298A      3.381984   299A      3.390797   300A      3.400485  
     301A      3.409043   302A      3.418168   303A      3.424503  
     304A      3.457108   305A      3.461937   306A      3.473608  
     307A      3.482176   308A      3.489941   309A      3.491248  
     310A      3.495934   311A      3.506859   312A      3.518756  
     313A      3.521861   314A      3.531080   315A      3.534091  
     316A      3.546083   317A      3.557343   318A      3.560321  
     319A      3.576678   320A      3.587947   321A      3.598322  
     322A      3.609885   323A      3.630327   324A      3.653239  
     325A      3.669053   326A      3.669995   327A      3.691359  
     328A      3.702455   329A      3.713351   330A      3.731727  
     331A      3.744967   332A      3.751559   333A      3.771212  
     334A      3.784351   335A      3.802122   336A      3.821938  
     337A      3.827432   338A      3.833613   339A      3.848765  
     340A      3.854044   341A      3.857546   342A      3.876553  
     343A      3.887742   344A      3.896342   345A      3.901256  
     346A      3.931650   347A      3.944052   348A      3.946968  
     349A      3.961192   350A      3.978328   351A      3.991204  
     352A      3.995263   353A      4.011045   354A      4.038533  
     355A      4.075568   356A      4.104697   357A      4.126351  
     358A      4.136847   359A      4.193540   360A      4.205268  
     361A      4.209019   362A      4.214043   363A      4.221194  
     364A      4.231520   365A      4.240148   366A      4.245270  
     367A      4.263851   368A      4.278159   369A      4.296252  
     370A      4.309980   371A      4.321301   372A      4.326273  
     373A      4.332061   374A      4.337982   375A      4.348315  
     376A      4.358536   377A      4.377396   378A      4.382961  
     379A      4.393632   380A      4.412672   381A      4.417172  
     382A      4.428332   383A      4.444841   384A      4.457858  
     385A      4.466801   386A      4.474991   387A      4.496475  
     388A      4.502481   389A      4.516939   390A      4.517452  
     391A      4.542719   392A      4.552343   393A      4.566421  
     394A      4.571796   395A      4.588556   396A      4.593684  
     397A      4.629917   398A      4.646357   399A      4.667762  
     400A      4.672648   401A      4.686695   402A      4.694159  
     403A      4.708695   404A      4.720248   405A      4.745015  
     406A      4.751269   407A      4.767663   408A      4.790686  
     409A      4.831411   410A      4.839935   411A      4.859719  
     412A      4.862770   413A      4.887657   414A      4.890256  
     415A      4.936028   416A      4.949265   417A      4.987540  
     418A      5.006968   419A      5.024747   420A      5.033668  
     421A      5.073125   422A      5.135462   423A      5.140215  
     424A      5.155858   425A      5.179316   426A      5.207366  
     427A      5.246360   428A      5.262279   429A      5.264242  
     430A      5.279794   431A      5.288348   432A      5.289568  
     433A      5.307556   434A      5.323221   435A      5.331657  
     436A      5.342609   437A      5.357107   438A      5.401432  
     439A      5.432125   440A      5.475173   441A      5.476191  
     442A      5.489210   443A      5.511138   444A      5.535522  
     445A      5.585631   446A      5.603292   447A      5.626349  
     448A      5.647024   449A      5.657364   450A      5.672546  
     451A      5.721012   452A      5.741381   453A      5.752291  
     454A      5.753980   455A      5.766707   456A      5.777913  
     457A      5.791033   458A      5.810455   459A      5.815249  
     460A      5.834580   461A      5.845453   462A      5.863218  
     463A      5.896291   464A      5.909273   465A      5.928200  
     466A      5.940026   467A      5.959219   468A      5.965033  
     469A      6.006519   470A      6.039161   471A      6.069141  
     472A      6.117111   473A      6.149215   474A      6.302264  
     475A      6.457082   476A      6.473061   477A      6.500218  
     478A      6.528460   479A      6.533717   480A      6.538872  
     481A      6.559948   482A      6.578729   483A      6.629129  
     484A      6.717355   485A      6.808218   486A      7.012514  
     487A      7.018095   488A      7.083612   489A      7.168356  
     490A      7.274789   491A      7.316353   492A      7.363166  
     493A      7.371271   494A      7.390005   495A      7.476186  
     496A      7.613635   497A      7.748819   498A      7.814616  
     499A      7.972749   500A      8.140713   501A     12.127877  
     502A     13.862467   503A     14.061541   504A     14.208732  
     505A     14.482534   506A     14.654735   507A     14.722321  
     508A     14.816450  

    Final Occupation by Irrep:
              A 
    DOCC [    33 ]

  @DF-RHF Final Energy:  -385.25770933525314

   => Energetics <=

    Nuclear Repulsion Energy =            395.6089159092843488
    One-Electron Energy =               -1308.6889181619958435
    Two-Electron Energy =                 527.8222929174582987
    Total Energy =                       -385.2577093352531392

Computation Completed


Properties will be evaluated at   0.000000,   0.000000,   0.000000 [a0]

Properties computed using the SCF density matrix

  Nuclear Dipole Moment: [e a0]
     X:    10.3022      Y:     4.9756      Z:    -2.4667

  Electronic Dipole Moment: [e a0]
     X:   -10.3962      Y:    -4.8612      Z:     1.8495

  Dipole Moment: [e a0]
     X:    -0.0940      Y:     0.1144      Z:    -0.6172     Total:     0.6347

  Dipole Moment: [D]
     X:    -0.2389      Y:     0.2908      Z:    -1.5687     Total:     1.6132


*** tstop() called on r282 at Fri Sep 10 20:26:15 2021
Module time:
	user time   =      75.41 seconds =       1.26 minutes
	system time =       1.52 seconds =       0.03 minutes
	total time  =         77 seconds =       1.28 minutes
Total time:
	user time   =      75.41 seconds =       1.26 minutes
	system time =       1.52 seconds =       0.03 minutes
	total time  =         77 seconds =       1.28 minutes

  //>>>>>>>>>>>>>>>>>>>>>>>>>>>>>>>>>>>//
  //            Monomer A HF           //
  //<<<<<<<<<<<<<<<<<<<<<<<<<<<<<<<<<<<//


*** tstart() called on r282
*** at Fri Sep 10 20:26:15 2021

   => Loading Basis Set <=

    Name: JUN-CC-PVTZ
    Role: ORBITAL
    Keyword: BASIS
    atoms 1-3, 12-14  entry C          line   217 file /home/r08543048/miniconda3/share/psi4/basis/jun-cc-pvtz.gbs 
    atoms 4-5         entry O          line   305 file /home/r08543048/miniconda3/share/psi4/basis/jun-cc-pvtz.gbs 
    atoms 6-11, 15-22 entry H          line    36 file /home/r08543048/miniconda3/share/psi4/basis/jun-cc-pvtz.gbs 


         ---------------------------------------------------------
                                   SCF
               by Justin Turney, Rob Parrish, Andy Simmonett
                          and Daniel G. A. Smith
                              RHF Reference
                        1 Threads,  20980 MiB Core
         ---------------------------------------------------------

  ==> Geometry <==

    Molecular point group: c1
    Full point group: C1

    Geometry (in Angstrom), charge = 0, multiplicity = 1:

       Center              X                  Y                   Z               Mass       
    ------------   -----------------  -----------------  -----------------  -----------------
         C           -1.021886749593     2.104590618071     0.131584315269    12.000000000000
         C           -1.322334749593     0.884145618071    -0.720039684731    12.000000000000
         C           -1.439000749593    -0.373279381929     0.093937315269    12.000000000000
         O           -1.254232749593    -0.472216381929     1.286494315269    15.994914619570
         O           -1.781686749593    -1.432120381929    -0.682711684731    15.994914619570
         H           -0.084465749593     1.980587618071     0.669410315269     1.007825032230
         H           -0.946552749593     2.992103618071    -0.494132684731     1.007825032230
         H           -1.807457749593     2.264464618071     0.867377315269     1.007825032230
         H           -0.543261749593     0.710937618071    -1.465628684731     1.007825032230
         H           -2.251319749593     0.998580618071    -1.280869684731     1.007825032230
         H           -1.819303749593    -2.196668381929    -0.086820684731     1.007825032230
      Gh(C)           1.974883250407    -1.402157381929    -0.279470684731    12.000000000000
      Gh(C)           2.266040250407    -0.148805381929     0.536904315269    12.000000000000
      Gh(C)           2.664654250407     1.027241618071    -0.346457684731    12.000000000000
      Gh(H)           1.172806250407    -1.224113381929    -0.998193684731     1.007825032230
      Gh(H)           2.856444250407    -1.711728381929    -0.842997684731     1.007825032230
      Gh(H)           1.672666250407    -2.232977381929     0.357871315269     1.007825032230
      Gh(H)           3.067988250407    -0.356697381929     1.248174315269     1.007825032230
      Gh(H)           1.387162250407     0.110040618071     1.130263315269     1.007825032230
      Gh(H)           2.870297250407     1.922072618071     0.240903315269     1.007825032230
      Gh(H)           3.559544250407     0.792007618071    -0.924514684731     1.007825032230
      Gh(H)           1.870346250407     1.268657618071    -1.055174684731     1.007825032230

  Running in c1 symmetry.

  Rotational constants: A =      0.07162  B =      0.03764  C =      0.02975 [cm^-1]
  Rotational constants: A =   2147.24748  B =   1128.47200  C =    892.03198 [MHz]
  Nuclear repulsion =  178.559220348825363

  Charge       = 0
  Multiplicity = 1
  Electrons    = 40
  Nalpha       = 20
  Nbeta        = 20

  ==> Algorithm <==

  SCF Algorithm Type is DF.
  DIIS enabled.
  MOM disabled.
  Fractional occupation disabled.
  Guess Type is SAD.
  Energy threshold   = 1.00e-08
  Density threshold  = 1.00e-08
  Integral threshold = 0.00e+00

  ==> Primary Basis <==

  Basis Set: JUN-CC-PVTZ
    Blend: JUN-CC-PVTZ
    Number of shells: 188
    Number of basis function: 508
    Number of Cartesian functions: 570
    Spherical Harmonics?: true
    Max angular momentum: 3

   => Loading Basis Set <=

    Name: (JUN-CC-PVTZ AUX)
    Role: JKFIT
    Keyword: DF_BASIS_SCF
    atoms 1-3, 12-14  entry C          line   152 file /home/r08543048/miniconda3/share/psi4/basis/jun-cc-pvtz-jkfit.gbs 
    atoms 4-5         entry O          line   272 file /home/r08543048/miniconda3/share/psi4/basis/jun-cc-pvtz-jkfit.gbs 
    atoms 6-11, 15-22 entry H          line    70 file /home/r08543048/miniconda3/share/psi4/basis/jun-cc-pvtz-jkfit.gbs 

  ==> Pre-Iterations <==

   -------------------------------------------------------
    Irrep   Nso     Nmo     Nalpha   Nbeta   Ndocc  Nsocc
   -------------------------------------------------------
     A        508     508       0       0       0       0
   -------------------------------------------------------
    Total     508     508      20      20      20       0
   -------------------------------------------------------

  ==> Integral Setup <==

  ==> DiskDFJK: Density-Fitted J/K Matrices <==

    J tasked:                  Yes
    K tasked:                  Yes
    wK tasked:                  No
    OpenMP threads:              1
    Integrals threads:           1
    Memory [MiB]:            15735
    Algorithm:                Core
    Integral Cache:           LOAD
    Schwarz Cutoff:          1E-12
    Fitting Condition:       1E-10

   => Auxiliary Basis Set <=

  Basis Set: (JUN-CC-PVTZ AUX)
    Blend: JUN-CC-PVTZ-JKFIT
    Number of shells: 372
    Number of basis function: 1180
    Number of Cartesian functions: 1418
    Spherical Harmonics?: true
    Max angular momentum: 4

  Minimum eigenvalue in the overlap matrix is 4.0779726057E-05.
  Using Symmetric Orthogonalization.

  SCF Guess: Superposition of Atomic Densities via on-the-fly atomic UHF.

  ==> Iterations <==

                           Total Energy        Delta E     RMS |[F,P]|

   @DF-RHF iter SAD:  -266.06336908180089   -2.66063e+02   0.00000e+00 
   @DF-RHF iter   1:  -266.75371931551098   -6.90350e-01   1.27650e-03 DIIS
   @DF-RHF iter   2:  -266.90060371070501   -1.46884e-01   7.47552e-04 DIIS
   @DF-RHF iter   3:  -266.94938550678404   -4.87818e-02   1.31219e-04 DIIS
   @DF-RHF iter   4:  -266.95212714516862   -2.74164e-03   6.26509e-05 DIIS
   @DF-RHF iter   5:  -266.95272644433385   -5.99299e-04   1.26845e-05 DIIS
   @DF-RHF iter   6:  -266.95277108780289   -4.46435e-05   6.27773e-06 DIIS
   @DF-RHF iter   7:  -266.95278031061707   -9.22281e-06   2.24530e-06 DIIS
   @DF-RHF iter   8:  -266.95278222668588   -1.91607e-06   7.93008e-07 DIIS
   @DF-RHF iter   9:  -266.95278247868265   -2.51997e-07   1.85063e-07 DIIS
   @DF-RHF iter  10:  -266.95278249099749   -1.23148e-08   5.53019e-08 DIIS
   @DF-RHF iter  11:  -266.95278249174169   -7.44194e-10   1.35964e-08 DIIS
   @DF-RHF iter  12:  -266.95278249179552   -5.38307e-11   3.15627e-09 DIIS
  Energy and wave function converged.


  ==> Post-Iterations <==

    Orbital Energies [Eh]
    ---------------------

    Doubly Occupied:                                                      

       1A    -20.613918     2A    -20.551274     3A    -11.386987  
       4A    -11.249204     5A    -11.222853     6A     -1.463954  
       7A     -1.360699     8A     -1.069335     9A     -0.916636  
      10A     -0.793877    11A     -0.705942    12A     -0.689930  
      13A     -0.661963    14A     -0.598587    15A     -0.593924  
      16A     -0.536196    17A     -0.527702    18A     -0.506398  
      19A     -0.484314    20A     -0.453797  

    Virtual:                                                              

      21A      0.032525    22A      0.045741    23A      0.051434  
      24A      0.055370    25A      0.066071    26A      0.070550  
      27A      0.082313    28A      0.088844    29A      0.091851  
      30A      0.103601    31A      0.107927    32A      0.111562  
      33A      0.116633    34A      0.119875    35A      0.123349  
      36A      0.129709    37A      0.141805    38A      0.149657  
      39A      0.150072    40A      0.155760    41A      0.162465  
      42A      0.164659    43A      0.174107    44A      0.193067  
      45A      0.198915    46A      0.208928    47A      0.224454  
      48A      0.228618    49A      0.238297    50A      0.247015  
      51A      0.254368    52A      0.264557    53A      0.268169  
      54A      0.277641    55A      0.282903    56A      0.287565  
      57A      0.292087    58A      0.292727    59A      0.306971  
      60A      0.308218    61A      0.315809    62A      0.322952  
      63A      0.332866    64A      0.336113    65A      0.344694  
      66A      0.346820    67A      0.353230    68A      0.358617  
      69A      0.369685    70A      0.381325    71A      0.383914  
      72A      0.387860    73A      0.391044    74A      0.405731  
      75A      0.417790    76A      0.419098    77A      0.427483  
      78A      0.428808    79A      0.445677    80A      0.446683  
      81A      0.451113    82A      0.458999    83A      0.475984  
      84A      0.487386    85A      0.493184    86A      0.499008  
      87A      0.510423    88A      0.526935    89A      0.532630  
      90A      0.536605    91A      0.542484    92A      0.550299  
      93A      0.558535    94A      0.564810    95A      0.566811  
      96A      0.572995    97A      0.582265    98A      0.587109  
      99A      0.598602   100A      0.604075   101A      0.612349  
     102A      0.622079   103A      0.631540   104A      0.635767  
     105A      0.642440   106A      0.652618   107A      0.663807  
     108A      0.670223   109A      0.679212   110A      0.695050  
     111A      0.701659   112A      0.717070   113A      0.727785  
     114A      0.733277   115A      0.745255   116A      0.755652  
     117A      0.767566   118A      0.772198   119A      0.784768  
     120A      0.798206   121A      0.808336   122A      0.820388  
     123A      0.832188   124A      0.838700   125A      0.854956  
     126A      0.868725   127A      0.870774   128A      0.887013  
     129A      0.896204   130A      0.915885   131A      0.926623  
     132A      0.932142   133A      0.946540   134A      0.948730  
     135A      0.985437   136A      1.002563   137A      1.015807  
     138A      1.023349   139A      1.044472   140A      1.049528  
     141A      1.062219   142A      1.086130   143A      1.090640  
     144A      1.097664   145A      1.117838   146A      1.122790  
     147A      1.132451   148A      1.138982   149A      1.160048  
     150A      1.165844   151A      1.172945   152A      1.177182  
     153A      1.205852   154A      1.211511   155A      1.219158  
     156A      1.230438   157A      1.240554   158A      1.249336  
     159A      1.265168   160A      1.265495   161A      1.289514  
     162A      1.291668   163A      1.293782   164A      1.305539  
     165A      1.329210   166A      1.339107   167A      1.340215  
     168A      1.346019   169A      1.363409   170A      1.372885  
     171A      1.375130   172A      1.387537   173A      1.390543  
     174A      1.402401   175A      1.415973   176A      1.431441  
     177A      1.440399   178A      1.449214   179A      1.453201  
     180A      1.456635   181A      1.467518   182A      1.473645  
     183A      1.479666   184A      1.500733   185A      1.511326  
     186A      1.519253   187A      1.525949   188A      1.538442  
     189A      1.547711   190A      1.557319   191A      1.566116  
     192A      1.574671   193A      1.590673   194A      1.605089  
     195A      1.609456   196A      1.622212   197A      1.630425  
     198A      1.641895   199A      1.655817   200A      1.662527  
     201A      1.667487   202A      1.690965   203A      1.704034  
     204A      1.721934   205A      1.724637   206A      1.733489  
     207A      1.751794   208A      1.755374   209A      1.770715  
     210A      1.782582   211A      1.786608   212A      1.809063  
     213A      1.821744   214A      1.847541   215A      1.888818  
     216A      1.892829   217A      1.917288   218A      1.921900  
     219A      1.933372   220A      1.938043   221A      1.943266  
     222A      1.991086   223A      2.033597   224A      2.039601  
     225A      2.093893   226A      2.123360   227A      2.139807  
     228A      2.180438   229A      2.185207   230A      2.190499  
     231A      2.219890   232A      2.255426   233A      2.294710  
     234A      2.328308   235A      2.341904   236A      2.389831  
     237A      2.392866   238A      2.410948   239A      2.428661  
     240A      2.449405   241A      2.458814   242A      2.481991  
     243A      2.503081   244A      2.510629   245A      2.582425  
     246A      2.596230   247A      2.610041   248A      2.615901  
     249A      2.620706   250A      2.734200   251A      2.775574  
     252A      2.825691   253A      2.858006   254A      2.880706  
     255A      2.917913   256A      2.933961   257A      2.960349  
     258A      2.994991   259A      3.039798   260A      3.048552  
     261A      3.083008   262A      3.118697   263A      3.145121  
     264A      3.162119   265A      3.197799   266A      3.224100  
     267A      3.284656   268A      3.310572   269A      3.319908  
     270A      3.365566   271A      3.379927   272A      3.385808  
     273A      3.395563   274A      3.457636   275A      3.464948  
     276A      3.471471   277A      3.484219   278A      3.498500  
     279A      3.505648   280A      3.517814   281A      3.524542  
     282A      3.533324   283A      3.546649   284A      3.567786  
     285A      3.577281   286A      3.581155   287A      3.584580  
     288A      3.598797   289A      3.610024   290A      3.618917  
     291A      3.631538   292A      3.644198   293A      3.668987  
     294A      3.678709   295A      3.689869   296A      3.699495  
     297A      3.714084   298A      3.729584   299A      3.739801  
     300A      3.740775   301A      3.757279   302A      3.783838  
     303A      3.802975   304A      3.815324   305A      3.829285  
     306A      3.837135   307A      3.848557   308A      3.853036  
     309A      3.873829   310A      3.883233   311A      3.889632  
     312A      3.891977   313A      3.904016   314A      3.920510  
     315A      3.928184   316A      3.938209   317A      3.947101  
     318A      3.957162   319A      3.981789   320A      3.996212  
     321A      4.032782   322A      4.068725   323A      4.081994  
     324A      4.096135   325A      4.116003   326A      4.139306  
     327A      4.141442   328A      4.165620   329A      4.177881  
     330A      4.206869   331A      4.210720   332A      4.219943  
     333A      4.224187   334A      4.238522   335A      4.245125  
     336A      4.257221   337A      4.287194   338A      4.315540  
     339A      4.323158   340A      4.327464   341A      4.344030  
     342A      4.352126   343A      4.375806   344A      4.384290  
     345A      4.393814   346A      4.402263   347A      4.413153  
     348A      4.450175   349A      4.455868   350A      4.476167  
     351A      4.482330   352A      4.485700   353A      4.495329  
     354A      4.500705   355A      4.515383   356A      4.522405  
     357A      4.535706   358A      4.547059   359A      4.555704  
     360A      4.575294   361A      4.595359   362A      4.614993  
     363A      4.633945   364A      4.640577   365A      4.642181  
     366A      4.664413   367A      4.668497   368A      4.689319  
     369A      4.700288   370A      4.706633   371A      4.721737  
     372A      4.728544   373A      4.733655   374A      4.742733  
     375A      4.754476   376A      4.782492   377A      4.788188  
     378A      4.814730   379A      4.819394   380A      4.832952  
     381A      4.837299   382A      4.840917   383A      4.849298  
     384A      4.866715   385A      4.871914   386A      4.904615  
     387A      4.910657   388A      4.920044   389A      4.929485  
     390A      4.936861   391A      4.958886   392A      4.966027  
     393A      4.977164   394A      4.983575   395A      4.996113  
     396A      5.009172   397A      5.018144   398A      5.036631  
     399A      5.041899   400A      5.061471   401A      5.088555  
     402A      5.109376   403A      5.129814   404A      5.143766  
     405A      5.148736   406A      5.157612   407A      5.165471  
     408A      5.208236   409A      5.229853   410A      5.262261  
     411A      5.264645   412A      5.290072   413A      5.306603  
     414A      5.319817   415A      5.334084   416A      5.356505  
     417A      5.385224   418A      5.418956   419A      5.465313  
     420A      5.482499   421A      5.489778   422A      5.536078  
     423A      5.594533   424A      5.612055   425A      5.622329  
     426A      5.628062   427A      5.632767   428A      5.643234  
     429A      5.648906   430A      5.661148   431A      5.675505  
     432A      5.743393   433A      5.754402   434A      5.813866  
     435A      5.828617   436A      5.840207   437A      5.863668  
     438A      5.896300   439A      5.907744   440A      5.917625  
     441A      5.958106   442A      5.965033   443A      6.014663  
     444A      6.040546   445A      6.054060   446A      6.073482  
     447A      6.146919   448A      6.192999   449A      6.202947  
     450A      6.257502   451A      6.301783   452A      6.345753  
     453A      6.362472   454A      6.386340   455A      6.426198  
     456A      6.448851   457A      6.460916   458A      6.497293  
     459A      6.503119   460A      6.505651   461A      6.534586  
     462A      6.588890   463A      6.617060   464A      6.715305  
     465A      6.760054   466A      6.807794   467A      6.900006  
     468A      6.995800   469A      7.012723   470A      7.020501  
     471A      7.084285   472A      7.168903   473A      7.275418  
     474A      7.301596   475A      7.315962   476A      7.362460  
     477A      7.371523   478A      7.390209   479A      7.473948  
     480A      7.493564   481A      7.561083   482A      7.588764  
     483A      7.620062   484A      7.646660   485A      7.695213  
     486A      7.701485   487A      7.749317   488A      7.811935  
     489A      7.815064   490A      7.824770   491A      7.867422  
     492A      7.907818   493A      7.974123   494A      8.055987  
     495A      8.141630   496A      8.227385   497A      8.508401  
     498A      9.576981   499A      9.900895   500A      9.938370  
     501A     12.142871   502A     14.060659   503A     14.209944  
     504A     14.662381   505A     14.791666   506A     44.382467  
     507A     45.375197   508A     45.841407  

    Final Occupation by Irrep:
              A 
    DOCC [    20 ]

  @DF-RHF Final Energy:  -266.95278249179552

   => Energetics <=

    Nuclear Repulsion Energy =            178.5592203488253631
    One-Electron Energy =                -718.2490257000755491
    Two-Electron Energy =                 272.7370228594547257
    Total Energy =                       -266.9527824917955172

Computation Completed


Properties will be evaluated at   0.000000,   0.000000,   0.000000 [a0]

Properties computed using the SCF density matrix

  Nuclear Dipole Moment: [e a0]
     X:  -102.8749      Y:    13.6212      Z:     0.1370

  Electronic Dipole Moment: [e a0]
     X:   102.7885      Y:   -13.4843      Z:    -0.8560

  Dipole Moment: [e a0]
     X:    -0.0864      Y:     0.1370      Z:    -0.7190     Total:     0.7371

  Dipole Moment: [D]
     X:    -0.2195      Y:     0.3481      Z:    -1.8276     Total:     1.8734


*** tstop() called on r282 at Fri Sep 10 20:27:04 2021
Module time:
	user time   =      47.71 seconds =       0.80 minutes
	system time =       0.78 seconds =       0.01 minutes
	total time  =         49 seconds =       0.82 minutes
Total time:
	user time   =     123.12 seconds =       2.05 minutes
	system time =       2.30 seconds =       0.04 minutes
	total time  =        126 seconds =       2.10 minutes

  //>>>>>>>>>>>>>>>>>>>>>>>>>>>>>>>>>>>//
  //            Monomer B HF           //
  //<<<<<<<<<<<<<<<<<<<<<<<<<<<<<<<<<<<//


*** tstart() called on r282
*** at Fri Sep 10 20:27:04 2021

   => Loading Basis Set <=

    Name: JUN-CC-PVTZ
    Role: ORBITAL
    Keyword: BASIS
    atoms 1-3, 12-14  entry C          line   217 file /home/r08543048/miniconda3/share/psi4/basis/jun-cc-pvtz.gbs 
    atoms 4-5         entry O          line   305 file /home/r08543048/miniconda3/share/psi4/basis/jun-cc-pvtz.gbs 
    atoms 6-11, 15-22 entry H          line    36 file /home/r08543048/miniconda3/share/psi4/basis/jun-cc-pvtz.gbs 


         ---------------------------------------------------------
                                   SCF
               by Justin Turney, Rob Parrish, Andy Simmonett
                          and Daniel G. A. Smith
                              RHF Reference
                        1 Threads,  20980 MiB Core
         ---------------------------------------------------------

  ==> Geometry <==

    Molecular point group: c1
    Full point group: C1

    Geometry (in Angstrom), charge = 0, multiplicity = 1:

       Center              X                  Y                   Z               Mass       
    ------------   -----------------  -----------------  -----------------  -----------------
      Gh(C)          -1.021886749593     2.104590618071     0.131584315269    12.000000000000
      Gh(C)          -1.322334749593     0.884145618071    -0.720039684731    12.000000000000
      Gh(C)          -1.439000749593    -0.373279381929     0.093937315269    12.000000000000
      Gh(O)          -1.254232749593    -0.472216381929     1.286494315269    15.994914619570
      Gh(O)          -1.781686749593    -1.432120381929    -0.682711684731    15.994914619570
      Gh(H)          -0.084465749593     1.980587618071     0.669410315269     1.007825032230
      Gh(H)          -0.946552749593     2.992103618071    -0.494132684731     1.007825032230
      Gh(H)          -1.807457749593     2.264464618071     0.867377315269     1.007825032230
      Gh(H)          -0.543261749593     0.710937618071    -1.465628684731     1.007825032230
      Gh(H)          -2.251319749593     0.998580618071    -1.280869684731     1.007825032230
      Gh(H)          -1.819303749593    -2.196668381929    -0.086820684731     1.007825032230
         C            1.974883250407    -1.402157381929    -0.279470684731    12.000000000000
         C            2.266040250407    -0.148805381929     0.536904315269    12.000000000000
         C            2.664654250407     1.027241618071    -0.346457684731    12.000000000000
         H            1.172806250407    -1.224113381929    -0.998193684731     1.007825032230
         H            2.856444250407    -1.711728381929    -0.842997684731     1.007825032230
         H            1.672666250407    -2.232977381929     0.357871315269     1.007825032230
         H            3.067988250407    -0.356697381929     1.248174315269     1.007825032230
         H            1.387162250407     0.110040618071     1.130263315269     1.007825032230
         H            2.870297250407     1.922072618071     0.240903315269     1.007825032230
         H            3.559544250407     0.792007618071    -0.924514684731     1.007825032230
         H            1.870346250407     1.268657618071    -1.055174684731     1.007825032230

  Running in c1 symmetry.

  Rotational constants: A =      0.07162  B =      0.03764  C =      0.02975 [cm^-1]
  Rotational constants: A =   2147.24748  B =   1128.47200  C =    892.03198 [MHz]
  Nuclear repulsion =   82.802507292820195

  Charge       = 0
  Multiplicity = 1
  Electrons    = 26
  Nalpha       = 13
  Nbeta        = 13

  ==> Algorithm <==

  SCF Algorithm Type is DF.
  DIIS enabled.
  MOM disabled.
  Fractional occupation disabled.
  Guess Type is SAD.
  Energy threshold   = 1.00e-08
  Density threshold  = 1.00e-08
  Integral threshold = 0.00e+00

  ==> Primary Basis <==

  Basis Set: JUN-CC-PVTZ
    Blend: JUN-CC-PVTZ
    Number of shells: 188
    Number of basis function: 508
    Number of Cartesian functions: 570
    Spherical Harmonics?: true
    Max angular momentum: 3

   => Loading Basis Set <=

    Name: (JUN-CC-PVTZ AUX)
    Role: JKFIT
    Keyword: DF_BASIS_SCF
    atoms 1-3, 12-14  entry C          line   152 file /home/r08543048/miniconda3/share/psi4/basis/jun-cc-pvtz-jkfit.gbs 
    atoms 4-5         entry O          line   272 file /home/r08543048/miniconda3/share/psi4/basis/jun-cc-pvtz-jkfit.gbs 
    atoms 6-11, 15-22 entry H          line    70 file /home/r08543048/miniconda3/share/psi4/basis/jun-cc-pvtz-jkfit.gbs 

  ==> Pre-Iterations <==

   -------------------------------------------------------
    Irrep   Nso     Nmo     Nalpha   Nbeta   Ndocc  Nsocc
   -------------------------------------------------------
     A        508     508       0       0       0       0
   -------------------------------------------------------
    Total     508     508      13      13      13       0
   -------------------------------------------------------

  ==> Integral Setup <==

  ==> DiskDFJK: Density-Fitted J/K Matrices <==

    J tasked:                  Yes
    K tasked:                  Yes
    wK tasked:                  No
    OpenMP threads:              1
    Integrals threads:           1
    Memory [MiB]:            15735
    Algorithm:                Core
    Integral Cache:           LOAD
    Schwarz Cutoff:          1E-12
    Fitting Condition:       1E-10

   => Auxiliary Basis Set <=

  Basis Set: (JUN-CC-PVTZ AUX)
    Blend: JUN-CC-PVTZ-JKFIT
    Number of shells: 372
    Number of basis function: 1180
    Number of Cartesian functions: 1418
    Spherical Harmonics?: true
    Max angular momentum: 4

  Minimum eigenvalue in the overlap matrix is 4.0779726057E-05.
  Using Symmetric Orthogonalization.

  SCF Guess: Superposition of Atomic Densities via on-the-fly atomic UHF.

  ==> Iterations <==

                           Total Energy        Delta E     RMS |[F,P]|

   @DF-RHF iter SAD:  -117.72419720023056   -1.17724e+02   0.00000e+00 
   @DF-RHF iter   1:  -118.14644686293494   -4.22250e-01   1.01422e-03 DIIS
   @DF-RHF iter   2:  -118.27576500666396   -1.29318e-01   4.79910e-04 DIIS
   @DF-RHF iter   3:  -118.30617703671773   -3.04120e-02   8.06170e-05 DIIS
   @DF-RHF iter   4:  -118.30802883556579   -1.85180e-03   1.58648e-05 DIIS
   @DF-RHF iter   5:  -118.30808695881656   -5.81233e-05   4.46538e-06 DIIS
   @DF-RHF iter   6:  -118.30809155564305   -4.59683e-06   8.02149e-07 DIIS
   @DF-RHF iter   7:  -118.30809172612004   -1.70477e-07   1.50903e-07 DIIS
   @DF-RHF iter   8:  -118.30809173355416   -7.43412e-09   2.63435e-08 DIIS
   @DF-RHF iter   9:  -118.30809173378393   -2.29761e-10   5.17891e-09 DIIS
  Energy and wave function converged.


  ==> Post-Iterations <==

    Orbital Energies [Eh]
    ---------------------

    Doubly Occupied:                                                      

       1A    -11.215685     2A    -11.207959     3A    -11.207835  
       4A     -1.053891     5A     -0.924736     6A     -0.800050  
       7A     -0.624415     8A     -0.598062     9A     -0.549733  
      10A     -0.529802    11A     -0.476085    12A     -0.474552  
      13A     -0.467942  

    Virtual:                                                              

      14A      0.031959    15A      0.046950    16A      0.051304  
      17A      0.057203    18A      0.068140    19A      0.071757  
      20A      0.083210    21A      0.085893    22A      0.088579  
      23A      0.104097    24A      0.108643    25A      0.112649  
      26A      0.116243    27A      0.118243    28A      0.120810  
      29A      0.128629    30A      0.142295    31A      0.148990  
      32A      0.151941    33A      0.152715    34A      0.159990  
      35A      0.171558    36A      0.184208    37A      0.196481  
      38A      0.200896    39A      0.213036    40A      0.223310  
      41A      0.224991    42A      0.232238    43A      0.241604  
      44A      0.250122    45A      0.255442    46A      0.268255  
      47A      0.274929    48A      0.277719    49A      0.293433  
      50A      0.299903    51A      0.306572    52A      0.314967  
      53A      0.319138    54A      0.324850    55A      0.327810  
      56A      0.338130    57A      0.344044    58A      0.344113  
      59A      0.353540    60A      0.358029    61A      0.363442  
      62A      0.371187    63A      0.374233    64A      0.382244  
      65A      0.384866    66A      0.390509    67A      0.396996  
      68A      0.410896    69A      0.421441    70A      0.425869  
      71A      0.434980    72A      0.441921    73A      0.448339  
      74A      0.456667    75A      0.466323    76A      0.472364  
      77A      0.475015    78A      0.495090    79A      0.504403  
      80A      0.511617    81A      0.523391    82A      0.526552  
      83A      0.531971    84A      0.538188    85A      0.544216  
      86A      0.550563    87A      0.555528    88A      0.565793  
      89A      0.569827    90A      0.585920    91A      0.594269  
      92A      0.599451    93A      0.609609    94A      0.619599  
      95A      0.624397    96A      0.640666    97A      0.649909  
      98A      0.653919    99A      0.667463   100A      0.681699  
     101A      0.690794   102A      0.696711   103A      0.705820  
     104A      0.733088   105A      0.737504   106A      0.751513  
     107A      0.758075   108A      0.772549   109A      0.779022  
     110A      0.789241   111A      0.797705   112A      0.805359  
     113A      0.814413   114A      0.823076   115A      0.834570  
     116A      0.853953   117A      0.864281   118A      0.875934  
     119A      0.884456   120A      0.885709   121A      0.894628  
     122A      0.909676   123A      0.911616   124A      0.919808  
     125A      0.938621   126A      0.953215   127A      0.961100  
     128A      0.969285   129A      0.977276   130A      0.990279  
     131A      0.992684   132A      0.997625   133A      1.020194  
     134A      1.034750   135A      1.044663   136A      1.057766  
     137A      1.069657   138A      1.083108   139A      1.098504  
     140A      1.103799   141A      1.121902   142A      1.131765  
     143A      1.146557   144A      1.163489   145A      1.173640  
     146A      1.188098   147A      1.189467   148A      1.212850  
     149A      1.214370   150A      1.231000   151A      1.235972  
     152A      1.262433   153A      1.271225   154A      1.278683  
     155A      1.289953   156A      1.291553   157A      1.307577  
     158A      1.311873   159A      1.325799   160A      1.344105  
     161A      1.359200   162A      1.359981   163A      1.365521  
     164A      1.375796   165A      1.383558   166A      1.393337  
     167A      1.400596   168A      1.423709   169A      1.430725  
     170A      1.444169   171A      1.461086   172A      1.469836  
     173A      1.475762   174A      1.484139   175A      1.499771  
     176A      1.504485   177A      1.512007   178A      1.528667  
     179A      1.541438   180A      1.553404   181A      1.567885  
     182A      1.583330   183A      1.583936   184A      1.587431  
     185A      1.594324   186A      1.610404   187A      1.619649  
     188A      1.625737   189A      1.637345   190A      1.649942  
     191A      1.656219   192A      1.669746   193A      1.690316  
     194A      1.694252   195A      1.702969   196A      1.708244  
     197A      1.724334   198A      1.727878   199A      1.768014  
     200A      1.787010   201A      1.799165   202A      1.830295  
     203A      1.833368   204A      1.842023   205A      1.858321  
     206A      1.868395   207A      1.875814   208A      1.885468  
     209A      1.925096   210A      1.934320   211A      1.942759  
     212A      1.951592   213A      1.963641   214A      1.976187  
     215A      1.994191   216A      2.007208   217A      2.020861  
     218A      2.058144   219A      2.101879   220A      2.110522  
     221A      2.136468   222A      2.171603   223A      2.212577  
     224A      2.248339   225A      2.314618   226A      2.419992  
     227A      2.433917   228A      2.453738   229A      2.552238  
     230A      2.584322   231A      2.593956   232A      2.633523  
     233A      2.683990   234A      2.719959   235A      2.759450  
     236A      2.763722   237A      2.776309   238A      2.800284  
     239A      2.805178   240A      2.828073   241A      2.843647  
     242A      2.873844   243A      2.878387   244A      2.911302  
     245A      2.925361   246A      2.928831   247A      2.956489  
     248A      2.973408   249A      2.980849   250A      2.997450  
     251A      3.008964   252A      3.045903   253A      3.047647  
     254A      3.071787   255A      3.092085   256A      3.096894  
     257A      3.124276   258A      3.128655   259A      3.152531  
     260A      3.184776   261A      3.204108   262A      3.253453  
     263A      3.260944   264A      3.272299   265A      3.297984  
     266A      3.320725   267A      3.328813   268A      3.336496  
     269A      3.363401   270A      3.381720   271A      3.384614  
     272A      3.400664   273A      3.415617   274A      3.438122  
     275A      3.454582   276A      3.483147   277A      3.498309  
     278A      3.505987   279A      3.509234   280A      3.527378  
     281A      3.542996   282A      3.548638   283A      3.563434  
     284A      3.572186   285A      3.596213   286A      3.605227  
     287A      3.610560   288A      3.626262   289A      3.632527  
     290A      3.662907   291A      3.676856   292A      3.701332  
     293A      3.705596   294A      3.725555   295A      3.739198  
     296A      3.742440   297A      3.758187   298A      3.771832  
     299A      3.789825   300A      3.796137   301A      3.819460  
     302A      3.828963   303A      3.836284   304A      3.851737  
     305A      3.869178   306A      3.873894   307A      3.878603  
     308A      3.910841   309A      3.924897   310A      3.930405  
     311A      3.940184   312A      3.950129   313A      3.968220  
     314A      3.975154   315A      3.980775   316A      3.988088  
     317A      4.022355   318A      4.071278   319A      4.108991  
     320A      4.118560   321A      4.122919   322A      4.132518  
     323A      4.165331   324A      4.178558   325A      4.208458  
     326A      4.222431   327A      4.228962   328A      4.247784  
     329A      4.252499   330A      4.264866   331A      4.284352  
     332A      4.302867   333A      4.311606   334A      4.323042  
     335A      4.334870   336A      4.345009   337A      4.367943  
     338A      4.373497   339A      4.385935   340A      4.396697  
     341A      4.415427   342A      4.416769   343A      4.427079  
     344A      4.455683   345A      4.474475   346A      4.478505  
     347A      4.495006   348A      4.507382   349A      4.511175  
     350A      4.537794   351A      4.545630   352A      4.550615  
     353A      4.554562   354A      4.579090   355A      4.584740  
     356A      4.607067   357A      4.623783   358A      4.634379  
     359A      4.660436   360A      4.672859   361A      4.684615  
     362A      4.687965   363A      4.699379   364A      4.704750  
     365A      4.720632   366A      4.742653   367A      4.761938  
     368A      4.767512   369A      4.787482   370A      4.799403  
     371A      4.808400   372A      4.812105   373A      4.828668  
     374A      4.836040   375A      4.842588   376A      4.862304  
     377A      4.875510   378A      4.879833   379A      4.896581  
     380A      4.905352   381A      4.917707   382A      4.938713  
     383A      4.946222   384A      4.960185   385A      4.970210  
     386A      4.995255   387A      5.000603   388A      5.004800  
     389A      5.025537   390A      5.029888   391A      5.042642  
     392A      5.047988   393A      5.062337   394A      5.076492  
     395A      5.115082   396A      5.140682   397A      5.143115  
     398A      5.173230   399A      5.187900   400A      5.206175  
     401A      5.229093   402A      5.271615   403A      5.278265  
     404A      5.286085   405A      5.292406   406A      5.296213  
     407A      5.343753   408A      5.346372   409A      5.378752  
     410A      5.401774   411A      5.423348   412A      5.446640  
     413A      5.483010   414A      5.510963   415A      5.524897  
     416A      5.582568   417A      5.589195   418A      5.599402  
     419A      5.612626   420A      5.667915   421A      5.721989  
     422A      5.727920   423A      5.753303   424A      5.768266  
     425A      5.768539   426A      5.780416   427A      5.800498  
     428A      5.814535   429A      5.825842   430A      5.850148  
     431A      5.872389   432A      5.927879   433A      5.933176  
     434A      5.966035   435A      5.988735   436A      6.006952  
     437A      6.109790   438A      6.126503   439A      6.171796  
     440A      6.219396   441A      6.230935   442A      6.344777  
     443A      6.392440   444A      6.420500   445A      6.445515  
     446A      6.460685   447A      6.470840   448A      6.486936  
     449A      6.521517   450A      6.536208   451A      6.543944  
     452A      6.560956   453A      6.612106   454A      6.626242  
     455A      6.640587   456A      6.820027   457A      6.838313  
     458A      6.902794   459A      7.052359   460A      7.147262  
     461A      7.198293   462A      7.282234   463A      7.433737  
     464A      7.478408   465A      7.551091   466A      7.599310  
     467A      7.659857   468A      7.726297   469A      7.812891  
     470A      7.844154   471A      7.888325   472A      7.941664  
     473A      8.008570   474A      8.084187   475A      8.170458  
     476A      8.250523   477A      8.454727   478A      8.610078  
     479A      8.827609   480A      9.211285   481A      9.560421  
     482A      9.717049   483A      9.750406   484A      9.783430  
     485A      9.885373   486A      9.912939   487A      9.928278  
     488A      9.945752   489A      9.960033   490A     10.052593  
     491A     10.266684   492A     10.448141   493A     11.149426  
     494A     11.515455   495A     11.676751   496A     11.742574  
     497A     12.051777   498A     13.021860   499A     13.649472  
     500A     13.877747   501A     13.947829   502A     14.495576  
     503A     14.708270   504A     42.860954   505A     45.224883  
     506A     45.952270   507A     61.629668   508A     62.154779  

    Final Occupation by Irrep:
              A 
    DOCC [    13 ]

  @DF-RHF Final Energy:  -118.30809173378393

   => Energetics <=

    Nuclear Repulsion Energy =             82.8025072928201951
    One-Electron Energy =                -321.9597043599508766
    Two-Electron Energy =                 120.8491053333467562
    Total Energy =                       -118.3080917337839253

Computation Completed


Properties will be evaluated at   0.000000,   0.000000,   0.000000 [a0]

Properties computed using the SCF density matrix

  Nuclear Dipole Moment: [e a0]
     X:   113.1771      Y:    -8.6456      Z:    -2.6037

  Electronic Dipole Moment: [e a0]
     X:  -113.1785      Y:     8.6471      Z:     2.6367

  Dipole Moment: [e a0]
     X:    -0.0014      Y:     0.0015      Z:     0.0330     Total:     0.0331

  Dipole Moment: [D]
     X:    -0.0035      Y:     0.0037      Z:     0.0840     Total:     0.0841


*** tstop() called on r282 at Fri Sep 10 20:27:40 2021
Module time:
	user time   =      35.51 seconds =       0.59 minutes
	system time =       0.63 seconds =       0.01 minutes
	total time  =         36 seconds =       0.60 minutes
Total time:
	user time   =     158.64 seconds =       2.64 minutes
	system time =       2.93 seconds =       0.05 minutes
	total time  =        162 seconds =       2.70 minutes
  Constructing Basis Sets for SAPT...

   => Loading Basis Set <=

    Name: (JUN-CC-PVTZ AUX)
    Role: RIFIT
    Keyword: DF_BASIS_SAPT
    atoms 1-3, 12-14  entry C          line   132 file /home/r08543048/miniconda3/share/psi4/basis/jun-cc-pvtz-ri.gbs 
    atoms 4-5         entry O          line   244 file /home/r08543048/miniconda3/share/psi4/basis/jun-cc-pvtz-ri.gbs 
    atoms 6-11, 15-22 entry H          line    30 file /home/r08543048/miniconda3/share/psi4/basis/jun-cc-pvtz-ri.gbs 


  //>>>>>>>>>>>>>>>>>>>>>>>>>>>>>>>>>>>//
  //               SAPT0               //
  //<<<<<<<<<<<<<<<<<<<<<<<<<<<<<<<<<<<//


*** tstart() called on r282
*** at Fri Sep 10 20:27:40 2021

        SAPT0  
    Ed Hohenstein
     6 June 2009

      Orbital Information
  --------------------------
    NSO        =       508
    NMO        =       508
    NRI        =      1196
    NOCC A     =        20
    NOCC B     =        13
    FOCC A     =         0
    FOCC B     =         0
    NVIR A     =       488
    NVIR B     =       495

    Elst10,r            =    -0.001963512585 [Eh]
    Exch10              =     0.005823492641 [Eh]
    Exch10 (S^2)        =     0.005815731828 [Eh]

    Iter     Energy [mEh]          dE [mEh]         Residual      Time [s]
       1      -0.29048627       0.290486265       2.182751690             1
       2      -0.35000686       0.059520591       0.425634168             2
       3      -0.35007611       0.000069257       0.148494530             3
       4      -0.34938230      -0.000693812       0.049613401             4
       5      -0.34928833      -0.000093974       0.014058276             5
       6      -0.34934707       0.000058741       0.005434400             6
       7      -0.34935722       0.000010154       0.001991717             7
       8      -0.34935113      -0.000006094       0.000959598             8
       9      -0.34934987      -0.000001255       0.000319076             9
      10      -0.34935101       0.000001135       0.000099964            10
      11      -0.34935091      -0.000000096       0.000033070            11
      12      -0.34935085      -0.000000066       0.000009913            12
      13      -0.34935086       0.000000013       0.000003829            13
      14      -0.34935086       0.000000005       0.000001053            14
      15      -0.34935086      -0.000000002       0.000000250            15

    CHF Iterations converged


    Iter     Energy [mEh]          dE [mEh]         Residual      Time [s]
       1      -0.86713364       0.867133638       4.127946044             1
       2      -1.03493229       0.167798652       1.160959383             2
       3      -1.04592335       0.010991055       0.278823232             3
       4      -1.04275858      -0.003164764       0.087091661             4
       5      -1.04220719      -0.000551388       0.016421723             5
       6      -1.04240667       0.000199478       0.003733127             6
       7      -1.04240949       0.000002824       0.000980266             7
       8      -1.04240227      -0.000007220       0.000214011             8
       9      -1.04240247       0.000000190       0.000052979             9
      10      -1.04240272       0.000000260       0.000013249            10
      11      -1.04240272      -0.000000008       0.000003553            11
      12      -1.04240270      -0.000000015       0.000000742            12

    CHF Iterations converged

    Ind20,r (A<-B)      =    -0.000349350862 [Eh]
    Ind20,r (B<-A)      =    -0.001042402702 [Eh]
    Ind20,r             =    -0.001391753564 [Eh]
    Exch-Ind20,r (A<-B) =     0.000290037247 [Eh]
    Exch-Ind20,r (B<-A) =     0.000757063683 [Eh]
    Exch-Ind20,r        =     0.001047100930 [Eh]
    Disp20              =    -0.008004108676 [Eh]
    Disp20 (SS)         =    -0.004002054338 [Eh]
    Disp20 (OS)         =    -0.004002054338 [Eh]
    Exch-Disp20         =     0.000636710884 [Eh]
    Exch-Disp20 (SS)    =     0.000417158847 [Eh]
    Exch-Disp20 (OS)    =     0.000219552037 [Eh]

    SAPT Results 
  --------------------------------------------------------------------------------------------------------
    Electrostatics                 -1.96351258 [mEh]      -1.23212275 [kcal/mol]      -5.15520158 [kJ/mol]
      Elst10,r                     -1.96351258 [mEh]      -1.23212275 [kcal/mol]      -5.15520158 [kJ/mol]

    Exchange                        5.82349264 [mEh]       3.65429680 [kcal/mol]      15.28957782 [kJ/mol]
      Exch10                        5.82349264 [mEh]       3.65429680 [kcal/mol]      15.28957782 [kJ/mol]
      Exch10(S^2)                   5.81573183 [mEh]       3.64942682 [kcal/mol]      15.26920181 [kJ/mol]

    Induction                      -0.69508973 [mEh]      -0.43617539 [kcal/mol]      -1.82495783 [kJ/mol]
      Ind20,r                      -1.39175356 [mEh]      -0.87333855 [kcal/mol]      -3.65404848 [kJ/mol]
      Exch-Ind20,r                  1.04710093 [mEh]       0.65706575 [kcal/mol]       2.74916311 [kJ/mol]
      delta HF,r (2)               -0.35043710 [mEh]      -0.21990260 [kcal/mol]      -0.92007247 [kJ/mol]

    Dispersion                     -7.36739779 [mEh]      -4.62311191 [kcal/mol]     -19.34310024 [kJ/mol]
      Disp20                       -8.00410868 [mEh]      -5.02265402 [kcal/mol]     -21.01478443 [kJ/mol]
      Exch-Disp20                   0.63671088 [mEh]       0.39954211 [kcal/mol]       1.67168420 [kJ/mol]
      Disp20 (SS)                  -4.00205434 [mEh]      -2.51132701 [kcal/mol]     -10.50739222 [kJ/mol]
      Disp20 (OS)                  -4.00205434 [mEh]      -2.51132701 [kcal/mol]     -10.50739222 [kJ/mol]
      Exch-Disp20 (SS)              0.41715885 [mEh]       0.26177113 [kcal/mol]       1.09525040 [kJ/mol]
      Exch-Disp20 (OS)              0.21955204 [mEh]       0.13777098 [kcal/mol]       0.57643379 [kJ/mol]

  Total HF                          3.16489033 [mEh]       1.98599866 [kcal/mol]       8.30941841 [kJ/mol]
  Total SAPT0                      -4.20250747 [mEh]      -2.63711325 [kcal/mol]     -11.03368183 [kJ/mol]

  Special recipe for scaled SAPT0 (see Manual):
    Electrostatics sSAPT0          -1.96351258 [mEh]      -1.23212275 [kcal/mol]      -5.15520158 [kJ/mol]
    Exchange sSAPT0                 5.82349264 [mEh]       3.65429680 [kcal/mol]      15.28957782 [kJ/mol]
    Induction sSAPT0               -0.69089222 [mEh]      -0.43354141 [kcal/mol]      -1.81393727 [kJ/mol]
    Dispersion sSAPT0              -7.36484541 [mEh]      -4.62151027 [kcal/mol]     -19.33639896 [kJ/mol]
  Total sSAPT0                     -4.19575757 [mEh]      -2.63287763 [kcal/mol]     -11.01595998 [kJ/mol]
  --------------------------------------------------------------------------------------------------------

*** tstop() called on r282 at Fri Sep 10 20:29:46 2021
Module time:
	user time   =     108.57 seconds =       1.81 minutes
	system time =      17.56 seconds =       0.29 minutes
	total time  =        126 seconds =       2.10 minutes
Total time:
	user time   =     267.35 seconds =       4.46 minutes
	system time =      20.49 seconds =       0.34 minutes
	total time  =        288 seconds =       4.80 minutes

    Psi4 stopped on: Friday, 10 September 2021 08:29PM
    Psi4 wall time for execution: 0:04:48.18

*** Psi4 exiting successfully. Buy a developer a beer!
