
    -----------------------------------------------------------------------
          Psi4: An Open-Source Ab Initio Electronic Structure Package
                               Psi4 1.3.2 release

                         Git: Rev {HEAD} ecbda83 


    R. M. Parrish, L. A. Burns, D. G. A. Smith, A. C. Simmonett,
    A. E. DePrince III, E. G. Hohenstein, U. Bozkaya, A. Yu. Sokolov,
    R. Di Remigio, R. M. Richard, J. F. Gonthier, A. M. James,
    H. R. McAlexander, A. Kumar, M. Saitow, X. Wang, B. P. Pritchard,
    P. Verma, H. F. Schaefer III, K. Patkowski, R. A. King, E. F. Valeev,
    F. A. Evangelista, J. M. Turney, T. D. Crawford, and C. D. Sherrill,
    J. Chem. Theory Comput. 13(7) pp 3185--3197 (2017).
    (doi: 10.1021/acs.jctc.7b00174)


                         Additional Contributions by
    P. Kraus, H. Kruse, M. H. Lechner, M. C. Schieber, R. A. Shaw,
    A. Alenaizan, R. Galvelis, Z. L. Glick, S. Lehtola, and J. P. Misiewicz

    -----------------------------------------------------------------------


    Psi4 started on: Friday, 10 September 2021 08:13PM

    Process ID: 57063
    Host:       r282
    PSIDATADIR: /home/r08543048/miniconda3/share/psi4
    Memory:     500.0 MiB
    Threads:    1
    
  ==> Input File <==

--------------------------------------------------------------------------
# Any line starting with the # character is a comment line
#! Sample  computation

memory 22 gb

molecule Dimer {
0 1
 C -2.332971   -0.116251   -0.015642
 O -1.670133    0.632137   -0.913665
 O -1.885932   -0.497635    1.038397
 H -3.339909   -0.329268   -0.382897
 H -0.782402    0.789785   -0.548305











    
    
 --
0 1
 C   1.577572    1.194728    0.334174
 C   2.358226   -0.101774    0.153819
 C   1.502569   -1.199290   -0.467501
 H   1.226499    1.569854   -0.631426
 H   0.717891    1.036097    0.989346
 H   2.186831    1.980588    0.779285
 H   2.732193   -0.434970    1.123396
 H   3.233623    0.083352   -0.471364
 H   2.065552   -2.123375   -0.593584
 H   0.636861   -1.415599    0.160292
 H   1.139003   -0.896959   -1.451691
   
   
   





units angstrom

no_reorient
symmetry c1
}

set globals{
  basis jun-cc-pvtz
}

energy('sapt0')


--------------------------------------------------------------------------

  Memory set to  20.489 GiB by Python driver.

  //>>>>>>>>>>>>>>>>>>>>>>>>>>>>>>>>>>>//
  //              Dimer HF             //
  //<<<<<<<<<<<<<<<<<<<<<<<<<<<<<<<<<<<//


*** tstart() called on r282
*** at Fri Sep 10 20:13:30 2021

   => Loading Basis Set <=

    Name: JUN-CC-PVTZ
    Role: ORBITAL
    Keyword: BASIS
    atoms 1, 6-8    entry C          line   217 file /home/r08543048/miniconda3/share/psi4/basis/jun-cc-pvtz.gbs 
    atoms 2-3       entry O          line   305 file /home/r08543048/miniconda3/share/psi4/basis/jun-cc-pvtz.gbs 
    atoms 4-5, 9-16 entry H          line    36 file /home/r08543048/miniconda3/share/psi4/basis/jun-cc-pvtz.gbs 


         ---------------------------------------------------------
                                   SCF
               by Justin Turney, Rob Parrish, Andy Simmonett
                          and Daniel G. A. Smith
                              RHF Reference
                        1 Threads,  20980 MiB Core
         ---------------------------------------------------------

  ==> Geometry <==

    Molecular point group: c1
    Full point group: C1

    Geometry (in Angstrom), charge = 0, multiplicity = 1:

       Center              X                  Y                   Z               Mass       
    ------------   -----------------  -----------------  -----------------  -----------------
         C           -2.225038750568    -0.113384719736    -0.026947823263    12.000000000000
         O           -1.562200750568     0.635003280264    -0.924970823263    15.994914619570
         O           -1.777999750568    -0.494768719736     1.027091176737    15.994914619570
         H           -3.231976750568    -0.326401719736    -0.394202823263     1.007825032230
         H           -0.674469750568     0.792651280264    -0.559610823263     1.007825032230
         C            1.685504249432     1.197594280264     0.322868176737    12.000000000000
         C            2.466158249432    -0.098907719736     0.142513176737    12.000000000000
         C            1.610501249432    -1.196423719736    -0.478806823263    12.000000000000
         H            1.334431249432     1.572720280264    -0.642731823263     1.007825032230
         H            0.825823249432     1.038963280264     0.978040176737     1.007825032230
         H            2.294763249432     1.983454280264     0.767979176737     1.007825032230
         H            2.840125249432    -0.432103719736     1.112090176737     1.007825032230
         H            3.341555249432     0.086218280264    -0.482669823263     1.007825032230
         H            2.173484249432    -2.120508719736    -0.604889823263     1.007825032230
         H            0.744793249432    -1.412732719736     0.148986176737     1.007825032230
         H            1.246935249432    -0.894092719736    -1.462996823263     1.007825032230

  Running in c1 symmetry.

  Rotational constants: A =      0.16506  B =      0.04519  C =      0.04283 [cm^-1]
  Rotational constants: A =   4948.36341  B =   1354.61713  C =   1284.03991 [MHz]
  Nuclear repulsion =  236.140571423957141

  Charge       = 0
  Multiplicity = 1
  Electrons    = 50
  Nalpha       = 25
  Nbeta        = 25

  ==> Algorithm <==

  SCF Algorithm Type is DF.
  DIIS enabled.
  MOM disabled.
  Fractional occupation disabled.
  Guess Type is SAD.
  Energy threshold   = 1.00e-08
  Density threshold  = 1.00e-08
  Integral threshold = 0.00e+00

  ==> Primary Basis <==

  Basis Set: JUN-CC-PVTZ
    Blend: JUN-CC-PVTZ
    Number of shells: 138
    Number of basis function: 374
    Number of Cartesian functions: 420
    Spherical Harmonics?: true
    Max angular momentum: 3

   => Loading Basis Set <=

    Name: (JUN-CC-PVTZ AUX)
    Role: JKFIT
    Keyword: DF_BASIS_SCF
    atoms 1, 6-8    entry C          line   152 file /home/r08543048/miniconda3/share/psi4/basis/jun-cc-pvtz-jkfit.gbs 
    atoms 2-3       entry O          line   272 file /home/r08543048/miniconda3/share/psi4/basis/jun-cc-pvtz-jkfit.gbs 
    atoms 4-5, 9-16 entry H          line    70 file /home/r08543048/miniconda3/share/psi4/basis/jun-cc-pvtz-jkfit.gbs 

  ==> Pre-Iterations <==

   -------------------------------------------------------
    Irrep   Nso     Nmo     Nalpha   Nbeta   Ndocc  Nsocc
   -------------------------------------------------------
     A        374     374       0       0       0       0
   -------------------------------------------------------
    Total     374     374      25      25      25       0
   -------------------------------------------------------

  ==> Integral Setup <==

  ==> DiskDFJK: Density-Fitted J/K Matrices <==

    J tasked:                  Yes
    K tasked:                  Yes
    wK tasked:                  No
    OpenMP threads:              1
    Integrals threads:           1
    Memory [MiB]:            15735
    Algorithm:                Core
    Integral Cache:           SAVE
    Schwarz Cutoff:          1E-12
    Fitting Condition:       1E-10

   => Auxiliary Basis Set <=

  Basis Set: (JUN-CC-PVTZ AUX)
    Blend: JUN-CC-PVTZ-JKFIT
    Number of shells: 274
    Number of basis function: 870
    Number of Cartesian functions: 1046
    Spherical Harmonics?: true
    Max angular momentum: 4

  Minimum eigenvalue in the overlap matrix is 9.3184412072E-05.
  Using Symmetric Orthogonalization.

  SCF Guess: Superposition of Atomic Densities via on-the-fly atomic UHF.

  ==> Iterations <==

                           Total Energy        Delta E     RMS |[F,P]|

   @DF-RHF iter SAD:  -305.84440903070333   -3.05844e+02   0.00000e+00 
   @DF-RHF iter   1:  -306.88981266509353   -1.04540e+00   1.93607e-03 DIIS
   @DF-RHF iter   2:  -307.07720125188393   -1.87389e-01   1.15479e-03 DIIS
   @DF-RHF iter   3:  -307.14606590381180   -6.88647e-02   1.98687e-04 DIIS
   @DF-RHF iter   4:  -307.14942553229253   -3.35963e-03   9.30655e-05 DIIS
   @DF-RHF iter   5:  -307.15009968115942   -6.74149e-04   1.93623e-05 DIIS
   @DF-RHF iter   6:  -307.15015129528194   -5.16141e-05   8.84736e-06 DIIS
   @DF-RHF iter   7:  -307.15016267571889   -1.13804e-05   3.27149e-06 DIIS
   @DF-RHF iter   8:  -307.15016486497120   -2.18925e-06   1.33424e-06 DIIS
   @DF-RHF iter   9:  -307.15016523270822   -3.67737e-07   3.26891e-07 DIIS
   @DF-RHF iter  10:  -307.15016525457025   -2.18620e-08   9.81809e-08 DIIS
   @DF-RHF iter  11:  -307.15016525604949   -1.47924e-09   3.17669e-08 DIIS
   @DF-RHF iter  12:  -307.15016525620121   -1.51715e-10   7.48194e-09 DIIS
  Energy and wave function converged.


  ==> Post-Iterations <==

    Orbital Energies [Eh]
    ---------------------

    Doubly Occupied:                                                      

       1A    -20.624958     2A    -20.565403     3A    -11.395995  
       4A    -11.221762     5A    -11.220422     6A    -11.210628  
       7A     -1.473431     8A     -1.373699     9A     -1.062002  
      10A     -0.933501    11A     -0.894920    12A     -0.807529  
      13A     -0.722359    14A     -0.711819    15A     -0.635066  
      16A     -0.632989    17A     -0.609964    18A     -0.598999  
      19A     -0.556237    20A     -0.540287    21A     -0.494412  
      22A     -0.485450    23A     -0.482130    24A     -0.476944  
      25A     -0.467291  

    Virtual:                                                              

      26A      0.056025    27A      0.056692    28A      0.060327  
      29A      0.068945    30A      0.075265    31A      0.082464  
      32A      0.090105    33A      0.102582    34A      0.104816  
      35A      0.114509    36A      0.120347    37A      0.128252  
      38A      0.143726    39A      0.157020    40A      0.171120  
      41A      0.184369    42A      0.188402    43A      0.192368  
      44A      0.206167    45A      0.207954    46A      0.223740  
      47A      0.244776    48A      0.250918    49A      0.255359  
      50A      0.267019    51A      0.273458    52A      0.277527  
      53A      0.283971    54A      0.289783    55A      0.296570  
      56A      0.312574    57A      0.318647    58A      0.329164  
      59A      0.333900    60A      0.338666    61A      0.346116  
      62A      0.350370    63A      0.359536    64A      0.367832  
      65A      0.370582    66A      0.387116    67A      0.404438  
      68A      0.406674    69A      0.417941    70A      0.432354  
      71A      0.436736    72A      0.450806    73A      0.465080  
      74A      0.476146    75A      0.501136    76A      0.508196  
      77A      0.517702    78A      0.519722    79A      0.529610  
      80A      0.532293    81A      0.545713    82A      0.556069  
      83A      0.565625    84A      0.596442    85A      0.604938  
      86A      0.613228    87A      0.653792    88A      0.668658  
      89A      0.676710    90A      0.690881    91A      0.696554  
      92A      0.706111    93A      0.719902    94A      0.733569  
      95A      0.747851    96A      0.757684    97A      0.765255  
      98A      0.769868    99A      0.781989   100A      0.802873  
     101A      0.805320   102A      0.811229   103A      0.822564  
     104A      0.831507   105A      0.849878   106A      0.851692  
     107A      0.866656   108A      0.878654   109A      0.887286  
     110A      0.891998   111A      0.898980   112A      0.925998  
     113A      0.931513   114A      0.960735   115A      0.970086  
     116A      0.975153   117A      0.990138   118A      1.013820  
     119A      1.038271   120A      1.062901   121A      1.075656  
     122A      1.093202   123A      1.116267   124A      1.128164  
     125A      1.134455   126A      1.137874   127A      1.170571  
     128A      1.186437   129A      1.202766   130A      1.216412  
     131A      1.244790   132A      1.266119   133A      1.274103  
     134A      1.301877   135A      1.315089   136A      1.324294  
     137A      1.334270   138A      1.344333   139A      1.359237  
     140A      1.365898   141A      1.374681   142A      1.386353  
     143A      1.396405   144A      1.409697   145A      1.413962  
     146A      1.428549   147A      1.433693   148A      1.456435  
     149A      1.473066   150A      1.487113   151A      1.527304  
     152A      1.544826   153A      1.555066   154A      1.573871  
     155A      1.597624   156A      1.603720   157A      1.614435  
     158A      1.637020   159A      1.649612   160A      1.659753  
     161A      1.663615   162A      1.698808   163A      1.706973  
     164A      1.715793   165A      1.750571   166A      1.769637  
     167A      1.804404   168A      1.834088   169A      1.849965  
     170A      1.867209   171A      1.917336   172A      1.924913  
     173A      1.934249   174A      1.950993   175A      1.969700  
     176A      2.052140   177A      2.115477   178A      2.174938  
     179A      2.197883   180A      2.292791   181A      2.304516  
     182A      2.353722   183A      2.383716   184A      2.402438  
     185A      2.486435   186A      2.556624   187A      2.583367  
     188A      2.650057   189A      2.720829   190A      2.731189  
     191A      2.745024   192A      2.752556   193A      2.774380  
     194A      2.818158   195A      2.874768   196A      2.906590  
     197A      2.916257   198A      2.927923   199A      2.946882  
     200A      2.987333   201A      2.992661   202A      3.063461  
     203A      3.075673   204A      3.096449   205A      3.111004  
     206A      3.126187   207A      3.139176   208A      3.143382  
     209A      3.160929   210A      3.167714   211A      3.227786  
     212A      3.242092   213A      3.249284   214A      3.293082  
     215A      3.300297   216A      3.308177   217A      3.338756  
     218A      3.357048   219A      3.374791   220A      3.384194  
     221A      3.396847   222A      3.412117   223A      3.422545  
     224A      3.427922   225A      3.472038   226A      3.473624  
     227A      3.483330   228A      3.485532   229A      3.487834  
     230A      3.494794   231A      3.516222   232A      3.531846  
     233A      3.543437   234A      3.547907   235A      3.549880  
     236A      3.588285   237A      3.594129   238A      3.608675  
     239A      3.622423   240A      3.639789   241A      3.683861  
     242A      3.706135   243A      3.722536   244A      3.735907  
     245A      3.747850   246A      3.776836   247A      3.797990  
     248A      3.820425   249A      3.828086   250A      3.837320  
     251A      3.871906   252A      3.887327   253A      3.913269  
     254A      3.919240   255A      3.927828   256A      3.930062  
     257A      3.954623   258A      3.958918   259A      3.976651  
     260A      4.003338   261A      4.072575   262A      4.095545  
     263A      4.159979   264A      4.177937   265A      4.183471  
     266A      4.206306   267A      4.210690   268A      4.233489  
     269A      4.245488   270A      4.258698   271A      4.285507  
     272A      4.292986   273A      4.316371   274A      4.325041  
     275A      4.339036   276A      4.354442   277A      4.379977  
     278A      4.397816   279A      4.405191   280A      4.437798  
     281A      4.452486   282A      4.467276   283A      4.499795  
     284A      4.523573   285A      4.529783   286A      4.540360  
     287A      4.559403   288A      4.599105   289A      4.607891  
     290A      4.613480   291A      4.645892   292A      4.654769  
     293A      4.668833   294A      4.696845   295A      4.712810  
     296A      4.728047   297A      4.764812   298A      4.773287  
     299A      4.786436   300A      4.825320   301A      4.851897  
     302A      4.929579   303A      4.970909   304A      4.978042  
     305A      5.008246   306A      5.040978   307A      5.051035  
     308A      5.128668   309A      5.137097   310A      5.164624  
     311A      5.199695   312A      5.233518   313A      5.243768  
     314A      5.262384   315A      5.276945   316A      5.297060  
     317A      5.301315   318A      5.358141   319A      5.390035  
     320A      5.406478   321A      5.461687   322A      5.503055  
     323A      5.583596   324A      5.598326   325A      5.620588  
     326A      5.637726   327A      5.651544   328A      5.728948  
     329A      5.736454   330A      5.757642   331A      5.765362  
     332A      5.774934   333A      5.785217   334A      5.795477  
     335A      5.812463   336A      5.872371   337A      5.894854  
     338A      5.914437   339A      5.916811   340A      5.959840  
     341A      5.972090   342A      6.056628   343A      6.088707  
     344A      6.199548   345A      6.247840   346A      6.473648  
     347A      6.485494   348A      6.488344   349A      6.507035  
     350A      6.546478   351A      6.597448   352A      6.749102  
     353A      6.816143   354A      6.932430   355A      6.988627  
     356A      7.139089   357A      7.180806   358A      7.214721  
     359A      7.236568   360A      7.309305   361A      7.365458  
     362A      7.404095   363A      7.469357   364A      7.570647  
     365A      7.695124   366A      7.761575   367A      7.941266  
     368A      8.126065   369A     12.554638   370A     13.616876  
     371A     13.900097   372A     14.506368   373A     14.606187  
     374A     14.690887  

    Final Occupation by Irrep:
              A 
    DOCC [    25 ]

  @DF-RHF Final Energy:  -307.15016525620121

   => Energetics <=

    Nuclear Repulsion Energy =            236.1405714239571410
    One-Electron Energy =                -886.1850850383259512
    Two-Electron Energy =                 342.8943483581676333
    Total Energy =                       -307.1501652562012055

Computation Completed


Properties will be evaluated at   0.000000,   0.000000,   0.000000 [a0]

Properties computed using the SCF density matrix

  Nuclear Dipole Moment: [e a0]
     X:    10.1981      Y:     0.2708      Z:    -1.0682

  Electronic Dipole Moment: [e a0]
     X:   -10.1139      Y:    -0.0199      Z:     0.5486

  Dipole Moment: [e a0]
     X:     0.0843      Y:     0.2509      Z:    -0.5197     Total:     0.5832

  Dipole Moment: [D]
     X:     0.2142      Y:     0.6377      Z:    -1.3209     Total:     1.4823


*** tstop() called on r282 at Fri Sep 10 20:13:54 2021
Module time:
	user time   =      23.13 seconds =       0.39 minutes
	system time =       0.65 seconds =       0.01 minutes
	total time  =         24 seconds =       0.40 minutes
Total time:
	user time   =      23.13 seconds =       0.39 minutes
	system time =       0.65 seconds =       0.01 minutes
	total time  =         24 seconds =       0.40 minutes

  //>>>>>>>>>>>>>>>>>>>>>>>>>>>>>>>>>>>//
  //            Monomer A HF           //
  //<<<<<<<<<<<<<<<<<<<<<<<<<<<<<<<<<<<//


*** tstart() called on r282
*** at Fri Sep 10 20:13:54 2021

   => Loading Basis Set <=

    Name: JUN-CC-PVTZ
    Role: ORBITAL
    Keyword: BASIS
    atoms 1, 6-8    entry C          line   217 file /home/r08543048/miniconda3/share/psi4/basis/jun-cc-pvtz.gbs 
    atoms 2-3       entry O          line   305 file /home/r08543048/miniconda3/share/psi4/basis/jun-cc-pvtz.gbs 
    atoms 4-5, 9-16 entry H          line    36 file /home/r08543048/miniconda3/share/psi4/basis/jun-cc-pvtz.gbs 


         ---------------------------------------------------------
                                   SCF
               by Justin Turney, Rob Parrish, Andy Simmonett
                          and Daniel G. A. Smith
                              RHF Reference
                        1 Threads,  20980 MiB Core
         ---------------------------------------------------------

  ==> Geometry <==

    Molecular point group: c1
    Full point group: C1

    Geometry (in Angstrom), charge = 0, multiplicity = 1:

       Center              X                  Y                   Z               Mass       
    ------------   -----------------  -----------------  -----------------  -----------------
         C           -2.225038750568    -0.113384719736    -0.026947823263    12.000000000000
         O           -1.562200750568     0.635003280264    -0.924970823263    15.994914619570
         O           -1.777999750568    -0.494768719736     1.027091176737    15.994914619570
         H           -3.231976750568    -0.326401719736    -0.394202823263     1.007825032230
         H           -0.674469750568     0.792651280264    -0.559610823263     1.007825032230
      Gh(C)           1.685504249432     1.197594280264     0.322868176737    12.000000000000
      Gh(C)           2.466158249432    -0.098907719736     0.142513176737    12.000000000000
      Gh(C)           1.610501249432    -1.196423719736    -0.478806823263    12.000000000000
      Gh(H)           1.334431249432     1.572720280264    -0.642731823263     1.007825032230
      Gh(H)           0.825823249432     1.038963280264     0.978040176737     1.007825032230
      Gh(H)           2.294763249432     1.983454280264     0.767979176737     1.007825032230
      Gh(H)           2.840125249432    -0.432103719736     1.112090176737     1.007825032230
      Gh(H)           3.341555249432     0.086218280264    -0.482669823263     1.007825032230
      Gh(H)           2.173484249432    -2.120508719736    -0.604889823263     1.007825032230
      Gh(H)           0.744793249432    -1.412732719736     0.148986176737     1.007825032230
      Gh(H)           1.246935249432    -0.894092719736    -1.462996823263     1.007825032230

  Running in c1 symmetry.

  Rotational constants: A =      0.16506  B =      0.04519  C =      0.04283 [cm^-1]
  Rotational constants: A =   4948.36341  B =   1354.61713  C =   1284.03991 [MHz]
  Nuclear repulsion =   70.055126629068809

  Charge       = 0
  Multiplicity = 1
  Electrons    = 24
  Nalpha       = 12
  Nbeta        = 12

  ==> Algorithm <==

  SCF Algorithm Type is DF.
  DIIS enabled.
  MOM disabled.
  Fractional occupation disabled.
  Guess Type is SAD.
  Energy threshold   = 1.00e-08
  Density threshold  = 1.00e-08
  Integral threshold = 0.00e+00

  ==> Primary Basis <==

  Basis Set: JUN-CC-PVTZ
    Blend: JUN-CC-PVTZ
    Number of shells: 138
    Number of basis function: 374
    Number of Cartesian functions: 420
    Spherical Harmonics?: true
    Max angular momentum: 3

   => Loading Basis Set <=

    Name: (JUN-CC-PVTZ AUX)
    Role: JKFIT
    Keyword: DF_BASIS_SCF
    atoms 1, 6-8    entry C          line   152 file /home/r08543048/miniconda3/share/psi4/basis/jun-cc-pvtz-jkfit.gbs 
    atoms 2-3       entry O          line   272 file /home/r08543048/miniconda3/share/psi4/basis/jun-cc-pvtz-jkfit.gbs 
    atoms 4-5, 9-16 entry H          line    70 file /home/r08543048/miniconda3/share/psi4/basis/jun-cc-pvtz-jkfit.gbs 

  ==> Pre-Iterations <==

   -------------------------------------------------------
    Irrep   Nso     Nmo     Nalpha   Nbeta   Ndocc  Nsocc
   -------------------------------------------------------
     A        374     374       0       0       0       0
   -------------------------------------------------------
    Total     374     374      12      12      12       0
   -------------------------------------------------------

  ==> Integral Setup <==

  ==> DiskDFJK: Density-Fitted J/K Matrices <==

    J tasked:                  Yes
    K tasked:                  Yes
    wK tasked:                  No
    OpenMP threads:              1
    Integrals threads:           1
    Memory [MiB]:            15735
    Algorithm:                Core
    Integral Cache:           LOAD
    Schwarz Cutoff:          1E-12
    Fitting Condition:       1E-10

   => Auxiliary Basis Set <=

  Basis Set: (JUN-CC-PVTZ AUX)
    Blend: JUN-CC-PVTZ-JKFIT
    Number of shells: 274
    Number of basis function: 870
    Number of Cartesian functions: 1046
    Spherical Harmonics?: true
    Max angular momentum: 4

  Minimum eigenvalue in the overlap matrix is 9.3184412072E-05.
  Using Symmetric Orthogonalization.

  SCF Guess: Superposition of Atomic Densities via on-the-fly atomic UHF.

  ==> Iterations <==

                           Total Energy        Delta E     RMS |[F,P]|

   @DF-RHF iter SAD:  -188.00243968622192   -1.88002e+02   0.00000e+00 
   @DF-RHF iter   1:  -188.73653409901752   -7.34094e-01   1.40214e-03 DIIS
   @DF-RHF iter   2:  -188.79853272779269   -6.19986e-02   9.90957e-04 DIIS
   @DF-RHF iter   3:  -188.84149373096682   -4.29610e-02   1.12854e-04 DIIS
   @DF-RHF iter   4:  -188.84256035946095   -1.06663e-03   6.07647e-05 DIIS
   @DF-RHF iter   5:  -188.84282627918921   -2.65920e-04   1.48935e-05 DIIS
   @DF-RHF iter   6:  -188.84286841692045   -4.21377e-05   6.54907e-06 DIIS
   @DF-RHF iter   7:  -188.84287801135099   -9.59443e-06   2.28131e-06 DIIS
   @DF-RHF iter   8:  -188.84287901755152   -1.00620e-06   6.72085e-07 DIIS
   @DF-RHF iter   9:  -188.84287910406309   -8.65116e-08   1.93878e-07 DIIS
   @DF-RHF iter  10:  -188.84287911117534   -7.11225e-09   4.48820e-08 DIIS
   @DF-RHF iter  11:  -188.84287911151597   -3.40634e-10   7.90982e-09 DIIS
  Energy and wave function converged.


  ==> Post-Iterations <==

    Orbital Energies [Eh]
    ---------------------

    Doubly Occupied:                                                      

       1A    -20.631249     2A    -20.568538     3A    -11.398855  
       4A     -1.477572     5A     -1.376886     6A     -0.898384  
       7A     -0.725882     8A     -0.714289     9A     -0.638648  
      10A     -0.605973    11A     -0.497239    12A     -0.475269  

    Virtual:                                                              

      13A      0.031481    14A      0.047667    15A      0.054679  
      16A      0.063613    17A      0.069385    18A      0.079883  
      19A      0.087451    20A      0.093103    21A      0.097946  
      22A      0.109751    23A      0.115678    24A      0.119278  
      25A      0.139658    26A      0.141718    27A      0.154140  
      28A      0.165046    29A      0.168044    30A      0.185715  
      31A      0.191951    32A      0.200958    33A      0.209528  
      34A      0.217135    35A      0.226764    36A      0.246499  
      37A      0.255669    38A      0.268650    39A      0.268991  
      40A      0.278036    41A      0.280132    42A      0.286352  
      43A      0.292987    44A      0.298395    45A      0.333757  
      46A      0.342730    47A      0.344874    48A      0.354257  
      49A      0.359459    50A      0.370286    51A      0.382580  
      52A      0.395768    53A      0.407659    54A      0.417686  
      55A      0.426181    56A      0.434162    57A      0.445919  
      58A      0.458159    59A      0.459617    60A      0.466035  
      61A      0.475591    62A      0.484625    63A      0.497641  
      64A      0.503724    65A      0.516960    66A      0.542906  
      67A      0.544074    68A      0.554052    69A      0.566454  
      70A      0.577849    71A      0.587146    72A      0.593643  
      73A      0.603304    74A      0.609460    75A      0.617450  
      76A      0.624649    77A      0.634786    78A      0.660055  
      79A      0.670091    80A      0.676571    81A      0.689324  
      82A      0.701033    83A      0.735101    84A      0.739363  
      85A      0.766642    86A      0.788536    87A      0.796496  
      88A      0.799668    89A      0.828031    90A      0.843351  
      91A      0.880488    92A      0.916897    93A      0.926906  
      94A      0.971744    95A      1.000322    96A      1.017922  
      97A      1.021786    98A      1.039583    99A      1.058553  
     100A      1.071510   101A      1.095022   102A      1.102473  
     103A      1.112114   104A      1.122511   105A      1.127991  
     106A      1.136978   107A      1.142309   108A      1.157183  
     109A      1.176891   110A      1.187946   111A      1.199116  
     112A      1.206990   113A      1.214742   114A      1.220374  
     115A      1.238579   116A      1.247297   117A      1.251921  
     118A      1.265441   119A      1.285459   120A      1.302364  
     121A      1.313243   122A      1.316643   123A      1.336093  
     124A      1.345423   125A      1.350894   126A      1.364479  
     127A      1.381508   128A      1.392369   129A      1.403774  
     130A      1.407954   131A      1.419870   132A      1.431945  
     133A      1.450292   134A      1.459052   135A      1.476611  
     136A      1.495459   137A      1.518801   138A      1.525047  
     139A      1.537772   140A      1.545809   141A      1.554543  
     142A      1.578809   143A      1.614657   144A      1.626293  
     145A      1.646983   146A      1.664942   147A      1.678758  
     148A      1.701584   149A      1.724391   150A      1.735820  
     151A      1.760021   152A      1.810149   153A      1.813861  
     154A      1.858371   155A      1.867116   156A      1.910344  
     157A      1.922407   158A      2.006141   159A      2.029113  
     160A      2.085936   161A      2.099526   162A      2.131221  
     163A      2.133360   164A      2.141403   165A      2.172094  
     166A      2.192178   167A      2.207499   168A      2.291010  
     169A      2.317531   170A      2.336952   171A      2.342495  
     172A      2.361730   173A      2.365127   174A      2.391400  
     175A      2.411294   176A      2.427268   177A      2.442728  
     178A      2.509070   179A      2.517458   180A      2.537820  
     181A      2.566080   182A      2.575556   183A      2.603438  
     184A      2.621807   185A      2.666394   186A      2.749217  
     187A      2.891145   188A      3.106705   189A      3.114469  
     190A      3.239698   191A      3.303904   192A      3.340645  
     193A      3.412983   194A      3.455332   195A      3.478597  
     196A      3.500252   197A      3.503391   198A      3.518154  
     199A      3.523944   200A      3.540141   201A      3.551110  
     202A      3.564455   203A      3.574644   204A      3.590003  
     205A      3.602640   206A      3.622285   207A      3.632641  
     208A      3.683170   209A      3.700623   210A      3.713018  
     211A      3.732506   212A      3.734517   213A      3.744141  
     214A      3.767991   215A      3.798238   216A      3.809127  
     217A      3.821034   218A      3.827288   219A      3.862605  
     220A      3.877709   221A      3.891294   222A      3.896376  
     223A      3.917648   224A      3.920558   225A      3.930590  
     226A      3.947476   227A      3.980571   228A      4.020741  
     229A      4.053343   230A      4.071156   231A      4.123313  
     232A      4.151021   233A      4.154754   234A      4.169925  
     235A      4.188338   236A      4.207263   237A      4.239537  
     238A      4.265592   239A      4.276587   240A      4.297316  
     241A      4.311722   242A      4.365114   243A      4.387492  
     244A      4.393820   245A      4.426745   246A      4.432231  
     247A      4.461942   248A      4.478623   249A      4.489243  
     250A      4.494573   251A      4.510330   252A      4.554629  
     253A      4.568483   254A      4.580933   255A      4.594898  
     256A      4.600034   257A      4.611913   258A      4.629416  
     259A      4.638313   260A      4.669999   261A      4.679928  
     262A      4.697923   263A      4.723028   264A      4.731296  
     265A      4.732469   266A      4.746761   267A      4.777961  
     268A      4.795771   269A      4.811818   270A      4.829202  
     271A      4.836216   272A      4.847526   273A      4.853806  
     274A      4.876096   275A      4.886025   276A      4.900054  
     277A      4.937582   278A      4.954725   279A      4.958373  
     280A      4.969151   281A      4.974100   282A      4.992237  
     283A      4.995821   284A      5.011409   285A      5.021306  
     286A      5.030606   287A      5.040652   288A      5.076832  
     289A      5.104085   290A      5.130528   291A      5.148895  
     292A      5.175698   293A      5.184779   294A      5.213982  
     295A      5.252544   296A      5.266236   297A      5.361778  
     298A      5.368908   299A      5.386341   300A      5.453296  
     301A      5.575491   302A      5.595616   303A      5.602782  
     304A      5.605930   305A      5.623577   306A      5.636366  
     307A      5.639741   308A      5.651841   309A      5.776284  
     310A      5.819659   311A      5.866740   312A      5.881097  
     313A      5.895560   314A      5.971508   315A      5.992458  
     316A      6.029471   317A      6.049673   318A      6.167870  
     319A      6.190041   320A      6.210803   321A      6.242004  
     322A      6.246573   323A      6.318257   324A      6.339452  
     325A      6.388014   326A      6.398168   327A      6.415576  
     328A      6.430201   329A      6.487125   330A      6.497887  
     331A      6.632222   332A      6.742600   333A      6.751435  
     334A      6.812193   335A      6.888812   336A      6.927439  
     337A      6.967276   338A      6.979484   339A      7.126342  
     340A      7.175868   341A      7.211082   342A      7.231548  
     343A      7.303985   344A      7.305954   345A      7.358876  
     346A      7.401865   347A      7.457174   348A      7.468668  
     349A      7.533441   350A      7.565032   351A      7.578873  
     352A      7.634929   353A      7.652768   354A      7.693773  
     355A      7.718941   356A      7.760039   357A      7.787110  
     358A      7.806680   359A      7.851120   360A      7.914052  
     361A      7.941801   362A      8.012220   363A      8.122134  
     364A      8.185515   365A      8.509023   366A      9.546855  
     367A      9.891019   368A      9.910064   369A     12.559574  
     370A     13.711721   371A     14.615735   372A     44.267404  
     373A     45.437925   374A     45.726454  

    Final Occupation by Irrep:
              A 
    DOCC [    12 ]

  @DF-RHF Final Energy:  -188.84287911151597

   => Energetics <=

    Nuclear Repulsion Energy =             70.0551266290688091
    One-Electron Energy =                -397.7784425826575330
    Two-Electron Energy =                 138.8804368420727542
    Total Energy =                       -188.8428791115159697

Computation Completed


Properties will be evaluated at   0.000000,   0.000000,   0.000000 [a0]

Properties computed using the SCF density matrix

  Nuclear Dipole Moment: [e a0]
     X:   -83.1069      Y:     1.7155      Z:    -0.5642

  Electronic Dipole Moment: [e a0]
     X:    83.0504      Y:    -1.4106      Z:    -0.0583

  Dipole Moment: [e a0]
     X:    -0.0565      Y:     0.3049      Z:    -0.6224     Total:     0.6954

  Dipole Moment: [D]
     X:    -0.1435      Y:     0.7750      Z:    -1.5821     Total:     1.7675


*** tstop() called on r282 at Fri Sep 10 20:14:06 2021
Module time:
	user time   =      11.90 seconds =       0.20 minutes
	system time =       0.22 seconds =       0.00 minutes
	total time  =         12 seconds =       0.20 minutes
Total time:
	user time   =      35.04 seconds =       0.58 minutes
	system time =       0.87 seconds =       0.01 minutes
	total time  =         36 seconds =       0.60 minutes

  //>>>>>>>>>>>>>>>>>>>>>>>>>>>>>>>>>>>//
  //            Monomer B HF           //
  //<<<<<<<<<<<<<<<<<<<<<<<<<<<<<<<<<<<//


*** tstart() called on r282
*** at Fri Sep 10 20:14:06 2021

   => Loading Basis Set <=

    Name: JUN-CC-PVTZ
    Role: ORBITAL
    Keyword: BASIS
    atoms 1, 6-8    entry C          line   217 file /home/r08543048/miniconda3/share/psi4/basis/jun-cc-pvtz.gbs 
    atoms 2-3       entry O          line   305 file /home/r08543048/miniconda3/share/psi4/basis/jun-cc-pvtz.gbs 
    atoms 4-5, 9-16 entry H          line    36 file /home/r08543048/miniconda3/share/psi4/basis/jun-cc-pvtz.gbs 


         ---------------------------------------------------------
                                   SCF
               by Justin Turney, Rob Parrish, Andy Simmonett
                          and Daniel G. A. Smith
                              RHF Reference
                        1 Threads,  20980 MiB Core
         ---------------------------------------------------------

  ==> Geometry <==

    Molecular point group: c1
    Full point group: C1

    Geometry (in Angstrom), charge = 0, multiplicity = 1:

       Center              X                  Y                   Z               Mass       
    ------------   -----------------  -----------------  -----------------  -----------------
      Gh(C)          -2.225038750568    -0.113384719736    -0.026947823263    12.000000000000
      Gh(O)          -1.562200750568     0.635003280264    -0.924970823263    15.994914619570
      Gh(O)          -1.777999750568    -0.494768719736     1.027091176737    15.994914619570
      Gh(H)          -3.231976750568    -0.326401719736    -0.394202823263     1.007825032230
      Gh(H)          -0.674469750568     0.792651280264    -0.559610823263     1.007825032230
         C            1.685504249432     1.197594280264     0.322868176737    12.000000000000
         C            2.466158249432    -0.098907719736     0.142513176737    12.000000000000
         C            1.610501249432    -1.196423719736    -0.478806823263    12.000000000000
         H            1.334431249432     1.572720280264    -0.642731823263     1.007825032230
         H            0.825823249432     1.038963280264     0.978040176737     1.007825032230
         H            2.294763249432     1.983454280264     0.767979176737     1.007825032230
         H            2.840125249432    -0.432103719736     1.112090176737     1.007825032230
         H            3.341555249432     0.086218280264    -0.482669823263     1.007825032230
         H            2.173484249432    -2.120508719736    -0.604889823263     1.007825032230
         H            0.744793249432    -1.412732719736     0.148986176737     1.007825032230
         H            1.246935249432    -0.894092719736    -1.462996823263     1.007825032230

  Running in c1 symmetry.

  Rotational constants: A =      0.16506  B =      0.04519  C =      0.04283 [cm^-1]
  Rotational constants: A =   4948.36341  B =   1354.61713  C =   1284.03991 [MHz]
  Nuclear repulsion =   82.797644638006901

  Charge       = 0
  Multiplicity = 1
  Electrons    = 26
  Nalpha       = 13
  Nbeta        = 13

  ==> Algorithm <==

  SCF Algorithm Type is DF.
  DIIS enabled.
  MOM disabled.
  Fractional occupation disabled.
  Guess Type is SAD.
  Energy threshold   = 1.00e-08
  Density threshold  = 1.00e-08
  Integral threshold = 0.00e+00

  ==> Primary Basis <==

  Basis Set: JUN-CC-PVTZ
    Blend: JUN-CC-PVTZ
    Number of shells: 138
    Number of basis function: 374
    Number of Cartesian functions: 420
    Spherical Harmonics?: true
    Max angular momentum: 3

   => Loading Basis Set <=

    Name: (JUN-CC-PVTZ AUX)
    Role: JKFIT
    Keyword: DF_BASIS_SCF
    atoms 1, 6-8    entry C          line   152 file /home/r08543048/miniconda3/share/psi4/basis/jun-cc-pvtz-jkfit.gbs 
    atoms 2-3       entry O          line   272 file /home/r08543048/miniconda3/share/psi4/basis/jun-cc-pvtz-jkfit.gbs 
    atoms 4-5, 9-16 entry H          line    70 file /home/r08543048/miniconda3/share/psi4/basis/jun-cc-pvtz-jkfit.gbs 

  ==> Pre-Iterations <==

   -------------------------------------------------------
    Irrep   Nso     Nmo     Nalpha   Nbeta   Ndocc  Nsocc
   -------------------------------------------------------
     A        374     374       0       0       0       0
   -------------------------------------------------------
    Total     374     374      13      13      13       0
   -------------------------------------------------------

  ==> Integral Setup <==

  ==> DiskDFJK: Density-Fitted J/K Matrices <==

    J tasked:                  Yes
    K tasked:                  Yes
    wK tasked:                  No
    OpenMP threads:              1
    Integrals threads:           1
    Memory [MiB]:            15735
    Algorithm:                Core
    Integral Cache:           LOAD
    Schwarz Cutoff:          1E-12
    Fitting Condition:       1E-10

   => Auxiliary Basis Set <=

  Basis Set: (JUN-CC-PVTZ AUX)
    Blend: JUN-CC-PVTZ-JKFIT
    Number of shells: 274
    Number of basis function: 870
    Number of Cartesian functions: 1046
    Spherical Harmonics?: true
    Max angular momentum: 4

  Minimum eigenvalue in the overlap matrix is 9.3184412072E-05.
  Using Symmetric Orthogonalization.

  SCF Guess: Superposition of Atomic Densities via on-the-fly atomic UHF.

  ==> Iterations <==

                           Total Energy        Delta E     RMS |[F,P]|

   @DF-RHF iter SAD:  -117.72334016137958   -1.17723e+02   0.00000e+00 
   @DF-RHF iter   1:  -118.14634688627095   -4.23007e-01   1.37734e-03 DIIS
   @DF-RHF iter   2:  -118.27561767891982   -1.29271e-01   6.52110e-04 DIIS
   @DF-RHF iter   3:  -118.30605775257088   -3.04401e-02   1.09540e-04 DIIS
   @DF-RHF iter   4:  -118.30791117773865   -1.85343e-03   2.15357e-05 DIIS
   @DF-RHF iter   5:  -118.30796941153123   -5.82338e-05   6.06833e-06 DIIS
   @DF-RHF iter   6:  -118.30797401927597   -4.60774e-06   1.09642e-06 DIIS
   @DF-RHF iter   7:  -118.30797419240649   -1.73131e-07   2.06857e-07 DIIS
   @DF-RHF iter   8:  -118.30797420003728   -7.63079e-09   3.62256e-08 DIIS
   @DF-RHF iter   9:  -118.30797420027586   -2.38586e-10   7.14504e-09 DIIS
  Energy and wave function converged.


  ==> Post-Iterations <==

    Orbital Energies [Eh]
    ---------------------

    Doubly Occupied:                                                      

       1A    -11.215538     2A    -11.208201     3A    -11.207974  
       4A     -1.053902     5A     -0.924572     6A     -0.799479  
       7A     -0.625693     8A     -0.597874     9A     -0.547230  
      10A     -0.531627    11A     -0.474946    12A     -0.474225  
      13A     -0.468900  

    Virtual:                                                              

      14A      0.041585    15A      0.056842    16A      0.061267  
      17A      0.063666    18A      0.073365    19A      0.083655  
      20A      0.087007    21A      0.094702    22A      0.102384  
      23A      0.119609    24A      0.122183    25A      0.126594  
      26A      0.144781    27A      0.148428    28A      0.165878  
      29A      0.169936    30A      0.176938    31A      0.195036  
      32A      0.198814    33A      0.214257    34A      0.216594  
      35A      0.227636    36A      0.228453    37A      0.238891  
      38A      0.269710    39A      0.282259    40A      0.283451  
      41A      0.289923    42A      0.301804    43A      0.312816  
      44A      0.328478    45A      0.331092    46A      0.336020  
      47A      0.347437    48A      0.349550    49A      0.356464  
      50A      0.357983    51A      0.372076    52A      0.377333  
      53A      0.384065    54A      0.401713    55A      0.411619  
      56A      0.415076    57A      0.427236    58A      0.433189  
      59A      0.437522    60A      0.444640    61A      0.453184  
      62A      0.472496    63A      0.484505    64A      0.493443  
      65A      0.513525    66A      0.520215    67A      0.523801  
      68A      0.531032    69A      0.535778    70A      0.540636  
      71A      0.554006    72A      0.556239    73A      0.619606  
      74A      0.656940    75A      0.679620    76A      0.686941  
      77A      0.697663    78A      0.713834    79A      0.722036  
      80A      0.736087    81A      0.744678    82A      0.758071  
      83A      0.769720    84A      0.777132    85A      0.789613  
      86A      0.795278    87A      0.798525    88A      0.806582  
      89A      0.816413    90A      0.835868    91A      0.844755  
      92A      0.863242    93A      0.872834    94A      0.888576  
      95A      0.896942    96A      0.901701    97A      0.911342  
      98A      0.930215    99A      0.932093   100A      0.961128  
     101A      0.968247   102A      0.979326   103A      0.982429  
     104A      0.992038   105A      1.003830   106A      1.027424  
     107A      1.038427   108A      1.045087   109A      1.051826  
     110A      1.076732   111A      1.087926   112A      1.096708  
     113A      1.117194   114A      1.143521   115A      1.155565  
     116A      1.173836   117A      1.213337   118A      1.232373  
     119A      1.249216   120A      1.260421   121A      1.301757  
     122A      1.324301   123A      1.330994   124A      1.342744  
     125A      1.363098   126A      1.367922   127A      1.375902  
     128A      1.388925   129A      1.397620   130A      1.417161  
     131A      1.439073   132A      1.443643   133A      1.454505  
     134A      1.477637   135A      1.515260   136A      1.539690  
     137A      1.549288   138A      1.550369   139A      1.572591  
     140A      1.576539   141A      1.608053   142A      1.618583  
     143A      1.624838   144A      1.640138   145A      1.650105  
     146A      1.675249   147A      1.677359   148A      1.689464  
     149A      1.705110   150A      1.726250   151A      1.763026  
     152A      1.777728   153A      1.809796   154A      1.842205  
     155A      1.856532   156A      1.869934   157A      1.881246  
     158A      1.893818   159A      1.912514   160A      1.938649  
     161A      1.951605   162A      1.957917   163A      1.994544  
     164A      2.045551   165A      2.073273   166A      2.131122  
     167A      2.300801   168A      2.493955   169A      2.522138  
     170A      2.606423   171A      2.642221   172A      2.697931  
     173A      2.725824   174A      2.734768   175A      2.743564  
     176A      2.754428   177A      2.767049   178A      2.787949  
     179A      2.797204   180A      2.831203   181A      2.852238  
     182A      2.893190   183A      2.913126   184A      2.924985  
     185A      2.942985   186A      2.949229   187A      2.970573  
     188A      3.001839   189A      3.003027   190A      3.018590  
     191A      3.033979   192A      3.078187   193A      3.101886  
     194A      3.125652   195A      3.146884   196A      3.156288  
     197A      3.176230   198A      3.180059   199A      3.202264  
     200A      3.217669   201A      3.257046   202A      3.265955  
     203A      3.287356   204A      3.319292   205A      3.326475  
     206A      3.354685   207A      3.392440   208A      3.398559  
     209A      3.413552   210A      3.428441   211A      3.431495  
     212A      3.446716   213A      3.451787   214A      3.493674  
     215A      3.502208   216A      3.512130   217A      3.537811  
     218A      3.542796   219A      3.558112   220A      3.567706  
     221A      3.604145   222A      3.623407   223A      3.631375  
     224A      3.691978   225A      3.701168   226A      3.721725  
     227A      3.730757   228A      3.733253   229A      3.747453  
     230A      3.789813   231A      3.809744   232A      3.823029  
     233A      3.854514   234A      3.872589   235A      3.899954  
     236A      3.929306   237A      3.933015   238A      3.963943  
     239A      3.966514   240A      4.002468   241A      4.028491  
     242A      4.052226   243A      4.080701   244A      4.107315  
     245A      4.180146   246A      4.194443   247A      4.204484  
     248A      4.213022   249A      4.222029   250A      4.267647  
     251A      4.291100   252A      4.309205   253A      4.314007  
     254A      4.322232   255A      4.330551   256A      4.344553  
     257A      4.351048   258A      4.388239   259A      4.400414  
     260A      4.426583   261A      4.446743   262A      4.453916  
     263A      4.460751   264A      4.478965   265A      4.487855  
     266A      4.509519   267A      4.537341   268A      4.547947  
     269A      4.565400   270A      4.585866   271A      4.596783  
     272A      4.622648   273A      4.637466   274A      4.649999  
     275A      4.669701   276A      4.697157   277A      4.710166  
     278A      4.733943   279A      4.759865   280A      4.771963  
     281A      4.788580   282A      4.794886   283A      4.803284  
     284A      4.825616   285A      4.858952   286A      4.947658  
     287A      4.972755   288A      4.984425   289A      4.997116  
     290A      5.014049   291A      5.022829   292A      5.079069  
     293A      5.085585   294A      5.134166   295A      5.172185  
     296A      5.208836   297A      5.212807   298A      5.257673  
     299A      5.266895   300A      5.289865   301A      5.301804  
     302A      5.306403   303A      5.393565   304A      5.405559  
     305A      5.416316   306A      5.472319   307A      5.510849  
     308A      5.590603   309A      5.609381   310A      5.626707  
     311A      5.733105   312A      5.745390   313A      5.755179  
     314A      5.768303   315A      5.773343   316A      5.785202  
     317A      5.800054   318A      5.818331   319A      5.915999  
     320A      5.922866   321A      5.958078   322A      5.966214  
     323A      5.975592   324A      6.084024   325A      6.151741  
     326A      6.161778   327A      6.285667   328A      6.430974  
     329A      6.472789   330A      6.480706   331A      6.495815  
     332A      6.498501   333A      6.519330   334A      6.553026  
     335A      6.607471   336A      6.699006   337A      6.806381  
     338A      7.031811   339A      7.148438   340A      7.179227  
     341A      7.492150   342A      7.505145   343A      7.657853  
     344A      7.835850   345A      7.978481   346A      8.022102  
     347A      8.431355   348A      8.613719   349A      8.839534  
     350A      9.300907   351A      9.476185   352A      9.654166  
     353A      9.787253   354A      9.826755   355A      9.841711  
     356A      9.881357   357A      9.925248   358A      9.987183  
     359A     10.236278   360A     10.442931   361A     11.021857  
     362A     11.407930   363A     11.530040   364A     11.584570  
     365A     11.909200   366A     13.001083   367A     13.523557  
     368A     13.818012   369A     13.876036   370A     14.534627  
     371A     14.669868   372A     44.612775   373A     60.309880  
     374A     61.105577  

    Final Occupation by Irrep:
              A 
    DOCC [    13 ]

  @DF-RHF Final Energy:  -118.30797420027586

   => Energetics <=

    Nuclear Repulsion Energy =             82.7976446380069007
    One-Electron Energy =                -321.9509150947573630
    Two-Electron Energy =                 120.8452962564746116
    Total Energy =                       -118.3079742002758650

Computation Completed


Properties will be evaluated at   0.000000,   0.000000,   0.000000 [a0]

Properties computed using the SCF density matrix

  Nuclear Dipole Moment: [e a0]
     X:    93.3050      Y:    -1.4447      Z:    -0.5041

  Electronic Dipole Moment: [e a0]
     X:   -93.2695      Y:     1.4408      Z:     0.5139

  Dipole Moment: [e a0]
     X:     0.0355      Y:    -0.0039      Z:     0.0099     Total:     0.0371

  Dipole Moment: [D]
     X:     0.0903      Y:    -0.0099      Z:     0.0250     Total:     0.0943


*** tstop() called on r282 at Fri Sep 10 20:14:17 2021
Module time:
	user time   =      10.34 seconds =       0.17 minutes
	system time =       0.28 seconds =       0.00 minutes
	total time  =         11 seconds =       0.18 minutes
Total time:
	user time   =      45.38 seconds =       0.76 minutes
	system time =       1.16 seconds =       0.02 minutes
	total time  =         47 seconds =       0.78 minutes
  Constructing Basis Sets for SAPT...

   => Loading Basis Set <=

    Name: (JUN-CC-PVTZ AUX)
    Role: RIFIT
    Keyword: DF_BASIS_SAPT
    atoms 1, 6-8    entry C          line   132 file /home/r08543048/miniconda3/share/psi4/basis/jun-cc-pvtz-ri.gbs 
    atoms 2-3       entry O          line   244 file /home/r08543048/miniconda3/share/psi4/basis/jun-cc-pvtz-ri.gbs 
    atoms 4-5, 9-16 entry H          line    30 file /home/r08543048/miniconda3/share/psi4/basis/jun-cc-pvtz-ri.gbs 


  //>>>>>>>>>>>>>>>>>>>>>>>>>>>>>>>>>>>//
  //               SAPT0               //
  //<<<<<<<<<<<<<<<<<<<<<<<<<<<<<<<<<<<//


*** tstart() called on r282
*** at Fri Sep 10 20:14:17 2021

        SAPT0  
    Ed Hohenstein
     6 June 2009

      Orbital Information
  --------------------------
    NSO        =       374
    NMO        =       374
    NRI        =       882
    NOCC A     =        12
    NOCC B     =        13
    FOCC A     =         0
    FOCC B     =         0
    NVIR A     =       362
    NVIR B     =       361

    Elst10,r            =    -0.003272975235 [Eh]
    Exch10              =     0.005829692904 [Eh]
    Exch10 (S^2)        =     0.005810287074 [Eh]

    Iter     Energy [mEh]          dE [mEh]         Residual      Time [s]
       1      -0.26109728       0.261097283       2.104024430             0
       2      -0.31351591       0.052418623       0.736363662             1
       3      -0.31600821       0.002492303       0.240284755             1
       4      -0.31455652      -0.001451687       0.100642770             1
       5      -0.31443261      -0.000123914       0.038646986             2
       6      -0.31460817       0.000175561       0.014115367             2
       7      -0.31461672       0.000008556       0.004974981             2
       8      -0.31459727      -0.000019451       0.001191426             3
       9      -0.31459802       0.000000751       0.000322209             3
      10      -0.31459876       0.000000740       0.000066170             4
      11      -0.31459857      -0.000000190       0.000013230             4
      12      -0.31459859       0.000000016       0.000003948             4
      13      -0.31459859       0.000000004       0.000001402             5
      14      -0.31459859      -0.000000003       0.000000474             5

    CHF Iterations converged


    Iter     Energy [mEh]          dE [mEh]         Residual      Time [s]
       1      -1.93345064       1.933450638       7.418160539             0
       2      -2.24439560       0.310944965       2.554128833             1
       3      -2.31903394       0.074638335       0.525811506             1
       4      -2.31526616      -0.003767778       0.162071434             2
       5      -2.31211398      -0.003152177       0.029262898             2
       6      -2.31242553       0.000311552       0.009576957             2
       7      -2.31251428       0.000088746       0.002336971             3
       8      -2.31249343      -0.000020850       0.000518903             3
       9      -2.31249148      -0.000001952       0.000103575             4
      10      -2.31249234       0.000000859       0.000022618             4
      11      -2.31249234      -0.000000000       0.000004134             4
      12      -2.31249231      -0.000000029       0.000000783             5

    CHF Iterations converged

    Ind20,r (A<-B)      =    -0.000314598592 [Eh]
    Ind20,r (B<-A)      =    -0.002312492309 [Eh]
    Ind20,r             =    -0.002627090901 [Eh]
    Exch-Ind20,r (A<-B) =     0.000279157697 [Eh]
    Exch-Ind20,r (B<-A) =     0.001078012016 [Eh]
    Exch-Ind20,r        =     0.001357169713 [Eh]
    Disp20              =    -0.005325585619 [Eh]
    Disp20 (SS)         =    -0.002662792809 [Eh]
    Disp20 (OS)         =    -0.002662792809 [Eh]
    Exch-Disp20         =     0.000512667286 [Eh]
    Exch-Disp20 (SS)    =     0.000336698453 [Eh]
    Exch-Disp20 (OS)    =     0.000175968832 [Eh]

    SAPT Results 
  --------------------------------------------------------------------------------------------------------
    Electrostatics                 -3.27297523 [mEh]      -2.05382297 [kcal/mol]      -8.59319530 [kJ/mol]
      Elst10,r                     -3.27297523 [mEh]      -2.05382297 [kcal/mol]      -8.59319530 [kJ/mol]

    Exchange                        5.82969290 [mEh]       3.65818753 [kcal/mol]      15.30585661 [kJ/mol]
      Exch10                        5.82969290 [mEh]       3.65818753 [kcal/mol]      15.30585661 [kJ/mol]
      Exch10(S^2)                   5.81028707 [mEh]       3.64601018 [kcal/mol]      15.25490661 [kJ/mol]

    Induction                      -1.86866208 [mEh]      -1.17260316 [kcal/mol]      -4.90617161 [kJ/mol]
      Ind20,r                      -2.62709090 [mEh]      -1.64852443 [kcal/mol]      -6.89742621 [kJ/mol]
      Exch-Ind20,r                  1.35716971 [mEh]       0.85163685 [kcal/mol]       3.56324859 [kJ/mol]
      delta HF,r (2)               -0.59874089 [mEh]      -0.37571558 [kcal/mol]      -1.57199399 [kJ/mol]

    Dispersion                     -4.81291833 [mEh]      -3.02015185 [kcal/mol]     -12.63631534 [kJ/mol]
      Disp20                       -5.32558562 [mEh]      -3.34185543 [kcal/mol]     -13.98232312 [kJ/mol]
      Exch-Disp20                   0.51266729 [mEh]       0.32170358 [kcal/mol]       1.34600777 [kJ/mol]
      Disp20 (SS)                  -2.66279281 [mEh]      -1.67092771 [kcal/mol]      -6.99116156 [kJ/mol]
      Disp20 (OS)                  -2.66279281 [mEh]      -1.67092771 [kcal/mol]      -6.99116156 [kJ/mol]
      Exch-Disp20 (SS)              0.33669845 [mEh]       0.21128147 [kcal/mol]       0.88400167 [kJ/mol]
      Exch-Disp20 (OS)              0.17596883 [mEh]       0.11042211 [kcal/mol]       0.46200611 [kJ/mol]

  Total HF                          0.68805559 [mEh]       0.43176140 [kcal/mol]       1.80648970 [kJ/mol]
  Total SAPT0                      -4.12486274 [mEh]      -2.58839045 [kcal/mol]     -10.82982564 [kJ/mol]

  Special recipe for scaled SAPT0 (see Manual):
    Electrostatics sSAPT0          -3.27297523 [mEh]      -2.05382297 [kcal/mol]      -8.59319530 [kJ/mol]
    Exchange sSAPT0                 5.82969290 [mEh]       3.65818753 [kcal/mol]      15.30585661 [kJ/mol]
    Induction sSAPT0               -1.85501814 [mEh]      -1.16404146 [kcal/mol]      -4.87034946 [kJ/mol]
    Dispersion sSAPT0              -4.80776437 [mEh]      -3.01691769 [kcal/mol]     -12.62278362 [kJ/mol]
  Total sSAPT0                     -4.10606484 [mEh]      -2.57659459 [kcal/mol]     -10.78047176 [kJ/mol]
  --------------------------------------------------------------------------------------------------------

*** tstop() called on r282 at Fri Sep 10 20:14:58 2021
Module time:
	user time   =      34.74 seconds =       0.58 minutes
	system time =       6.66 seconds =       0.11 minutes
	total time  =         41 seconds =       0.68 minutes
Total time:
	user time   =      80.22 seconds =       1.34 minutes
	system time =       7.82 seconds =       0.13 minutes
	total time  =         88 seconds =       1.47 minutes

    Psi4 stopped on: Friday, 10 September 2021 08:14PM
    Psi4 wall time for execution: 0:01:28.17

*** Psi4 exiting successfully. Buy a developer a beer!
