
    -----------------------------------------------------------------------
          Psi4: An Open-Source Ab Initio Electronic Structure Package
                               Psi4 1.3.2 release

                         Git: Rev {HEAD} ecbda83 


    R. M. Parrish, L. A. Burns, D. G. A. Smith, A. C. Simmonett,
    A. E. DePrince III, E. G. Hohenstein, U. Bozkaya, A. Yu. Sokolov,
    R. Di Remigio, R. M. Richard, J. F. Gonthier, A. M. James,
    H. R. McAlexander, A. Kumar, M. Saitow, X. Wang, B. P. Pritchard,
    P. Verma, H. F. Schaefer III, K. Patkowski, R. A. King, E. F. Valeev,
    F. A. Evangelista, J. M. Turney, T. D. Crawford, and C. D. Sherrill,
    J. Chem. Theory Comput. 13(7) pp 3185--3197 (2017).
    (doi: 10.1021/acs.jctc.7b00174)


                         Additional Contributions by
    P. Kraus, H. Kruse, M. H. Lechner, M. C. Schieber, R. A. Shaw,
    A. Alenaizan, R. Galvelis, Z. L. Glick, S. Lehtola, and J. P. Misiewicz

    -----------------------------------------------------------------------


    Psi4 started on: Friday, 10 September 2021 07:58PM

    Process ID: 57048
    Host:       r282
    PSIDATADIR: /home/r08543048/miniconda3/share/psi4
    Memory:     500.0 MiB
    Threads:    1
    
  ==> Input File <==

--------------------------------------------------------------------------
# Any line starting with the # character is a comment line
#! Sample  computation

memory 22 gb

molecule Dimer {
0 1
 C 1.538301   -0.120389    0.190027
 O 1.189891   -0.410062    1.312919
 O 1.698854   -1.049812   -0.785633
 H 1.474629   -1.901742   -0.379225
 C 1.835797    1.256657   -0.316459
 H 1.752356    1.968107    0.497052
 H 2.835692    1.282263   -0.744843
 H 1.129573    1.508449   -1.106077








    
    
 --
0 1
 C   -2.112725   -1.184949    0.132923
 C   -1.875763    0.097901   -0.655058
 C   -1.834137    1.320948    0.253831
 H   -1.324799   -1.330383    0.873234
 H   -3.063886   -1.138743    0.665135
 H   -2.137401   -2.058359   -0.518994
 H   -2.662816    0.222423   -1.401904
 H   -0.939129    0.014734   -1.211524
 H   -1.647280    2.236647   -0.307912
 H   -2.783383    1.440161    0.778053
 H   -1.052355    1.214429    1.007129
   
   
   





units angstrom

no_reorient
symmetry c1
}

set globals{
  basis jun-cc-pvtz
}

energy('sapt0')


--------------------------------------------------------------------------

  Memory set to  20.489 GiB by Python driver.

  //>>>>>>>>>>>>>>>>>>>>>>>>>>>>>>>>>>>//
  //              Dimer HF             //
  //<<<<<<<<<<<<<<<<<<<<<<<<<<<<<<<<<<<//


*** tstart() called on r282
*** at Fri Sep 10 19:58:39 2021

   => Loading Basis Set <=

    Name: JUN-CC-PVTZ
    Role: ORBITAL
    Keyword: BASIS
    atoms 1, 5, 9-11    entry C          line   217 file /home/r08543048/miniconda3/share/psi4/basis/jun-cc-pvtz.gbs 
    atoms 2-3           entry O          line   305 file /home/r08543048/miniconda3/share/psi4/basis/jun-cc-pvtz.gbs 
    atoms 4, 6-8, 12-19 entry H          line    36 file /home/r08543048/miniconda3/share/psi4/basis/jun-cc-pvtz.gbs 


         ---------------------------------------------------------
                                   SCF
               by Justin Turney, Rob Parrish, Andy Simmonett
                          and Daniel G. A. Smith
                              RHF Reference
                        1 Threads,  20980 MiB Core
         ---------------------------------------------------------

  ==> Geometry <==

    Molecular point group: c1
    Full point group: C1

    Geometry (in Angstrom), charge = 0, multiplicity = 1:

       Center              X                  Y                   Z               Mass       
    ------------   -----------------  -----------------  -----------------  -----------------
         C            1.458190215258    -0.087497220029     0.172418952927    12.000000000000
         O            1.109780215258    -0.377170220029     1.295310952927    15.994914619570
         O            1.618743215258    -1.016920220029    -0.803241047073    15.994914619570
         H            1.394518215258    -1.868850220029    -0.396833047073     1.007825032230
         C            1.755686215258     1.289548779971    -0.334067047073    12.000000000000
         H            1.672245215258     2.000998779971     0.479443952927     1.007825032230
         H            2.755581215258     1.315154779971    -0.762451047073     1.007825032230
         H            1.049462215258     1.541340779971    -1.123685047073     1.007825032230
         C           -2.192835784742    -1.152057220029     0.115314952927    12.000000000000
         C           -1.955873784742     0.130792779971    -0.672666047073    12.000000000000
         C           -1.914247784742     1.353839779971     0.236222952927    12.000000000000
         H           -1.404909784742    -1.297491220029     0.855625952927     1.007825032230
         H           -3.143996784742    -1.105851220029     0.647526952927     1.007825032230
         H           -2.217511784742    -2.025467220029    -0.536602047073     1.007825032230
         H           -2.742926784742     0.255314779971    -1.419512047073     1.007825032230
         H           -1.019239784742     0.047625779971    -1.229132047073     1.007825032230
         H           -1.727390784742     2.269538779971    -0.325520047073     1.007825032230
         H           -2.863493784742     1.473052779971     0.760444952927     1.007825032230
         H           -1.132465784742     1.247320779971     0.989520952927     1.007825032230

  Running in c1 symmetry.

  Rotational constants: A =      0.10628  B =      0.04465  C =      0.03937 [cm^-1]
  Rotational constants: A =   3186.05503  B =   1338.67732  C =   1180.42448 [MHz]
  Nuclear repulsion =  317.164505769777406

  Charge       = 0
  Multiplicity = 1
  Electrons    = 58
  Nalpha       = 29
  Nbeta        = 29

  ==> Algorithm <==

  SCF Algorithm Type is DF.
  DIIS enabled.
  MOM disabled.
  Fractional occupation disabled.
  Guess Type is SAD.
  Energy threshold   = 1.00e-08
  Density threshold  = 1.00e-08
  Integral threshold = 0.00e+00

  ==> Primary Basis <==

  Basis Set: JUN-CC-PVTZ
    Blend: JUN-CC-PVTZ
    Number of shells: 163
    Number of basis function: 441
    Number of Cartesian functions: 495
    Spherical Harmonics?: true
    Max angular momentum: 3

   => Loading Basis Set <=

    Name: (JUN-CC-PVTZ AUX)
    Role: JKFIT
    Keyword: DF_BASIS_SCF
    atoms 1, 5, 9-11    entry C          line   152 file /home/r08543048/miniconda3/share/psi4/basis/jun-cc-pvtz-jkfit.gbs 
    atoms 2-3           entry O          line   272 file /home/r08543048/miniconda3/share/psi4/basis/jun-cc-pvtz-jkfit.gbs 
    atoms 4, 6-8, 12-19 entry H          line    70 file /home/r08543048/miniconda3/share/psi4/basis/jun-cc-pvtz-jkfit.gbs 

  ==> Pre-Iterations <==

   -------------------------------------------------------
    Irrep   Nso     Nmo     Nalpha   Nbeta   Ndocc  Nsocc
   -------------------------------------------------------
     A        441     441       0       0       0       0
   -------------------------------------------------------
    Total     441     441      29      29      29       0
   -------------------------------------------------------

  ==> Integral Setup <==

  ==> DiskDFJK: Density-Fitted J/K Matrices <==

    J tasked:                  Yes
    K tasked:                  Yes
    wK tasked:                  No
    OpenMP threads:              1
    Integrals threads:           1
    Memory [MiB]:            15735
    Algorithm:                Core
    Integral Cache:           SAVE
    Schwarz Cutoff:          1E-12
    Fitting Condition:       1E-10

   => Auxiliary Basis Set <=

  Basis Set: (JUN-CC-PVTZ AUX)
    Blend: JUN-CC-PVTZ-JKFIT
    Number of shells: 323
    Number of basis function: 1025
    Number of Cartesian functions: 1232
    Spherical Harmonics?: true
    Max angular momentum: 4

  Minimum eigenvalue in the overlap matrix is 5.6713200756E-05.
  Using Symmetric Orthogonalization.

  SCF Guess: Superposition of Atomic Densities via on-the-fly atomic UHF.

  ==> Iterations <==

                           Total Energy        Delta E     RMS |[F,P]|

   @DF-RHF iter SAD:  -344.86128790952216   -3.44861e+02   0.00000e+00 
   @DF-RHF iter   1:  -345.89427007737771   -1.03298e+00   1.77309e-03 DIIS
   @DF-RHF iter   2:  -346.13552984566923   -2.41260e-01   9.74552e-04 DIIS
   @DF-RHF iter   3:  -346.20500950131816   -6.94797e-02   1.78947e-04 DIIS
   @DF-RHF iter   4:  -346.20908217293578   -4.07267e-03   8.70794e-05 DIIS
   @DF-RHF iter   5:  -346.20990076512516   -8.18592e-04   1.70744e-05 DIIS
   @DF-RHF iter   6:  -346.20995409260041   -5.33275e-05   7.85383e-06 DIIS
   @DF-RHF iter   7:  -346.20996454278122   -1.04502e-05   2.77008e-06 DIIS
   @DF-RHF iter   8:  -346.20996662273586   -2.07995e-06   1.15333e-06 DIIS
   @DF-RHF iter   9:  -346.20996698643472   -3.63699e-07   3.19639e-07 DIIS
   @DF-RHF iter  10:  -346.20996701448121   -2.80465e-08   7.56037e-08 DIIS
   @DF-RHF iter  11:  -346.20996701590525   -1.42404e-09   2.17566e-08 DIIS
   @DF-RHF iter  12:  -346.20996701599586   -9.06084e-11   5.43075e-09 DIIS
  Energy and wave function converged.


  ==> Post-Iterations <==

    Orbital Energies [Eh]
    ---------------------

    Doubly Occupied:                                                      

       1A    -20.616892     2A    -20.553885     3A    -11.393027  
       4A    -11.246731     5A    -11.215051     6A    -11.205216  
       7A    -11.203275     8A     -1.467288     9A     -1.363582  
      10A     -1.052597    11A     -1.031947    12A     -0.922075  
      13A     -0.824543    14A     -0.798402    15A     -0.709470  
      16A     -0.682896    17A     -0.659299    18A     -0.617821  
      19A     -0.597198    20A     -0.587215    21A     -0.576860  
      22A     -0.564924    23A     -0.546496    24A     -0.526580  
      25A     -0.490194    26A     -0.473561    27A     -0.472812  
      28A     -0.463142    29A     -0.458494  

    Virtual:                                                              

      30A      0.045742    31A      0.053786    32A      0.061223  
      33A      0.061920    34A      0.071482    35A      0.083819  
      36A      0.089731    37A      0.095859    38A      0.099007  
      39A      0.110726    40A      0.114999    41A      0.119762  
      42A      0.127151    43A      0.134935    44A      0.141583  
      45A      0.148842    46A      0.162895    47A      0.177686  
      48A      0.180195    49A      0.192720    50A      0.202404  
      51A      0.208640    52A      0.212921    53A      0.226581  
      54A      0.243327    55A      0.261250    56A      0.263468  
      57A      0.270044    58A      0.272561    59A      0.277532  
      60A      0.282391    61A      0.293077    62A      0.296300  
      63A      0.309782    64A      0.312388    65A      0.318130  
      66A      0.321070    67A      0.332869    68A      0.334764  
      69A      0.344075    70A      0.345469    71A      0.348242  
      72A      0.359032    73A      0.363142    74A      0.370762  
      75A      0.381475    76A      0.393839    77A      0.396919  
      78A      0.411409    79A      0.418820    80A      0.424475  
      81A      0.430204    82A      0.445746    83A      0.446062  
      84A      0.454555    85A      0.472615    86A      0.485043  
      87A      0.500786    88A      0.507980    89A      0.514302  
      90A      0.522668    91A      0.529946    92A      0.535320  
      93A      0.541782    94A      0.551214    95A      0.561898  
      96A      0.575091    97A      0.592419    98A      0.596164  
      99A      0.604846   100A      0.625207   101A      0.650761  
     102A      0.658804   103A      0.675212   104A      0.687499  
     105A      0.692873   106A      0.697189   107A      0.700371  
     108A      0.721815   109A      0.729269   110A      0.742361  
     111A      0.762748   112A      0.765981   113A      0.773505  
     114A      0.780350   115A      0.792476   116A      0.799041  
     117A      0.804474   118A      0.809290   119A      0.813471  
     120A      0.824916   121A      0.832333   122A      0.838353  
     123A      0.852248   124A      0.859746   125A      0.876322  
     126A      0.886559   127A      0.895544   128A      0.900211  
     129A      0.912481   130A      0.918171   131A      0.933053  
     132A      0.937790   133A      0.953018   134A      0.977416  
     135A      0.991375   136A      0.998405   137A      1.001056  
     138A      1.017716   139A      1.021772   140A      1.041080  
     141A      1.045119   142A      1.063669   143A      1.117927  
     144A      1.125604   145A      1.146094   146A      1.158776  
     147A      1.169782   148A      1.177904   149A      1.195087  
     150A      1.203358   151A      1.216318   152A      1.233036  
     153A      1.256507   154A      1.262183   155A      1.268932  
     156A      1.290236   157A      1.311702   158A      1.318086  
     159A      1.338658   160A      1.351667   161A      1.363422  
     162A      1.369118   163A      1.384690   164A      1.395100  
     165A      1.403371   166A      1.406686   167A      1.414572  
     168A      1.429090   169A      1.454214   170A      1.466067  
     171A      1.486965   172A      1.493980   173A      1.505914  
     174A      1.514424   175A      1.526128   176A      1.540938  
     177A      1.548476   178A      1.561283   179A      1.569789  
     180A      1.580041   181A      1.585382   182A      1.591973  
     183A      1.611017   184A      1.623262   185A      1.630771  
     186A      1.653452   187A      1.660147   188A      1.677415  
     189A      1.683385   190A      1.696976   191A      1.704533  
     192A      1.713021   193A      1.732113   194A      1.747512  
     195A      1.757682   196A      1.773458   197A      1.793365  
     198A      1.819895   199A      1.842733   200A      1.858498  
     201A      1.871331   202A      1.893236   203A      1.942335  
     204A      1.949373   205A      1.959144   206A      1.967561  
     207A      1.986627   208A      1.997621   209A      2.082251  
     210A      2.207234   211A      2.219613   212A      2.294708  
     213A      2.313611   214A      2.377500   215A      2.430579  
     216A      2.439923   217A      2.478610   218A      2.568362  
     219A      2.585773   220A      2.707975   221A      2.715990  
     222A      2.748612   223A      2.768190   224A      2.788824  
     225A      2.803017   226A      2.828945   227A      2.832526  
     228A      2.873703   229A      2.893443   230A      2.902215  
     231A      2.923428   232A      2.931187   233A      2.941468  
     234A      2.961996   235A      2.988309   236A      2.996469  
     237A      3.010231   238A      3.038923   239A      3.050998  
     240A      3.086129   241A      3.104389   242A      3.118037  
     243A      3.137131   244A      3.147830   245A      3.161526  
     246A      3.178742   247A      3.194079   248A      3.212697  
     249A      3.227006   250A      3.236759   251A      3.257810  
     252A      3.270572   253A      3.295815   254A      3.312803  
     255A      3.328108   256A      3.351779   257A      3.367767  
     258A      3.372681   259A      3.387683   260A      3.390979  
     261A      3.401338   262A      3.421054   263A      3.429462  
     264A      3.443232   265A      3.443763   266A      3.461430  
     267A      3.474207   268A      3.483221   269A      3.495312  
     270A      3.500933   271A      3.509205   272A      3.516926  
     273A      3.538900   274A      3.542198   275A      3.554623  
     276A      3.569026   277A      3.595501   278A      3.618726  
     279A      3.623956   280A      3.649116   281A      3.666259  
     282A      3.672347   283A      3.685819   284A      3.686908  
     285A      3.719331   286A      3.731778   287A      3.742102  
     288A      3.756960   289A      3.767259   290A      3.775404  
     291A      3.777275   292A      3.797147   293A      3.813213  
     294A      3.823015   295A      3.831765   296A      3.845434  
     297A      3.853404   298A      3.876768   299A      3.896997  
     300A      3.917146   301A      3.934639   302A      3.956144  
     303A      3.962869   304A      3.988232   305A      3.993549  
     306A      4.008580   307A      4.033149   308A      4.103748  
     309A      4.118035   310A      4.126858   311A      4.155775  
     312A      4.180501   313A      4.202420   314A      4.212444  
     315A      4.214244   316A      4.225240   317A      4.241398  
     318A      4.256639   319A      4.269592   320A      4.296482  
     321A      4.313852   322A      4.314197   323A      4.325349  
     324A      4.336470   325A      4.346506   326A      4.360023  
     327A      4.372162   328A      4.377437   329A      4.408684  
     330A      4.414828   331A      4.419298   332A      4.438646  
     333A      4.458307   334A      4.467860   335A      4.493517  
     336A      4.503615   337A      4.519584   338A      4.523288  
     339A      4.527443   340A      4.544554   341A      4.557037  
     342A      4.572996   343A      4.587051   344A      4.621224  
     345A      4.635247   346A      4.655346   347A      4.668551  
     348A      4.701051   349A      4.712187   350A      4.735736  
     351A      4.754053   352A      4.795390   353A      4.813505  
     354A      4.819796   355A      4.838353   356A      4.843407  
     357A      4.867968   358A      4.875968   359A      4.897066  
     360A      4.979311   361A      4.991447   362A      5.017381  
     363A      5.044721   364A      5.051556   365A      5.136499  
     366A      5.164350   367A      5.180090   368A      5.185445  
     369A      5.204375   370A      5.266367   371A      5.282146  
     372A      5.288145   373A      5.296141   374A      5.311023  
     375A      5.340261   376A      5.377581   377A      5.396888  
     378A      5.431285   379A      5.456257   380A      5.480978  
     381A      5.515314   382A      5.517024   383A      5.523313  
     384A      5.564680   385A      5.588076   386A      5.608387  
     387A      5.641542   388A      5.647838   389A      5.662561  
     390A      5.695608   391A      5.722334   392A      5.735661  
     393A      5.750020   394A      5.772701   395A      5.782782  
     396A      5.800502   397A      5.814566   398A      5.821618  
     399A      5.854839   400A      5.886132   401A      5.903534  
     402A      5.926732   403A      5.933245   404A      5.958714  
     405A      5.988061   406A      6.068960   407A      6.107637  
     408A      6.114039   409A      6.289442   410A      6.435350  
     411A      6.441889   412A      6.467674   413A      6.485741  
     414A      6.531033   415A      6.538901   416A      6.559505  
     417A      6.599358   418A      6.687555   419A      6.798423  
     420A      6.995519   421A      7.008782   422A      7.078300  
     423A      7.181943   424A      7.273609   425A      7.296233  
     426A      7.344118   427A      7.360680   428A      7.380776  
     429A      7.478830   430A      7.608637   431A      7.728535  
     432A      7.799521   433A      7.953218   434A      8.132787  
     435A     12.168142   436A     13.785210   437A     14.058150  
     438A     14.386655   439A     14.576200   440A     14.657145  
     441A     14.841997  

    Final Occupation by Irrep:
              A 
    DOCC [    29 ]

  @DF-RHF Final Energy:  -346.20996701599586

   => Energetics <=

    Nuclear Repulsion Energy =            317.1645057697774064
    One-Electron Energy =               -1100.1059961924440813
    Two-Electron Energy =                 436.7315234066708172
    Total Energy =                       -346.2099670159958578

Computation Completed


Properties will be evaluated at   0.000000,   0.000000,   0.000000 [a0]

Properties computed using the SCF density matrix

  Nuclear Dipole Moment: [e a0]
     X:    -8.7805      Y:     3.6051      Z:    -1.9299

  Electronic Dipole Moment: [e a0]
     X:     9.0240      Y:    -3.3978      Z:     1.2549

  Dipole Moment: [e a0]
     X:     0.2435      Y:     0.2072      Z:    -0.6751     Total:     0.7469

  Dipole Moment: [D]
     X:     0.6189      Y:     0.5268      Z:    -1.7158     Total:     1.8986


*** tstop() called on r282 at Fri Sep 10 19:59:24 2021
Module time:
	user time   =      43.89 seconds =       0.73 minutes
	system time =       1.04 seconds =       0.02 minutes
	total time  =         45 seconds =       0.75 minutes
Total time:
	user time   =      43.89 seconds =       0.73 minutes
	system time =       1.04 seconds =       0.02 minutes
	total time  =         45 seconds =       0.75 minutes

  //>>>>>>>>>>>>>>>>>>>>>>>>>>>>>>>>>>>//
  //            Monomer A HF           //
  //<<<<<<<<<<<<<<<<<<<<<<<<<<<<<<<<<<<//


*** tstart() called on r282
*** at Fri Sep 10 19:59:24 2021

   => Loading Basis Set <=

    Name: JUN-CC-PVTZ
    Role: ORBITAL
    Keyword: BASIS
    atoms 1, 5, 9-11    entry C          line   217 file /home/r08543048/miniconda3/share/psi4/basis/jun-cc-pvtz.gbs 
    atoms 2-3           entry O          line   305 file /home/r08543048/miniconda3/share/psi4/basis/jun-cc-pvtz.gbs 
    atoms 4, 6-8, 12-19 entry H          line    36 file /home/r08543048/miniconda3/share/psi4/basis/jun-cc-pvtz.gbs 


         ---------------------------------------------------------
                                   SCF
               by Justin Turney, Rob Parrish, Andy Simmonett
                          and Daniel G. A. Smith
                              RHF Reference
                        1 Threads,  20980 MiB Core
         ---------------------------------------------------------

  ==> Geometry <==

    Molecular point group: c1
    Full point group: C1

    Geometry (in Angstrom), charge = 0, multiplicity = 1:

       Center              X                  Y                   Z               Mass       
    ------------   -----------------  -----------------  -----------------  -----------------
         C            1.458190215258    -0.087497220029     0.172418952927    12.000000000000
         O            1.109780215258    -0.377170220029     1.295310952927    15.994914619570
         O            1.618743215258    -1.016920220029    -0.803241047073    15.994914619570
         H            1.394518215258    -1.868850220029    -0.396833047073     1.007825032230
         C            1.755686215258     1.289548779971    -0.334067047073    12.000000000000
         H            1.672245215258     2.000998779971     0.479443952927     1.007825032230
         H            2.755581215258     1.315154779971    -0.762451047073     1.007825032230
         H            1.049462215258     1.541340779971    -1.123685047073     1.007825032230
      Gh(C)          -2.192835784742    -1.152057220029     0.115314952927    12.000000000000
      Gh(C)          -1.955873784742     0.130792779971    -0.672666047073    12.000000000000
      Gh(C)          -1.914247784742     1.353839779971     0.236222952927    12.000000000000
      Gh(H)          -1.404909784742    -1.297491220029     0.855625952927     1.007825032230
      Gh(H)          -3.143996784742    -1.105851220029     0.647526952927     1.007825032230
      Gh(H)          -2.217511784742    -2.025467220029    -0.536602047073     1.007825032230
      Gh(H)          -2.742926784742     0.255314779971    -1.419512047073     1.007825032230
      Gh(H)          -1.019239784742     0.047625779971    -1.229132047073     1.007825032230
      Gh(H)          -1.727390784742     2.269538779971    -0.325520047073     1.007825032230
      Gh(H)          -2.863493784742     1.473052779971     0.760444952927     1.007825032230
      Gh(H)          -1.132465784742     1.247320779971     0.989520952927     1.007825032230

  Running in c1 symmetry.

  Rotational constants: A =      0.10628  B =      0.04465  C =      0.03937 [cm^-1]
  Rotational constants: A =   3186.05503  B =   1338.67732  C =   1180.42448 [MHz]
  Nuclear repulsion =  121.125030750415860

  Charge       = 0
  Multiplicity = 1
  Electrons    = 32
  Nalpha       = 16
  Nbeta        = 16

  ==> Algorithm <==

  SCF Algorithm Type is DF.
  DIIS enabled.
  MOM disabled.
  Fractional occupation disabled.
  Guess Type is SAD.
  Energy threshold   = 1.00e-08
  Density threshold  = 1.00e-08
  Integral threshold = 0.00e+00

  ==> Primary Basis <==

  Basis Set: JUN-CC-PVTZ
    Blend: JUN-CC-PVTZ
    Number of shells: 163
    Number of basis function: 441
    Number of Cartesian functions: 495
    Spherical Harmonics?: true
    Max angular momentum: 3

   => Loading Basis Set <=

    Name: (JUN-CC-PVTZ AUX)
    Role: JKFIT
    Keyword: DF_BASIS_SCF
    atoms 1, 5, 9-11    entry C          line   152 file /home/r08543048/miniconda3/share/psi4/basis/jun-cc-pvtz-jkfit.gbs 
    atoms 2-3           entry O          line   272 file /home/r08543048/miniconda3/share/psi4/basis/jun-cc-pvtz-jkfit.gbs 
    atoms 4, 6-8, 12-19 entry H          line    70 file /home/r08543048/miniconda3/share/psi4/basis/jun-cc-pvtz-jkfit.gbs 

  ==> Pre-Iterations <==

   -------------------------------------------------------
    Irrep   Nso     Nmo     Nalpha   Nbeta   Ndocc  Nsocc
   -------------------------------------------------------
     A        441     441       0       0       0       0
   -------------------------------------------------------
    Total     441     441      16      16      16       0
   -------------------------------------------------------

  ==> Integral Setup <==

  ==> DiskDFJK: Density-Fitted J/K Matrices <==

    J tasked:                  Yes
    K tasked:                  Yes
    wK tasked:                  No
    OpenMP threads:              1
    Integrals threads:           1
    Memory [MiB]:            15735
    Algorithm:                Core
    Integral Cache:           LOAD
    Schwarz Cutoff:          1E-12
    Fitting Condition:       1E-10

   => Auxiliary Basis Set <=

  Basis Set: (JUN-CC-PVTZ AUX)
    Blend: JUN-CC-PVTZ-JKFIT
    Number of shells: 323
    Number of basis function: 1025
    Number of Cartesian functions: 1232
    Spherical Harmonics?: true
    Max angular momentum: 4

  Minimum eigenvalue in the overlap matrix is 5.6713200756E-05.
  Using Symmetric Orthogonalization.

  SCF Guess: Superposition of Atomic Densities via on-the-fly atomic UHF.

  ==> Iterations <==

                           Total Energy        Delta E     RMS |[F,P]|

   @DF-RHF iter SAD:  -227.00592914280946   -2.27006e+02   0.00000e+00 
   @DF-RHF iter   1:  -227.74682271439480   -7.40894e-01   1.35556e-03 DIIS
   @DF-RHF iter   2:  -227.85981738998254   -1.12995e-01   8.29414e-04 DIIS
   @DF-RHF iter   3:  -227.90171114608245   -4.18938e-02   1.33995e-04 DIIS
   @DF-RHF iter   4:  -227.90390182039133   -2.19067e-03   6.12094e-05 DIIS
   @DF-RHF iter   5:  -227.90437606005662   -4.74240e-04   1.52009e-05 DIIS
   @DF-RHF iter   6:  -227.90441781907202   -4.17590e-05   7.34765e-06 DIIS
   @DF-RHF iter   7:  -227.90442847679100   -1.06577e-05   2.44187e-06 DIIS
   @DF-RHF iter   8:  -227.90443028444682   -1.80766e-06   6.46160e-07 DIIS
   @DF-RHF iter   9:  -227.90443042660425   -1.42157e-07   1.33823e-07 DIIS
   @DF-RHF iter  10:  -227.90443043158331   -4.97906e-09   3.68933e-08 DIIS
   @DF-RHF iter  11:  -227.90443043181844   -2.35133e-10   1.05421e-08 DIIS
   @DF-RHF iter  12:  -227.90443043184004   -2.16005e-11   2.91983e-09 DIIS
  Energy and wave function converged.


  ==> Post-Iterations <==

    Orbital Energies [Eh]
    ---------------------

    Doubly Occupied:                                                      

       1A    -20.616063     2A    -20.552865     3A    -11.391815  
       4A    -11.246904     5A     -1.465933     6A     -1.361923  
       7A     -1.031496     8A     -0.823657     9A     -0.707743  
      10A     -0.681725    11A     -0.652432    12A     -0.586317  
      13A     -0.576418    14A     -0.563811    15A     -0.485092  
      16A     -0.457313  

    Virtual:                                                              

      17A      0.032932    18A      0.045187    19A      0.053889  
      20A      0.057934    21A      0.067679    22A      0.081412  
      23A      0.087304    24A      0.093505    25A      0.094421  
      26A      0.107532    27A      0.111933    28A      0.113484  
      29A      0.120213    30A      0.125056    31A      0.139868  
      32A      0.143606    33A      0.145054    34A      0.153249  
      35A      0.165068    36A      0.172046    37A      0.188308  
      38A      0.199343    39A      0.207197    40A      0.225553  
      41A      0.231065    42A      0.239290    43A      0.249979  
      44A      0.262686    45A      0.263932    46A      0.272064  
      47A      0.279904    48A      0.283741    49A      0.294317  
      50A      0.299998    51A      0.306253    52A      0.313895  
      53A      0.321530    54A      0.329749    55A      0.331005  
      56A      0.337474    57A      0.349678    58A      0.354722  
      59A      0.363385    60A      0.368276    61A      0.380625  
      62A      0.385528    63A      0.397974    64A      0.404254  
      65A      0.405691    66A      0.419211    67A      0.432761  
      68A      0.445326    69A      0.455788    70A      0.466551  
      71A      0.478211    72A      0.482495    73A      0.490538  
      74A      0.504764    75A      0.512178    76A      0.520165  
      77A      0.527285    78A      0.540575    79A      0.547556  
      80A      0.548925    81A      0.563380    82A      0.571298  
      83A      0.573808    84A      0.582419    85A      0.599876  
      86A      0.602509    87A      0.616348    88A      0.626460  
      89A      0.628761    90A      0.638274    91A      0.652832  
      92A      0.663967    93A      0.667582    94A      0.688012  
      95A      0.695127    96A      0.703141    97A      0.709739  
      98A      0.720193    99A      0.747435   100A      0.756903  
     101A      0.770521   102A      0.776034   103A      0.789550  
     104A      0.797152   105A      0.809303   106A      0.818831  
     107A      0.835197   108A      0.870155   109A      0.885056  
     110A      0.895397   111A      0.909943   112A      0.919464  
     113A      0.947499   114A      0.958270   115A      0.974294  
     116A      0.992896   117A      1.002457   118A      1.031836  
     119A      1.054403   120A      1.062851   121A      1.088296  
     122A      1.104350   123A      1.108221   124A      1.110409  
     125A      1.119105   126A      1.142768   127A      1.151699  
     128A      1.160270   129A      1.164888   130A      1.177593  
     131A      1.189847   132A      1.214470   133A      1.234075  
     134A      1.241934   135A      1.246847   136A      1.249054  
     137A      1.265155   138A      1.269529   139A      1.275614  
     140A      1.288206   141A      1.299371   142A      1.308736  
     143A      1.315977   144A      1.330841   145A      1.335768  
     146A      1.347219   147A      1.361681   148A      1.366313  
     149A      1.372909   150A      1.392609   151A      1.408007  
     152A      1.422826   153A      1.432501   154A      1.437554  
     155A      1.451264   156A      1.459303   157A      1.478985  
     158A      1.490660   159A      1.495552   160A      1.498302  
     161A      1.522427   162A      1.531185   163A      1.547409  
     164A      1.562244   165A      1.568322   166A      1.581538  
     167A      1.592702   168A      1.610073   169A      1.615768  
     170A      1.625777   171A      1.633398   172A      1.639637  
     173A      1.665453   174A      1.684302   175A      1.688351  
     176A      1.712190   177A      1.716786   178A      1.738714  
     179A      1.748562   180A      1.763265   181A      1.773650  
     182A      1.798259   183A      1.800168   184A      1.836487  
     185A      1.870492   186A      1.884046   187A      1.889548  
     188A      1.919536   189A      1.945691   190A      1.960799  
     191A      2.030770   192A      2.039542   193A      2.087855  
     194A      2.121560   195A      2.152512   196A      2.180938  
     197A      2.183958   198A      2.222525   199A      2.234700  
     200A      2.303416   201A      2.323164   202A      2.346042  
     203A      2.362098   204A      2.382970   205A      2.403375  
     206A      2.427359   207A      2.451457   208A      2.454902  
     209A      2.474037   210A      2.502807   211A      2.508407  
     212A      2.554366   213A      2.583840   214A      2.602860  
     215A      2.609492   216A      2.615771   217A      2.733577  
     218A      2.768960   219A      2.837636   220A      2.859943  
     221A      2.911444   222A      2.978815   223A      3.003839  
     224A      3.014065   225A      3.091968   226A      3.129223  
     227A      3.174731   228A      3.226153   229A      3.235092  
     230A      3.284005   231A      3.353976   232A      3.395854  
     233A      3.405608   234A      3.424632   235A      3.441238  
     236A      3.468135   237A      3.489468   238A      3.511850  
     239A      3.527222   240A      3.532991   241A      3.545344  
     242A      3.562546   243A      3.578525   244A      3.592007  
     245A      3.602039   246A      3.611708   247A      3.632295  
     248A      3.636805   249A      3.645816   250A      3.659806  
     251A      3.672328   252A      3.698589   253A      3.719434  
     254A      3.729168   255A      3.738671   256A      3.740999  
     257A      3.766073   258A      3.771892   259A      3.777413  
     260A      3.793152   261A      3.802772   262A      3.826744  
     263A      3.838650   264A      3.844661   265A      3.872150  
     266A      3.891806   267A      3.902735   268A      3.916309  
     269A      3.926396   270A      3.928524   271A      3.948577  
     272A      3.974003   273A      3.983738   274A      4.020539  
     275A      4.071225   276A      4.090520   277A      4.115759  
     278A      4.124803   279A      4.135451   280A      4.147637  
     281A      4.174233   282A      4.186816   283A      4.189804  
     284A      4.220879   285A      4.225066   286A      4.236952  
     287A      4.258737   288A      4.292205   289A      4.314411  
     290A      4.326627   291A      4.335808   292A      4.370693  
     293A      4.378610   294A      4.385543   295A      4.399115  
     296A      4.413964   297A      4.424970   298A      4.448534  
     299A      4.454586   300A      4.485064   301A      4.493333  
     302A      4.502722   303A      4.520633   304A      4.522205  
     305A      4.537674   306A      4.551022   307A      4.558356  
     308A      4.597778   309A      4.600364   310A      4.625377  
     311A      4.630917   312A      4.643159   313A      4.655647  
     314A      4.681227   315A      4.694126   316A      4.707836  
     317A      4.724926   318A      4.727647   319A      4.752619  
     320A      4.762237   321A      4.785872   322A      4.795720  
     323A      4.809380   324A      4.818015   325A      4.825282  
     326A      4.832370   327A      4.839963   328A      4.850181  
     329A      4.857758   330A      4.871425   331A      4.899975  
     332A      4.911112   333A      4.918533   334A      4.942608  
     335A      4.950907   336A      4.960564   337A      4.976628  
     338A      4.985274   339A      4.989711   340A      5.006034  
     341A      5.031330   342A      5.043285   343A      5.064298  
     344A      5.080573   345A      5.089178   346A      5.131172  
     347A      5.140073   348A      5.163685   349A      5.175641  
     350A      5.189977   351A      5.212394   352A      5.235673  
     353A      5.290127   354A      5.310881   355A      5.370484  
     356A      5.394500   357A      5.401101   358A      5.460888  
     359A      5.478360   360A      5.515083   361A      5.522595  
     362A      5.564585   363A      5.596144   364A      5.609853  
     365A      5.624062   366A      5.626384   367A      5.639160  
     368A      5.648911   369A      5.653097   370A      5.669084  
     371A      5.700734   372A      5.733161   373A      5.833813  
     374A      5.854263   375A      5.886792   376A      5.905101  
     377A      5.911163   378A      5.965901   379A      6.022991  
     380A      6.053303   381A      6.071341   382A      6.108806  
     383A      6.187747   384A      6.200011   385A      6.256821  
     386A      6.289728   387A      6.343081   388A      6.348001  
     389A      6.379535   390A      6.425046   391A      6.438571  
     392A      6.442229   393A      6.444930   394A      6.476109  
     395A      6.500249   396A      6.508038   397A      6.615542  
     398A      6.687713   399A      6.764578   400A      6.798539  
     401A      6.900422   402A      6.983574   403A      6.998587  
     404A      7.010369   405A      7.079769   406A      7.182396  
     407A      7.274470   408A      7.294964   409A      7.301612  
     410A      7.343214   411A      7.361706   412A      7.381520  
     413A      7.468362   414A      7.503738   415A      7.566422  
     416A      7.590837   417A      7.604728   418A      7.647661  
     419A      7.692067   420A      7.699870   421A      7.732207  
     422A      7.798616   423A      7.807569   424A      7.834142  
     425A      7.864133   426A      7.910437   427A      7.954660  
     428A      8.054955   429A      8.133008   430A      8.228437  
     431A      8.493412   432A      9.568882   433A      9.898228  
     434A      9.914165   435A     12.176058   436A     14.017346  
     437A     14.485981   438A     14.818342   439A     44.272825  
     440A     45.370734   441A     45.801688  

    Final Occupation by Irrep:
              A 
    DOCC [    16 ]

  @DF-RHF Final Energy:  -227.90443043184004

   => Energetics <=

    Nuclear Repulsion Energy =            121.1250307504158599
    One-Electron Energy =                -551.6559099509487396
    Two-Electron Energy =                 202.6264487686928248
    Total Energy =                       -227.9044304318400407

Computation Completed


Properties will be evaluated at   0.000000,   0.000000,   0.000000 [a0]

Properties computed using the SCF density matrix

  Nuclear Dipole Moment: [e a0]
     X:    90.6752      Y:    -1.7986      Z:     2.1980

  Electronic Dipole Moment: [e a0]
     X:   -90.4544      Y:     2.0269      Z:    -2.9282

  Dipole Moment: [e a0]
     X:     0.2209      Y:     0.2283      Z:    -0.7302     Total:     0.7963

  Dipole Moment: [D]
     X:     0.5613      Y:     0.5802      Z:    -1.8560     Total:     2.0240


*** tstop() called on r282 at Fri Sep 10 19:59:51 2021
Module time:
	user time   =      26.38 seconds =       0.44 minutes
	system time =       0.51 seconds =       0.01 minutes
	total time  =         27 seconds =       0.45 minutes
Total time:
	user time   =      70.27 seconds =       1.17 minutes
	system time =       1.55 seconds =       0.03 minutes
	total time  =         72 seconds =       1.20 minutes

  //>>>>>>>>>>>>>>>>>>>>>>>>>>>>>>>>>>>//
  //            Monomer B HF           //
  //<<<<<<<<<<<<<<<<<<<<<<<<<<<<<<<<<<<//


*** tstart() called on r282
*** at Fri Sep 10 19:59:51 2021

   => Loading Basis Set <=

    Name: JUN-CC-PVTZ
    Role: ORBITAL
    Keyword: BASIS
    atoms 1, 5, 9-11    entry C          line   217 file /home/r08543048/miniconda3/share/psi4/basis/jun-cc-pvtz.gbs 
    atoms 2-3           entry O          line   305 file /home/r08543048/miniconda3/share/psi4/basis/jun-cc-pvtz.gbs 
    atoms 4, 6-8, 12-19 entry H          line    36 file /home/r08543048/miniconda3/share/psi4/basis/jun-cc-pvtz.gbs 


         ---------------------------------------------------------
                                   SCF
               by Justin Turney, Rob Parrish, Andy Simmonett
                          and Daniel G. A. Smith
                              RHF Reference
                        1 Threads,  20980 MiB Core
         ---------------------------------------------------------

  ==> Geometry <==

    Molecular point group: c1
    Full point group: C1

    Geometry (in Angstrom), charge = 0, multiplicity = 1:

       Center              X                  Y                   Z               Mass       
    ------------   -----------------  -----------------  -----------------  -----------------
      Gh(C)           1.458190215258    -0.087497220029     0.172418952927    12.000000000000
      Gh(O)           1.109780215258    -0.377170220029     1.295310952927    15.994914619570
      Gh(O)           1.618743215258    -1.016920220029    -0.803241047073    15.994914619570
      Gh(H)           1.394518215258    -1.868850220029    -0.396833047073     1.007825032230
      Gh(C)           1.755686215258     1.289548779971    -0.334067047073    12.000000000000
      Gh(H)           1.672245215258     2.000998779971     0.479443952927     1.007825032230
      Gh(H)           2.755581215258     1.315154779971    -0.762451047073     1.007825032230
      Gh(H)           1.049462215258     1.541340779971    -1.123685047073     1.007825032230
         C           -2.192835784742    -1.152057220029     0.115314952927    12.000000000000
         C           -1.955873784742     0.130792779971    -0.672666047073    12.000000000000
         C           -1.914247784742     1.353839779971     0.236222952927    12.000000000000
         H           -1.404909784742    -1.297491220029     0.855625952927     1.007825032230
         H           -3.143996784742    -1.105851220029     0.647526952927     1.007825032230
         H           -2.217511784742    -2.025467220029    -0.536602047073     1.007825032230
         H           -2.742926784742     0.255314779971    -1.419512047073     1.007825032230
         H           -1.019239784742     0.047625779971    -1.229132047073     1.007825032230
         H           -1.727390784742     2.269538779971    -0.325520047073     1.007825032230
         H           -2.863493784742     1.473052779971     0.760444952927     1.007825032230
         H           -1.132465784742     1.247320779971     0.989520952927     1.007825032230

  Running in c1 symmetry.

  Rotational constants: A =      0.10628  B =      0.04465  C =      0.03937 [cm^-1]
  Rotational constants: A =   3186.05503  B =   1338.67732  C =   1180.42448 [MHz]
  Nuclear repulsion =   82.822004825546102

  Charge       = 0
  Multiplicity = 1
  Electrons    = 26
  Nalpha       = 13
  Nbeta        = 13

  ==> Algorithm <==

  SCF Algorithm Type is DF.
  DIIS enabled.
  MOM disabled.
  Fractional occupation disabled.
  Guess Type is SAD.
  Energy threshold   = 1.00e-08
  Density threshold  = 1.00e-08
  Integral threshold = 0.00e+00

  ==> Primary Basis <==

  Basis Set: JUN-CC-PVTZ
    Blend: JUN-CC-PVTZ
    Number of shells: 163
    Number of basis function: 441
    Number of Cartesian functions: 495
    Spherical Harmonics?: true
    Max angular momentum: 3

   => Loading Basis Set <=

    Name: (JUN-CC-PVTZ AUX)
    Role: JKFIT
    Keyword: DF_BASIS_SCF
    atoms 1, 5, 9-11    entry C          line   152 file /home/r08543048/miniconda3/share/psi4/basis/jun-cc-pvtz-jkfit.gbs 
    atoms 2-3           entry O          line   272 file /home/r08543048/miniconda3/share/psi4/basis/jun-cc-pvtz-jkfit.gbs 
    atoms 4, 6-8, 12-19 entry H          line    70 file /home/r08543048/miniconda3/share/psi4/basis/jun-cc-pvtz-jkfit.gbs 

  ==> Pre-Iterations <==

   -------------------------------------------------------
    Irrep   Nso     Nmo     Nalpha   Nbeta   Ndocc  Nsocc
   -------------------------------------------------------
     A        441     441       0       0       0       0
   -------------------------------------------------------
    Total     441     441      13      13      13       0
   -------------------------------------------------------

  ==> Integral Setup <==

  ==> DiskDFJK: Density-Fitted J/K Matrices <==

    J tasked:                  Yes
    K tasked:                  Yes
    wK tasked:                  No
    OpenMP threads:              1
    Integrals threads:           1
    Memory [MiB]:            15735
    Algorithm:                Core
    Integral Cache:           LOAD
    Schwarz Cutoff:          1E-12
    Fitting Condition:       1E-10

   => Auxiliary Basis Set <=

  Basis Set: (JUN-CC-PVTZ AUX)
    Blend: JUN-CC-PVTZ-JKFIT
    Number of shells: 323
    Number of basis function: 1025
    Number of Cartesian functions: 1232
    Spherical Harmonics?: true
    Max angular momentum: 4

  Minimum eigenvalue in the overlap matrix is 5.6713200756E-05.
  Using Symmetric Orthogonalization.

  SCF Guess: Superposition of Atomic Densities via on-the-fly atomic UHF.

  ==> Iterations <==

                           Total Energy        Delta E     RMS |[F,P]|

   @DF-RHF iter SAD:  -117.72507076924079   -1.17725e+02   0.00000e+00 
   @DF-RHF iter   1:  -118.14642910788289   -4.21358e-01   1.16821e-03 DIIS
   @DF-RHF iter   2:  -118.27571992969142   -1.29291e-01   5.52721e-04 DIIS
   @DF-RHF iter   3:  -118.30612207225083   -3.04021e-02   9.29083e-05 DIIS
   @DF-RHF iter   4:  -118.30797353144260   -1.85146e-03   1.83394e-05 DIIS
   @DF-RHF iter   5:  -118.30803191911622   -5.83877e-05   5.15842e-06 DIIS
   @DF-RHF iter   6:  -118.30803654836458   -4.62925e-06   9.26930e-07 DIIS
   @DF-RHF iter   7:  -118.30803672049348   -1.72129e-07   1.74860e-07 DIIS
   @DF-RHF iter   8:  -118.30803672803765   -7.54417e-09   3.07457e-08 DIIS
   @DF-RHF iter   9:  -118.30803672827669   -2.39041e-10   6.07315e-09 DIIS
  Energy and wave function converged.


  ==> Post-Iterations <==

    Orbital Energies [Eh]
    ---------------------

    Doubly Occupied:                                                      

       1A    -11.215643     2A    -11.207999     3A    -11.207869  
       4A     -1.053968     5A     -0.924530     6A     -0.799830  
       7A     -0.624507     8A     -0.598506     9A     -0.549241  
      10A     -0.530123    11A     -0.476058    12A     -0.474535  
      13A     -0.467782  

    Virtual:                                                              

      14A      0.036088    15A      0.049512    16A      0.055737  
      17A      0.058697    18A      0.069858    19A      0.080251  
      20A      0.086079    21A      0.090646    22A      0.094117  
      23A      0.108270    24A      0.113590    25A      0.116085  
      26A      0.118231    27A      0.127942    28A      0.136731  
      29A      0.148626    30A      0.155592    31A      0.164403  
      32A      0.169469    33A      0.186163    34A      0.195709  
      35A      0.200634    36A      0.215980    37A      0.217245  
      38A      0.225948    39A      0.236071    40A      0.251381  
      41A      0.262477    42A      0.266010    43A      0.275107  
      44A      0.283660    45A      0.295114    46A      0.301441  
      47A      0.314267    48A      0.318239    49A      0.322591  
      50A      0.329272    51A      0.341071    52A      0.343666  
      53A      0.344894    54A      0.351716    55A      0.357246  
      56A      0.364980    57A      0.372361    58A      0.379813  
      59A      0.382259    60A      0.394597    61A      0.397682  
      62A      0.409413    63A      0.419283    64A      0.425222  
      65A      0.430170    66A      0.447342    67A      0.451818  
      68A      0.471779    69A      0.475519    70A      0.477642  
      71A      0.500423    72A      0.504063    73A      0.511974  
      74A      0.515243    75A      0.526205    76A      0.540099  
      77A      0.547865    78A      0.552464    79A      0.556461  
      80A      0.568402    81A      0.589377    82A      0.592943  
      83A      0.601340    84A      0.623778    85A      0.630588  
      86A      0.648885    87A      0.654325    88A      0.666129  
      89A      0.683960    90A      0.695999    91A      0.722840  
      92A      0.736026    93A      0.766100    94A      0.769153  
      95A      0.777027    96A      0.785470    97A      0.794596  
      98A      0.799952    99A      0.805994   100A      0.816312  
     101A      0.826666   102A      0.838417   103A      0.839531  
     104A      0.858702   105A      0.870319   106A      0.881237  
     107A      0.886041   108A      0.896710   109A      0.911171  
     110A      0.913955   111A      0.924466   112A      0.945183  
     113A      0.957204   114A      0.968800   115A      0.973766  
     116A      0.981412   117A      0.997939   118A      1.001634  
     119A      1.007998   120A      1.027612   121A      1.040169  
     122A      1.063932   123A      1.072452   124A      1.093214  
     125A      1.106753   126A      1.120008   127A      1.139164  
     128A      1.149604   129A      1.152909   130A      1.160617  
     131A      1.191831   132A      1.198855   133A      1.213340  
     134A      1.228970   135A      1.237238   136A      1.249298  
     137A      1.282404   138A      1.296065   139A      1.309306  
     140A      1.316121   141A      1.322979   142A      1.337171  
     143A      1.347384   144A      1.362494   145A      1.375078  
     146A      1.390172   147A      1.397586   148A      1.409856  
     149A      1.426694   150A      1.434355   151A      1.453884  
     152A      1.473081   153A      1.482310   154A      1.484579  
     155A      1.495600   156A      1.502839   157A      1.519199  
     158A      1.533675   159A      1.554517   160A      1.569265  
     161A      1.572817   162A      1.593227   163A      1.600750  
     164A      1.603573   165A      1.621776   166A      1.633769  
     167A      1.641642   168A      1.648325   169A      1.664720  
     170A      1.682570   171A      1.692778   172A      1.699897  
     173A      1.730061   174A      1.736682   175A      1.778245  
     176A      1.786310   177A      1.800016   178A      1.823119  
     179A      1.841698   180A      1.849138   181A      1.866242  
     182A      1.880946   183A      1.891835   184A      1.925213  
     185A      1.931478   186A      1.945999   187A      1.962926  
     188A      1.966448   189A      1.983254   190A      1.998324  
     191A      2.062117   192A      2.089249   193A      2.104907  
     194A      2.123617   195A      2.171070   196A      2.367305  
     197A      2.389074   198A      2.439781   199A      2.524510  
     200A      2.595982   201A      2.639066   202A      2.696732  
     203A      2.721466   204A      2.747887   205A      2.759197  
     206A      2.776653   207A      2.797865   208A      2.814096  
     209A      2.836106   210A      2.849594   211A      2.854454  
     212A      2.887243   213A      2.911277   214A      2.919623  
     215A      2.934072   216A      2.942990   217A      2.963842  
     218A      2.980801   219A      3.010509   220A      3.018484  
     221A      3.033153   222A      3.066938   223A      3.084410  
     224A      3.105471   225A      3.110707   226A      3.133315  
     227A      3.144478   228A      3.183761   229A      3.192654  
     230A      3.221751   231A      3.233516   232A      3.264251  
     233A      3.285891   234A      3.317707   235A      3.330526  
     236A      3.342173   237A      3.361626   238A      3.372456  
     239A      3.383817   240A      3.389028   241A      3.401163  
     242A      3.431089   243A      3.449745   244A      3.487043  
     245A      3.492568   246A      3.499929   247A      3.511335  
     248A      3.530514   249A      3.539817   250A      3.545621  
     251A      3.555046   252A      3.591341   253A      3.595791  
     254A      3.616042   255A      3.624305   256A      3.635850  
     257A      3.663935   258A      3.671422   259A      3.701377  
     260A      3.722131   261A      3.727347   262A      3.762679  
     263A      3.767708   264A      3.779414   265A      3.802621  
     266A      3.819450   267A      3.842097   268A      3.844327  
     269A      3.870386   270A      3.874712   271A      3.912625  
     272A      3.922813   273A      3.931187   274A      3.948269  
     275A      3.960767   276A      3.967756   277A      3.975024  
     278A      3.978119   279A      3.991540   280A      4.054654  
     281A      4.105406   282A      4.107065   283A      4.122155  
     284A      4.168237   285A      4.202409   286A      4.214875  
     287A      4.222145   288A      4.230500   289A      4.248147  
     290A      4.260081   291A      4.279785   292A      4.306971  
     293A      4.308927   294A      4.334132   295A      4.338687  
     296A      4.349939   297A      4.355447   298A      4.373584  
     299A      4.375677   300A      4.408077   301A      4.411497  
     302A      4.430101   303A      4.431500   304A      4.436734  
     305A      4.476994   306A      4.494718   307A      4.509340  
     308A      4.524169   309A      4.532445   310A      4.541606  
     311A      4.550871   312A      4.574320   313A      4.587424  
     314A      4.609438   315A      4.629191   316A      4.638347  
     317A      4.656265   318A      4.664721   319A      4.676844  
     320A      4.694474   321A      4.698252   322A      4.732093  
     323A      4.752540   324A      4.769619   325A      4.777338  
     326A      4.795709   327A      4.821882   328A      4.825149  
     329A      4.826560   330A      4.841429   331A      4.875303  
     332A      4.887611   333A      4.905228   334A      4.922913  
     335A      4.931330   336A      4.944189   337A      4.964750  
     338A      4.977244   339A      5.002048   340A      5.007829  
     341A      5.016700   342A      5.052155   343A      5.068473  
     344A      5.091465   345A      5.129216   346A      5.147254  
     347A      5.182963   348A      5.200154   349A      5.212448  
     350A      5.250699   351A      5.270209   352A      5.279558  
     353A      5.284848   354A      5.300720   355A      5.337434  
     356A      5.353263   357A      5.394786   358A      5.428065  
     359A      5.433366   360A      5.480072   361A      5.518456  
     362A      5.558814   363A      5.586377   364A      5.606868  
     365A      5.655569   366A      5.722726   367A      5.727805  
     368A      5.748998   369A      5.770743   370A      5.779574  
     371A      5.792959   372A      5.809997   373A      5.821762  
     374A      5.922775   375A      5.929463   376A      5.954408  
     377A      5.976535   378A      6.016877   379A      6.021571  
     380A      6.073803   381A      6.113730   382A      6.150008  
     383A      6.166244   384A      6.280524   385A      6.307935  
     386A      6.346506   387A      6.459528   388A      6.468868  
     389A      6.475656   390A      6.528527   391A      6.541467  
     392A      6.554880   393A      6.573465   394A      6.615868  
     395A      6.635150   396A      6.737585   397A      6.821220  
     398A      7.050622   399A      7.144388   400A      7.181211  
     401A      7.264121   402A      7.483032   403A      7.484720  
     404A      7.586184   405A      7.675124   406A      7.828720  
     407A      7.838640   408A      7.878241   409A      7.930824  
     410A      8.052313   411A      8.091759   412A      8.268895  
     413A      8.590506   414A      8.800754   415A      9.186872  
     416A      9.560330   417A      9.734788   418A      9.797282  
     419A      9.864746   420A      9.893030   421A      9.930787  
     422A      9.941804   423A      9.954492   424A     10.020217  
     425A     10.258648   426A     10.440850   427A     11.131630  
     428A     11.473078   429A     11.659442   430A     11.721464  
     431A     11.974539   432A     13.000155   433A     13.624381  
     434A     13.838110   435A     13.914737   436A     14.476655  
     437A     14.670202   438A     42.600538   439A     46.202281  
     440A     61.544825   441A     61.874585  

    Final Occupation by Irrep:
              A 
    DOCC [    13 ]

  @DF-RHF Final Energy:  -118.30803672827669

   => Energetics <=

    Nuclear Repulsion Energy =             82.8220048255461023
    One-Electron Energy =                -321.9989006833565099
    Two-Electron Energy =                 120.8688591295337034
    Total Energy =                       -118.3080367282766900

Computation Completed


Properties will be evaluated at   0.000000,   0.000000,   0.000000 [a0]

Properties computed using the SCF density matrix

  Nuclear Dipole Moment: [e a0]
     X:   -99.4557      Y:     5.4037      Z:    -4.1279

  Electronic Dipole Moment: [e a0]
     X:    99.4573      Y:    -5.4023      Z:     4.0952

  Dipole Moment: [e a0]
     X:     0.0016      Y:     0.0013      Z:    -0.0327     Total:     0.0328

  Dipole Moment: [D]
     X:     0.0042      Y:     0.0034      Z:    -0.0831     Total:     0.0833


*** tstop() called on r282 at Fri Sep 10 20:00:11 2021
Module time:
	user time   =      19.73 seconds =       0.33 minutes
	system time =       0.47 seconds =       0.01 minutes
	total time  =         20 seconds =       0.33 minutes
Total time:
	user time   =      90.00 seconds =       1.50 minutes
	system time =       2.02 seconds =       0.03 minutes
	total time  =         92 seconds =       1.53 minutes
  Constructing Basis Sets for SAPT...

   => Loading Basis Set <=

    Name: (JUN-CC-PVTZ AUX)
    Role: RIFIT
    Keyword: DF_BASIS_SAPT
    atoms 1, 5, 9-11    entry C          line   132 file /home/r08543048/miniconda3/share/psi4/basis/jun-cc-pvtz-ri.gbs 
    atoms 2-3           entry O          line   244 file /home/r08543048/miniconda3/share/psi4/basis/jun-cc-pvtz-ri.gbs 
    atoms 4, 6-8, 12-19 entry H          line    30 file /home/r08543048/miniconda3/share/psi4/basis/jun-cc-pvtz-ri.gbs 


  //>>>>>>>>>>>>>>>>>>>>>>>>>>>>>>>>>>>//
  //               SAPT0               //
  //<<<<<<<<<<<<<<<<<<<<<<<<<<<<<<<<<<<//


*** tstart() called on r282
*** at Fri Sep 10 20:00:11 2021

        SAPT0  
    Ed Hohenstein
     6 June 2009

      Orbital Information
  --------------------------
    NSO        =       441
    NMO        =       441
    NRI        =      1039
    NOCC A     =        16
    NOCC B     =        13
    FOCC A     =         0
    FOCC B     =         0
    NVIR A     =       425
    NVIR B     =       428

    Elst10,r            =    -0.002590098145 [Eh]
    Exch10              =     0.005901926933 [Eh]
    Exch10 (S^2)        =     0.005893885086 [Eh]

    Iter     Energy [mEh]          dE [mEh]         Residual      Time [s]
       1      -0.29409549       0.294095490       2.293572289             1
       2      -0.35803631       0.063940820       0.489059129             2
       3      -0.35797027      -0.000066041       0.164015390             2
       4      -0.35702694      -0.000943333       0.048255089             3
       5      -0.35705695       0.000030018       0.017926958             4
       6      -0.35713875       0.000081795       0.007299377             4
       7      -0.35713705      -0.000001701       0.003194374             5
       8      -0.35712731      -0.000009739       0.001213113             5
       9      -0.35712626      -0.000001048       0.000337509             6
      10      -0.35712752       0.000001256       0.000093333             7
      11      -0.35712735      -0.000000164       0.000033382             7
      12      -0.35712731      -0.000000043       0.000014002             8
      13      -0.35712734       0.000000026       0.000004814             9
      14      -0.35712734       0.000000003       0.000001470             9
      15      -0.35712734      -0.000000003       0.000000371            10

    CHF Iterations converged


    Iter     Energy [mEh]          dE [mEh]         Residual      Time [s]
       1      -1.10755406       1.107554057       4.714221689             1
       2      -1.31297943       0.205425378       1.323793830             1
       3      -1.32809217       0.015112732       0.310564337             2
       4      -1.32394034      -0.004151828       0.100241830             2
       5      -1.32313559      -0.000804743       0.018313459             3
       6      -1.32339244       0.000256845       0.004128360             4
       7      -1.32339557       0.000003135       0.001137866             4
       8      -1.32338596      -0.000009619       0.000243006             5
       9      -1.32338645       0.000000492       0.000051825             6
      10      -1.32338667       0.000000227       0.000014950             6
      11      -1.32338667      -0.000000002       0.000003596             7
      12      -1.32338665      -0.000000019       0.000000756             7

    CHF Iterations converged

    Ind20,r (A<-B)      =    -0.000357127337 [Eh]
    Ind20,r (B<-A)      =    -0.001323386652 [Eh]
    Ind20,r             =    -0.001680513989 [Eh]
    Exch-Ind20,r (A<-B) =     0.000291874539 [Eh]
    Exch-Ind20,r (B<-A) =     0.000936146718 [Eh]
    Exch-Ind20,r        =     0.001228021256 [Eh]
    Disp20              =    -0.007441615784 [Eh]
    Disp20 (SS)         =    -0.003720807892 [Eh]
    Disp20 (OS)         =    -0.003720807892 [Eh]
    Exch-Disp20         =     0.000645107592 [Eh]
    Exch-Disp20 (SS)    =     0.000418336867 [Eh]
    Exch-Disp20 (OS)    =     0.000226770724 [Eh]

    SAPT Results 
  --------------------------------------------------------------------------------------------------------
    Electrostatics                 -2.59009815 [mEh]      -1.62531112 [kcal/mol]      -6.80030174 [kJ/mol]
      Elst10,r                     -2.59009815 [mEh]      -1.62531112 [kcal/mol]      -6.80030174 [kJ/mol]

    Exchange                        5.90192693 [mEh]       3.70351506 [kcal/mol]      15.49550703 [kJ/mol]
      Exch10                        5.90192693 [mEh]       3.70351506 [kcal/mol]      15.49550703 [kJ/mol]
      Exch10(S^2)                   5.89388509 [mEh]       3.69846873 [kcal/mol]      15.47439316 [kJ/mol]

    Induction                      -0.81168467 [mEh]      -0.50933982 [kcal/mol]      -2.13107780 [kJ/mol]
      Ind20,r                      -1.68051399 [mEh]      -1.05453845 [kcal/mol]      -4.41218887 [kJ/mol]
      Exch-Ind20,r                  1.22802126 [mEh]       0.77059497 [kcal/mol]       3.22416936 [kJ/mol]
      delta HF,r (2)               -0.35919193 [mEh]      -0.22539634 [kcal/mol]      -0.94305829 [kJ/mol]

    Dispersion                     -6.79650819 [mEh]      -4.26487328 [kcal/mol]     -17.84422980 [kJ/mol]
      Disp20                       -7.44161578 [mEh]      -4.66968440 [kcal/mol]     -19.53795955 [kJ/mol]
      Exch-Disp20                   0.64510759 [mEh]       0.40481113 [kcal/mol]       1.69372975 [kJ/mol]
      Disp20 (SS)                  -3.72080789 [mEh]      -2.33484220 [kcal/mol]      -9.76897977 [kJ/mol]
      Disp20 (OS)                  -3.72080789 [mEh]      -2.33484220 [kcal/mol]      -9.76897977 [kJ/mol]
      Exch-Disp20 (SS)              0.41833687 [mEh]       0.26251035 [kcal/mol]       1.09834329 [kJ/mol]
      Exch-Disp20 (OS)              0.22677072 [mEh]       0.14230078 [kcal/mol]       0.59538645 [kJ/mol]

  Total HF                          2.50014412 [mEh]       1.56886412 [kcal/mol]       6.56412749 [kJ/mol]
  Total SAPT0                      -4.29636407 [mEh]      -2.69600916 [kcal/mol]     -11.28010232 [kJ/mol]

  Special recipe for scaled SAPT0 (see Manual):
    Electrostatics sSAPT0          -2.59009815 [mEh]      -1.62531112 [kcal/mol]      -6.80030174 [kJ/mol]
    Exchange sSAPT0                 5.90192693 [mEh]       3.70351506 [kcal/mol]      15.49550703 [kJ/mol]
    Induction sSAPT0               -0.80665112 [mEh]      -0.50618122 [kcal/mol]      -2.11786224 [kJ/mol]
    Dispersion sSAPT0              -6.79386396 [mEh]      -4.26321400 [kcal/mol]     -17.83728736 [kJ/mol]
  Total sSAPT0                     -4.28868630 [mEh]      -2.69119128 [kcal/mol]     -11.25994432 [kJ/mol]
  --------------------------------------------------------------------------------------------------------

*** tstop() called on r282 at Fri Sep 10 20:01:29 2021
Module time:
	user time   =      64.68 seconds =       1.08 minutes
	system time =      11.51 seconds =       0.19 minutes
	total time  =         78 seconds =       1.30 minutes
Total time:
	user time   =     154.80 seconds =       2.58 minutes
	system time =      13.53 seconds =       0.23 minutes
	total time  =        170 seconds =       2.83 minutes

    Psi4 stopped on: Friday, 10 September 2021 08:01PM
    Psi4 wall time for execution: 0:02:49.44

*** Psi4 exiting successfully. Buy a developer a beer!
