
    -----------------------------------------------------------------------
          Psi4: An Open-Source Ab Initio Electronic Structure Package
                               Psi4 1.3.2 release

                         Git: Rev {HEAD} ecbda83 


    R. M. Parrish, L. A. Burns, D. G. A. Smith, A. C. Simmonett,
    A. E. DePrince III, E. G. Hohenstein, U. Bozkaya, A. Yu. Sokolov,
    R. Di Remigio, R. M. Richard, J. F. Gonthier, A. M. James,
    H. R. McAlexander, A. Kumar, M. Saitow, X. Wang, B. P. Pritchard,
    P. Verma, H. F. Schaefer III, K. Patkowski, R. A. King, E. F. Valeev,
    F. A. Evangelista, J. M. Turney, T. D. Crawford, and C. D. Sherrill,
    J. Chem. Theory Comput. 13(7) pp 3185--3197 (2017).
    (doi: 10.1021/acs.jctc.7b00174)


                         Additional Contributions by
    P. Kraus, H. Kruse, M. H. Lechner, M. C. Schieber, R. A. Shaw,
    A. Alenaizan, R. Galvelis, Z. L. Glick, S. Lehtola, and J. P. Misiewicz

    -----------------------------------------------------------------------


    Psi4 started on: Thursday, 09 September 2021 10:43AM

    Process ID: 53889
    Host:       r282
    PSIDATADIR: /home/r08543048/miniconda3/share/psi4
    Memory:     500.0 MiB
    Threads:    1
    
  ==> Input File <==

--------------------------------------------------------------------------
# Any line starting with the # character is a comment line
#! Sample  computation

memory 22 gb

molecule Dimer {
 
0 1
 C    1.84825400   -0.68442800    0.33532500                                   
 C    1.84830300    0.68442600   -0.33481000                                   
 H    0.96925500   -0.81633900    0.96537000                                   
 H    2.72888900   -0.81468200    0.96319700                                   
 H    1.84689500   -1.48518200   -0.40342900                                   
 H    1.84672500    1.48518000    0.40394400 
 H    0.96945100    0.81629100   -0.96506800 
 H    2.72908600    0.81472300   -0.96246600 
 --
0 1
 C   -1.84825900   -0.68442600   -0.33532600
 C   -1.84829800    0.68442800    0.33481000
 H   -1.84691700   -1.48518000    0.40342900
 H   -0.96925700   -0.81634700   -0.96536200
 H   -2.72889000   -0.81466900   -0.96320500
 H   -0.96944900    0.81628400    0.96507400
 H   -2.72908300    0.81473500    0.96246000
 H   -1.84670500    1.48518200   -0.40394400
 
units angstrom

no_reorient
symmetry c1
}

set globals{
  basis jun-cc-pVTZ
  scf_type DF 
  freeze_core True
}

energy('sapt0')


--------------------------------------------------------------------------

  Memory set to  20.489 GiB by Python driver.

  //>>>>>>>>>>>>>>>>>>>>>>>>>>>>>>>>>>>//
  //              Dimer HF             //
  //<<<<<<<<<<<<<<<<<<<<<<<<<<<<<<<<<<<//


*** tstart() called on r282
*** at Thu Sep  9 10:43:42 2021

   => Loading Basis Set <=

    Name: JUN-CC-PVTZ
    Role: ORBITAL
    Keyword: BASIS
    atoms 1-2, 9-10  entry C          line   217 file /home/r08543048/miniconda3/share/psi4/basis/jun-cc-pvtz.gbs 
    atoms 3-8, 11-16 entry H          line    36 file /home/r08543048/miniconda3/share/psi4/basis/jun-cc-pvtz.gbs 


         ---------------------------------------------------------
                                   SCF
               by Justin Turney, Rob Parrish, Andy Simmonett
                          and Daniel G. A. Smith
                              RHF Reference
                        1 Threads,  20980 MiB Core
         ---------------------------------------------------------

  ==> Geometry <==

    Molecular point group: c1
    Full point group: C1

    Geometry (in Angstrom), charge = 0, multiplicity = 1:

       Center              X                  Y                   Z               Mass       
    ------------   -----------------  -----------------  -----------------  -----------------
         C            1.848254000000    -0.684427932917     0.335325199687    12.000000000000
         C            1.848303000000     0.684426067083    -0.334809800313    12.000000000000
         H            0.969255000000    -0.816338932917     0.965370199687     1.007825032230
         H            2.728889000000    -0.814681932917     0.963197199687     1.007825032230
         H            1.846895000000    -1.485181932917    -0.403428800313     1.007825032230
         H            1.846725000000     1.485180067083     0.403944199687     1.007825032230
         H            0.969451000000     0.816291067083    -0.965067800313     1.007825032230
         H            2.729086000000     0.814723067083    -0.962465800313     1.007825032230
         C           -1.848259000000    -0.684425932917    -0.335325800313    12.000000000000
         C           -1.848298000000     0.684428067083     0.334810199687    12.000000000000
         H           -1.846917000000    -1.485179932917     0.403429199687     1.007825032230
         H           -0.969257000000    -0.816346932917    -0.965361800313     1.007825032230
         H           -2.728890000000    -0.814668932917    -0.963204800313     1.007825032230
         H           -0.969449000000     0.816284067083     0.965074199687     1.007825032230
         H           -2.729083000000     0.814735067083     0.962460199687     1.007825032230
         H           -1.846705000000     1.485182067083    -0.403943800313     1.007825032230

  Running in c1 symmetry.

  Rotational constants: A =      0.33529  B =      0.07490  C =      0.06790 [cm^-1]
  Rotational constants: A =  10051.65726  B =   2245.39590  C =   2035.57063 [MHz]
  Nuclear repulsion =  128.865755729873257

  Charge       = 0
  Multiplicity = 1
  Electrons    = 36
  Nalpha       = 18
  Nbeta        = 18

  ==> Algorithm <==

  SCF Algorithm Type is DF.
  DIIS enabled.
  MOM disabled.
  Fractional occupation disabled.
  Guess Type is SAD.
  Energy threshold   = 1.00e-08
  Density threshold  = 1.00e-08
  Integral threshold = 0.00e+00

  ==> Primary Basis <==

  Basis Set: JUN-CC-PVTZ
    Blend: JUN-CC-PVTZ
    Number of shells: 124
    Number of basis function: 324
    Number of Cartesian functions: 360
    Spherical Harmonics?: true
    Max angular momentum: 3

   => Loading Basis Set <=

    Name: (JUN-CC-PVTZ AUX)
    Role: JKFIT
    Keyword: DF_BASIS_SCF
    atoms 1-2, 9-10  entry C          line   152 file /home/r08543048/miniconda3/share/psi4/basis/jun-cc-pvtz-jkfit.gbs 
    atoms 3-8, 11-16 entry H          line    70 file /home/r08543048/miniconda3/share/psi4/basis/jun-cc-pvtz-jkfit.gbs 

  ==> Pre-Iterations <==

   -------------------------------------------------------
    Irrep   Nso     Nmo     Nalpha   Nbeta   Ndocc  Nsocc
   -------------------------------------------------------
     A        324     324       0       0       0       0
   -------------------------------------------------------
    Total     324     324      18      18      18       0
   -------------------------------------------------------

  ==> Integral Setup <==

  ==> DiskDFJK: Density-Fitted J/K Matrices <==

    J tasked:                  Yes
    K tasked:                  Yes
    wK tasked:                  No
    OpenMP threads:              1
    Integrals threads:           1
    Memory [MiB]:            15735
    Algorithm:                Core
    Integral Cache:           SAVE
    Schwarz Cutoff:          1E-12
    Fitting Condition:       1E-10

   => Auxiliary Basis Set <=

  Basis Set: (JUN-CC-PVTZ AUX)
    Blend: JUN-CC-PVTZ-JKFIT
    Number of shells: 236
    Number of basis function: 740
    Number of Cartesian functions: 884
    Spherical Harmonics?: true
    Max angular momentum: 4

  Minimum eigenvalue in the overlap matrix is 1.2002542178E-04.
  Using Symmetric Orthogonalization.

  SCF Guess: Superposition of Atomic Densities via on-the-fly atomic UHF.

  ==> Iterations <==

                           Total Energy        Delta E     RMS |[F,P]|

   @DF-RHF iter SAD:  -157.42335629600726   -1.57423e+02   0.00000e+00 
   @DF-RHF iter   1:  -158.29570520125645   -8.72349e-01   1.88021e-03 DIIS
   @DF-RHF iter   2:  -158.47682168439712   -1.81116e-01   8.52913e-04 DIIS
   @DF-RHF iter   3:  -158.51571287103229   -3.88912e-02   1.43548e-04 DIIS
   @DF-RHF iter   4:  -158.51828288626680   -2.57002e-03   2.00383e-05 DIIS
   @DF-RHF iter   5:  -158.51833948880028   -5.66025e-05   3.88496e-06 DIIS
   @DF-RHF iter   6:  -158.51834141022971   -1.92143e-06   5.61117e-07 DIIS
   @DF-RHF iter   7:  -158.51834144972429   -3.94946e-08   1.03338e-07 DIIS
   @DF-RHF iter   8:  -158.51834145070751   -9.83221e-10   1.80862e-08 DIIS
   @DF-RHF iter   9:  -158.51834145074918   -4.16662e-11   3.12646e-09 DIIS
  Energy and wave function converged.


  ==> Post-Iterations <==

    Orbital Energies [Eh]
    ---------------------

    Doubly Occupied:                                                      

       1A    -11.210238     2A    -11.210236     3A    -11.209625  
       4A    -11.209625     5A     -1.021688     6A     -1.015746  
       7A     -0.843292     8A     -0.840367     9A     -0.610859  
      10A     -0.600407    11A     -0.594252    12A     -0.583771  
      13A     -0.510991    14A     -0.508699    15A     -0.488065  
      16A     -0.486529    17A     -0.486506    18A     -0.485402  

    Virtual:                                                              

      19A      0.053938    20A      0.061998    21A      0.062332  
      22A      0.066499    23A      0.084390    24A      0.094862  
      25A      0.095049    26A      0.101840    27A      0.102664  
      28A      0.124733    29A      0.124854    30A      0.133583  
      31A      0.133959    32A      0.170194    33A      0.189176  
      34A      0.190397    35A      0.245011    36A      0.252992  
      37A      0.272919    38A      0.274413    39A      0.281092  
      40A      0.284499    41A      0.293259    42A      0.298707  
      43A      0.309404    44A      0.316706    45A      0.322446  
      46A      0.327396    47A      0.335249    48A      0.337131  
      49A      0.342544    50A      0.351075    51A      0.356950  
      52A      0.357507    53A      0.358501    54A      0.368410  
      55A      0.377647    56A      0.383679    57A      0.388934  
      58A      0.397932    59A      0.442808    60A      0.460923  
      61A      0.470669    62A      0.484254    63A      0.499896  
      64A      0.506484    65A      0.521862    66A      0.528913  
      67A      0.543582    68A      0.557730    69A      0.643080  
      70A      0.644913    71A      0.645299    72A      0.652652  
      73A      0.689505    74A      0.701775    75A      0.713120  
      76A      0.726835    77A      0.727904    78A      0.736623  
      79A      0.743673    80A      0.744953    81A      0.768520  
      82A      0.790330    83A      0.794137    84A      0.804098  
      85A      0.819016    86A      0.825594    87A      0.830496  
      88A      0.831752    89A      0.850765    90A      0.855004  
      91A      0.862037    92A      0.891663    93A      0.905603  
      94A      0.924698    95A      0.962116    96A      0.966715  
      97A      0.970358    98A      0.972048    99A      1.009887  
     100A      1.033605   101A      1.035114   102A      1.052320  
     103A      1.063694   104A      1.090762   105A      1.127639  
     106A      1.182479   107A      1.233898   108A      1.252673  
     109A      1.270649   110A      1.281905   111A      1.329482  
     112A      1.329836   113A      1.341346   114A      1.342151  
     115A      1.352712   116A      1.355184   117A      1.373626  
     118A      1.376413   119A      1.390342   120A      1.399575  
     121A      1.417017   122A      1.451221   123A      1.455642  
     124A      1.462048   125A      1.484554   126A      1.494232  
     127A      1.515664   128A      1.521090   129A      1.559424  
     130A      1.565020   131A      1.585833   132A      1.597684  
     133A      1.628444   134A      1.636040   135A      1.663960  
     136A      1.668187   137A      1.682329   138A      1.688649  
     139A      1.690226   140A      1.690844   141A      1.768592  
     142A      1.777307   143A      1.786134   144A      1.803518  
     145A      1.868868   146A      1.879498   147A      1.883548  
     148A      1.896826   149A      1.922280   150A      1.939784  
     151A      1.986599   152A      1.994602   153A      2.647591  
     154A      2.719984   155A      2.720843   156A      2.724591  
     157A      2.729901   158A      2.753334   159A      2.760722  
     160A      2.775797   161A      2.786417   162A      2.814305  
     163A      2.819890   164A      2.861112   165A      2.874124  
     166A      2.903498   167A      2.925907   168A      2.963947  
     169A      3.059572   170A      3.070068   171A      3.073323  
     172A      3.105593   173A      3.111279   174A      3.143736  
     175A      3.160506   176A      3.176315   177A      3.184435  
     178A      3.191731   179A      3.197297   180A      3.210878  
     181A      3.244041   182A      3.246329   183A      3.276854  
     184A      3.279210   185A      3.287139   186A      3.290947  
     187A      3.315331   188A      3.338393   189A      3.347111  
     190A      3.355414   191A      3.404779   192A      3.421803  
     193A      3.438837   194A      3.440325   195A      3.444587  
     196A      3.461504   197A      3.481730   198A      3.482727  
     199A      3.500844   200A      3.512237   201A      3.514718  
     202A      3.523192   203A      3.537729   204A      3.573130  
     205A      3.589906   206A      3.594708   207A      3.595546  
     208A      3.609126   209A      3.672094   210A      3.691435  
     211A      3.732921   212A      3.746945   213A      3.778670  
     214A      3.781309   215A      3.808012   216A      3.808182  
     217A      3.837276   218A      3.838229   219A      3.853681  
     220A      3.874887   221A      3.879697   222A      3.882430  
     223A      3.904077   224A      3.905419   225A      3.929188  
     226A      3.935783   227A      3.947873   228A      3.954879  
     229A      4.140421   230A      4.155037   231A      4.173445  
     232A      4.175584   233A      4.180809   234A      4.185627  
     235A      4.210198   236A      4.221402   237A      4.228307  
     238A      4.230736   239A      4.239224   240A      4.246295  
     241A      4.272587   242A      4.279817   243A      4.288762  
     244A      4.311224   245A      4.393230   246A      4.394819  
     247A      4.417210   248A      4.439405   249A      4.443696  
     250A      4.461939   251A      4.482707   252A      4.491445  
     253A      4.494184   254A      4.497548   255A      4.498069  
     256A      4.506519   257A      4.525701   258A      4.534767  
     259A      4.568722   260A      4.599206   261A      4.654836  
     262A      4.670236   263A      4.676383   264A      4.695326  
     265A      4.706143   266A      4.720245   267A      4.756985  
     268A      4.784962   269A      4.793912   270A      4.823207  
     271A      4.837162   272A      4.843818   273A      4.928461  
     274A      4.951167   275A      5.171225   276A      5.179577  
     277A      5.193801   278A      5.214875   279A      5.222951  
     280A      5.225953   281A      5.265861   282A      5.269231  
     283A      5.283981   284A      5.288961   285A      5.305903  
     286A      5.310788   287A      5.317664   288A      5.325398  
     289A      5.345077   290A      5.346503   291A      5.355929  
     292A      5.364639   293A      5.676400   294A      5.696892  
     295A      5.703852   296A      5.703905   297A      5.745669  
     298A      5.746692   299A      5.753685   300A      5.755652  
     301A      5.761280   302A      5.773511   303A      5.779820  
     304A      5.790474   305A      5.793748   306A      5.805796  
     307A      5.896937   308A      5.899832   309A      5.910687  
     310A      5.918666   311A      5.934794   312A      5.942351  
     313A      6.444067   314A      6.452626   315A      6.453075  
     316A      6.455862   317A      6.487641   318A      6.500914  
     319A      6.510290   320A      6.553171   321A     14.110191  
     322A     14.347300   323A     14.468946   324A     14.693772  

    Final Occupation by Irrep:
              A 
    DOCC [    18 ]

  @DF-RHF Final Energy:  -158.51834145074918

   => Energetics <=

    Nuclear Repulsion Energy =            128.8657557298732570
    One-Electron Energy =                -466.9355991049779959
    Two-Electron Energy =                 179.5515019243555344
    Total Energy =                       -158.5183414507491761

Computation Completed


Properties will be evaluated at   0.000000,   0.000000,   0.000000 [a0]

Properties computed using the SCF density matrix

  Nuclear Dipole Moment: [e a0]
     X:     0.0000      Y:    -0.0000      Z:     0.0000

  Electronic Dipole Moment: [e a0]
     X:     0.0000      Y:     0.0000      Z:    -0.0000

  Dipole Moment: [e a0]
     X:     0.0000      Y:     0.0000      Z:    -0.0000     Total:     0.0000

  Dipole Moment: [D]
     X:     0.0000      Y:     0.0000      Z:    -0.0000     Total:     0.0000


*** tstop() called on r282 at Thu Sep  9 10:43:53 2021
Module time:
	user time   =      10.90 seconds =       0.18 minutes
	system time =       0.33 seconds =       0.01 minutes
	total time  =         11 seconds =       0.18 minutes
Total time:
	user time   =      10.90 seconds =       0.18 minutes
	system time =       0.33 seconds =       0.01 minutes
	total time  =         11 seconds =       0.18 minutes

  //>>>>>>>>>>>>>>>>>>>>>>>>>>>>>>>>>>>//
  //            Monomer A HF           //
  //<<<<<<<<<<<<<<<<<<<<<<<<<<<<<<<<<<<//


*** tstart() called on r282
*** at Thu Sep  9 10:43:53 2021

   => Loading Basis Set <=

    Name: JUN-CC-PVTZ
    Role: ORBITAL
    Keyword: BASIS
    atoms 1-2, 9-10  entry C          line   217 file /home/r08543048/miniconda3/share/psi4/basis/jun-cc-pvtz.gbs 
    atoms 3-8, 11-16 entry H          line    36 file /home/r08543048/miniconda3/share/psi4/basis/jun-cc-pvtz.gbs 


         ---------------------------------------------------------
                                   SCF
               by Justin Turney, Rob Parrish, Andy Simmonett
                          and Daniel G. A. Smith
                              RHF Reference
                        1 Threads,  20980 MiB Core
         ---------------------------------------------------------

  ==> Geometry <==

    Molecular point group: c1
    Full point group: C1

    Geometry (in Angstrom), charge = 0, multiplicity = 1:

       Center              X                  Y                   Z               Mass       
    ------------   -----------------  -----------------  -----------------  -----------------
         C            1.848254000000    -0.684427932917     0.335325199687    12.000000000000
         C            1.848303000000     0.684426067083    -0.334809800313    12.000000000000
         H            0.969255000000    -0.816338932917     0.965370199687     1.007825032230
         H            2.728889000000    -0.814681932917     0.963197199687     1.007825032230
         H            1.846895000000    -1.485181932917    -0.403428800313     1.007825032230
         H            1.846725000000     1.485180067083     0.403944199687     1.007825032230
         H            0.969451000000     0.816291067083    -0.965067800313     1.007825032230
         H            2.729086000000     0.814723067083    -0.962465800313     1.007825032230
      Gh(C)          -1.848259000000    -0.684425932917    -0.335325800313    12.000000000000
      Gh(C)          -1.848298000000     0.684428067083     0.334810199687    12.000000000000
      Gh(H)          -1.846917000000    -1.485179932917     0.403429199687     1.007825032230
      Gh(H)          -0.969257000000    -0.816346932917    -0.965361800313     1.007825032230
      Gh(H)          -2.728890000000    -0.814668932917    -0.963204800313     1.007825032230
      Gh(H)          -0.969449000000     0.816284067083     0.965074199687     1.007825032230
      Gh(H)          -2.729083000000     0.814735067083     0.962460199687     1.007825032230
      Gh(H)          -1.846705000000     1.485182067083    -0.403943800313     1.007825032230

  Running in c1 symmetry.

  Rotational constants: A =      0.33529  B =      0.07490  C =      0.06790 [cm^-1]
  Rotational constants: A =  10051.65726  B =   2245.39590  C =   2035.57063 [MHz]
  Nuclear repulsion =   42.340038866349083

  Charge       = 0
  Multiplicity = 1
  Electrons    = 18
  Nalpha       = 9
  Nbeta        = 9

  ==> Algorithm <==

  SCF Algorithm Type is DF.
  DIIS enabled.
  MOM disabled.
  Fractional occupation disabled.
  Guess Type is SAD.
  Energy threshold   = 1.00e-08
  Density threshold  = 1.00e-08
  Integral threshold = 0.00e+00

  ==> Primary Basis <==

  Basis Set: JUN-CC-PVTZ
    Blend: JUN-CC-PVTZ
    Number of shells: 124
    Number of basis function: 324
    Number of Cartesian functions: 360
    Spherical Harmonics?: true
    Max angular momentum: 3

   => Loading Basis Set <=

    Name: (JUN-CC-PVTZ AUX)
    Role: JKFIT
    Keyword: DF_BASIS_SCF
    atoms 1-2, 9-10  entry C          line   152 file /home/r08543048/miniconda3/share/psi4/basis/jun-cc-pvtz-jkfit.gbs 
    atoms 3-8, 11-16 entry H          line    70 file /home/r08543048/miniconda3/share/psi4/basis/jun-cc-pvtz-jkfit.gbs 

  ==> Pre-Iterations <==

   -------------------------------------------------------
    Irrep   Nso     Nmo     Nalpha   Nbeta   Ndocc  Nsocc
   -------------------------------------------------------
     A        324     324       0       0       0       0
   -------------------------------------------------------
    Total     324     324       9       9       9       0
   -------------------------------------------------------

  ==> Integral Setup <==

  ==> DiskDFJK: Density-Fitted J/K Matrices <==

    J tasked:                  Yes
    K tasked:                  Yes
    wK tasked:                  No
    OpenMP threads:              1
    Integrals threads:           1
    Memory [MiB]:            15735
    Algorithm:                Core
    Integral Cache:           LOAD
    Schwarz Cutoff:          1E-12
    Fitting Condition:       1E-10

   => Auxiliary Basis Set <=

  Basis Set: (JUN-CC-PVTZ AUX)
    Blend: JUN-CC-PVTZ-JKFIT
    Number of shells: 236
    Number of basis function: 740
    Number of Cartesian functions: 884
    Spherical Harmonics?: true
    Max angular momentum: 4

  Minimum eigenvalue in the overlap matrix is 1.2002542178E-04.
  Using Symmetric Orthogonalization.

  SCF Guess: Superposition of Atomic Densities via on-the-fly atomic UHF.

  ==> Iterations <==

                           Total Energy        Delta E     RMS |[F,P]|

   @DF-RHF iter SAD:   -78.66015732724566   -7.86602e+01   0.00000e+00 
   @DF-RHF iter   1:   -79.14809488871357   -4.87938e-01   1.34049e-03 DIIS
   @DF-RHF iter   2:   -79.23891688842627   -9.08220e-02   6.12107e-04 DIIS
   @DF-RHF iter   3:   -79.25885093132915   -1.99340e-02   1.00079e-04 DIIS
   @DF-RHF iter   4:   -79.26011630660527   -1.26538e-03   1.38814e-05 DIIS
   @DF-RHF iter   5:   -79.26014413887140   -2.78323e-05   2.48112e-06 DIIS
   @DF-RHF iter   6:   -79.26014497914093   -8.40270e-07   2.97712e-07 DIIS
   @DF-RHF iter   7:   -79.26014499196458   -1.28236e-08   3.29288e-08 DIIS
   @DF-RHF iter   8:   -79.26014499209829   -1.33710e-10   5.35017e-09 DIIS
  Energy and wave function converged.


  ==> Post-Iterations <==

    Orbital Energies [Eh]
    ---------------------

    Doubly Occupied:                                                      

       1A    -11.210505     2A    -11.209893     3A     -1.018474  
       4A     -0.841709     5A     -0.597138     6A     -0.596903  
       7A     -0.509952     8A     -0.486691     9A     -0.486449  

    Virtual:                                                              

      10A      0.040141    11A      0.050676    12A      0.058233  
      13A      0.063873    14A      0.079824    15A      0.090816  
      16A      0.091446    17A      0.098230    18A      0.102916  
      19A      0.116320    20A      0.121786    21A      0.124657  
      22A      0.133767    23A      0.154775    24A      0.160437  
      25A      0.189711    26A      0.214151    27A      0.230908  
      28A      0.233459    29A      0.260252    30A      0.284780  
      31A      0.286470    32A      0.296512    33A      0.296868  
      34A      0.308461    35A      0.311702    36A      0.320582  
      37A      0.336104    38A      0.339880    39A      0.343053  
      40A      0.347132    41A      0.350155    42A      0.353940  
      43A      0.359082    44A      0.365723    45A      0.375369  
      46A      0.383512    47A      0.402095    48A      0.414531  
      49A      0.426028    50A      0.429031    51A      0.459763  
      52A      0.477038    53A      0.486092    54A      0.491526  
      55A      0.515404    56A      0.518718    57A      0.527151  
      58A      0.541965    59A      0.555754    60A      0.565924  
      61A      0.601862    62A      0.621486    63A      0.632539  
      64A      0.637454    65A      0.652266    66A      0.653485  
      67A      0.657887    68A      0.714225    69A      0.745116  
      70A      0.751815    71A      0.761988    72A      0.774898  
      73A      0.776065    74A      0.794491    75A      0.794601  
      76A      0.838823    77A      0.857761    78A      0.861560  
      79A      0.880625    80A      0.960295    81A      0.963839  
      82A      0.973197    83A      1.004134    84A      1.032303  
      85A      1.041335    86A      1.047639    87A      1.054176  
      88A      1.083262    89A      1.105855    90A      1.112443  
      91A      1.119011    92A      1.137763    93A      1.150031  
      94A      1.181756    95A      1.186527    96A      1.207094  
      97A      1.226318    98A      1.234715    99A      1.250755  
     100A      1.273604   101A      1.304790   102A      1.307304  
     103A      1.326407   104A      1.331577   105A      1.337938  
     106A      1.356990   107A      1.367905   108A      1.371830  
     109A      1.388120   110A      1.393064   111A      1.404432  
     112A      1.430826   113A      1.447449   114A      1.472487  
     115A      1.477448   116A      1.493301   117A      1.511287  
     118A      1.533125   119A      1.556932   120A      1.564476  
     121A      1.567608   122A      1.589295   123A      1.605333  
     124A      1.614645   125A      1.641445   126A      1.665629  
     127A      1.666400   128A      1.683881   129A      1.688741  
     130A      1.689115   131A      1.766226   132A      1.777355  
     133A      1.780705   134A      1.797896   135A      1.810610  
     136A      1.889963   137A      1.907594   138A      1.909708  
     139A      1.979798   140A      1.984101   141A      1.998616  
     142A      2.080795   143A      2.083977   144A      2.231383  
     145A      2.287952   146A      2.319059   147A      2.403842  
     148A      2.408404   149A      2.493974   150A      2.538201  
     151A      2.703556   152A      2.748719   153A      2.749960  
     154A      2.798419   155A      2.807363   156A      2.839075  
     157A      2.873536   158A      2.938335   159A      3.077444  
     160A      3.091062   161A      3.122157   162A      3.181962  
     163A      3.185185   164A      3.206882   165A      3.226977  
     166A      3.272271   167A      3.282819   168A      3.328716  
     169A      3.339588   170A      3.388200   171A      3.406504  
     172A      3.437636   173A      3.451296   174A      3.493803  
     175A      3.499886   176A      3.506314   177A      3.519372  
     178A      3.538884   179A      3.546732   180A      3.550547  
     181A      3.562679   182A      3.570690   183A      3.587261  
     184A      3.594685   185A      3.602186   186A      3.611713  
     187A      3.661639   188A      3.721245   189A      3.736080  
     190A      3.777372   191A      3.793563   192A      3.794765  
     193A      3.800846   194A      3.815674   195A      3.815910  
     196A      3.824591   197A      3.847188   198A      3.852483  
     199A      3.867049   200A      3.905157   201A      3.909255  
     202A      3.929764   203A      3.938610   204A      3.947277  
     205A      4.056356   206A      4.072831   207A      4.082150  
     208A      4.090183   209A      4.155688   210A      4.160835  
     211A      4.173843   212A      4.181860   213A      4.187803  
     214A      4.205260   215A      4.216859   216A      4.224056  
     217A      4.282298   218A      4.287818   219A      4.321028  
     220A      4.340036   221A      4.358402   222A      4.405543  
     223A      4.416584   224A      4.427354   225A      4.436996  
     226A      4.459632   227A      4.466848   228A      4.489413  
     229A      4.491926   230A      4.495924   231A      4.501056  
     232A      4.509139   233A      4.515262   234A      4.531272  
     235A      4.544859   236A      4.545207   237A      4.599745  
     238A      4.600631   239A      4.652784   240A      4.672976  
     241A      4.690349   242A      4.714232   243A      4.717883  
     244A      4.720695   245A      4.728818   246A      4.746040  
     247A      4.764464   248A      4.791497   249A      4.796177  
     250A      4.804970   251A      4.815217   252A      4.844714  
     253A      4.856719   254A      4.893568   255A      4.920987  
     256A      4.923579   257A      4.949003   258A      4.959265  
     259A      4.972899   260A      4.982705   261A      4.999878  
     262A      5.020836   263A      5.023556   264A      5.081801  
     265A      5.129221   266A      5.178768   267A      5.208114  
     268A      5.211245   269A      5.261946   270A      5.273273  
     271A      5.288296   272A      5.318142   273A      5.328128  
     274A      5.344387   275A      5.355181   276A      5.388294  
     277A      5.396513   278A      5.410617   279A      5.643452  
     280A      5.653018   281A      5.688892   282A      5.702320  
     283A      5.718175   284A      5.720544   285A      5.757243  
     286A      5.758324   287A      5.773809   288A      5.775259  
     289A      5.794568   290A      5.912090   291A      5.915043  
     292A      5.919879   293A      5.997871   294A      6.000853  
     295A      6.225559   296A      6.321121   297A      6.326030  
     298A      6.348721   299A      6.365333   300A      6.394905  
     301A      6.441196   302A      6.452536   303A      6.456895  
     304A      6.473784   305A      6.497224   306A      6.529681  
     307A      6.799860   308A      6.888852   309A      7.348546  
     310A      7.494766   311A      7.498356   312A      7.647923  
     313A      7.673115   314A      7.791714   315A      7.795024  
     316A      7.894025   317A      7.906578   318A      8.244790  
     319A      9.719097   320A      9.875908   321A     14.229986  
     322A     14.582516   323A     45.053631   324A     45.482155  

    Final Occupation by Irrep:
              A 
    DOCC [     9 ]

  @DF-RHF Final Energy:   -79.26014499209829

   => Energetics <=

    Nuclear Repulsion Energy =             42.3400388663490830
    One-Electron Energy =                -189.2849408395734940
    Two-Electron Energy =                  67.6847569811261138
    Total Energy =                        -79.2601449920982901

Computation Completed


Properties will be evaluated at   0.000000,   0.000000,   0.000000 [a0]

Properties computed using the SCF density matrix

  Nuclear Dipole Moment: [e a0]
     X:    62.8705      Y:    -0.0000      Z:     0.0088

  Electronic Dipole Moment: [e a0]
     X:   -62.8703      Y:     0.0000      Z:    -0.0088

  Dipole Moment: [e a0]
     X:     0.0003      Y:    -0.0000      Z:    -0.0000     Total:     0.0003

  Dipole Moment: [D]
     X:     0.0007      Y:    -0.0000      Z:    -0.0000     Total:     0.0007


*** tstop() called on r282 at Thu Sep  9 10:43:58 2021
Module time:
	user time   =       4.97 seconds =       0.08 minutes
	system time =       0.13 seconds =       0.00 minutes
	total time  =          5 seconds =       0.08 minutes
Total time:
	user time   =      15.88 seconds =       0.26 minutes
	system time =       0.46 seconds =       0.01 minutes
	total time  =         16 seconds =       0.27 minutes

  //>>>>>>>>>>>>>>>>>>>>>>>>>>>>>>>>>>>//
  //            Monomer B HF           //
  //<<<<<<<<<<<<<<<<<<<<<<<<<<<<<<<<<<<//


*** tstart() called on r282
*** at Thu Sep  9 10:43:58 2021

   => Loading Basis Set <=

    Name: JUN-CC-PVTZ
    Role: ORBITAL
    Keyword: BASIS
    atoms 1-2, 9-10  entry C          line   217 file /home/r08543048/miniconda3/share/psi4/basis/jun-cc-pvtz.gbs 
    atoms 3-8, 11-16 entry H          line    36 file /home/r08543048/miniconda3/share/psi4/basis/jun-cc-pvtz.gbs 


         ---------------------------------------------------------
                                   SCF
               by Justin Turney, Rob Parrish, Andy Simmonett
                          and Daniel G. A. Smith
                              RHF Reference
                        1 Threads,  20980 MiB Core
         ---------------------------------------------------------

  ==> Geometry <==

    Molecular point group: c1
    Full point group: C1

    Geometry (in Angstrom), charge = 0, multiplicity = 1:

       Center              X                  Y                   Z               Mass       
    ------------   -----------------  -----------------  -----------------  -----------------
      Gh(C)           1.848254000000    -0.684427932917     0.335325199687    12.000000000000
      Gh(C)           1.848303000000     0.684426067083    -0.334809800313    12.000000000000
      Gh(H)           0.969255000000    -0.816338932917     0.965370199687     1.007825032230
      Gh(H)           2.728889000000    -0.814681932917     0.963197199687     1.007825032230
      Gh(H)           1.846895000000    -1.485181932917    -0.403428800313     1.007825032230
      Gh(H)           1.846725000000     1.485180067083     0.403944199687     1.007825032230
      Gh(H)           0.969451000000     0.816291067083    -0.965067800313     1.007825032230
      Gh(H)           2.729086000000     0.814723067083    -0.962465800313     1.007825032230
         C           -1.848259000000    -0.684425932917    -0.335325800313    12.000000000000
         C           -1.848298000000     0.684428067083     0.334810199687    12.000000000000
         H           -1.846917000000    -1.485179932917     0.403429199687     1.007825032230
         H           -0.969257000000    -0.816346932917    -0.965361800313     1.007825032230
         H           -2.728890000000    -0.814668932917    -0.963204800313     1.007825032230
         H           -0.969449000000     0.816284067083     0.965074199687     1.007825032230
         H           -2.729083000000     0.814735067083     0.962460199687     1.007825032230
         H           -1.846705000000     1.485182067083    -0.403943800313     1.007825032230

  Running in c1 symmetry.

  Rotational constants: A =      0.33529  B =      0.07490  C =      0.06790 [cm^-1]
  Rotational constants: A =  10051.65726  B =   2245.39590  C =   2035.57063 [MHz]
  Nuclear repulsion =   42.340041252263852

  Charge       = 0
  Multiplicity = 1
  Electrons    = 18
  Nalpha       = 9
  Nbeta        = 9

  ==> Algorithm <==

  SCF Algorithm Type is DF.
  DIIS enabled.
  MOM disabled.
  Fractional occupation disabled.
  Guess Type is SAD.
  Energy threshold   = 1.00e-08
  Density threshold  = 1.00e-08
  Integral threshold = 0.00e+00

  ==> Primary Basis <==

  Basis Set: JUN-CC-PVTZ
    Blend: JUN-CC-PVTZ
    Number of shells: 124
    Number of basis function: 324
    Number of Cartesian functions: 360
    Spherical Harmonics?: true
    Max angular momentum: 3

   => Loading Basis Set <=

    Name: (JUN-CC-PVTZ AUX)
    Role: JKFIT
    Keyword: DF_BASIS_SCF
    atoms 1-2, 9-10  entry C          line   152 file /home/r08543048/miniconda3/share/psi4/basis/jun-cc-pvtz-jkfit.gbs 
    atoms 3-8, 11-16 entry H          line    70 file /home/r08543048/miniconda3/share/psi4/basis/jun-cc-pvtz-jkfit.gbs 

  ==> Pre-Iterations <==

   -------------------------------------------------------
    Irrep   Nso     Nmo     Nalpha   Nbeta   Ndocc  Nsocc
   -------------------------------------------------------
     A        324     324       0       0       0       0
   -------------------------------------------------------
    Total     324     324       9       9       9       0
   -------------------------------------------------------

  ==> Integral Setup <==

  ==> DiskDFJK: Density-Fitted J/K Matrices <==

    J tasked:                  Yes
    K tasked:                  Yes
    wK tasked:                  No
    OpenMP threads:              1
    Integrals threads:           1
    Memory [MiB]:            15735
    Algorithm:                Core
    Integral Cache:           LOAD
    Schwarz Cutoff:          1E-12
    Fitting Condition:       1E-10

   => Auxiliary Basis Set <=

  Basis Set: (JUN-CC-PVTZ AUX)
    Blend: JUN-CC-PVTZ-JKFIT
    Number of shells: 236
    Number of basis function: 740
    Number of Cartesian functions: 884
    Spherical Harmonics?: true
    Max angular momentum: 4

  Minimum eigenvalue in the overlap matrix is 1.2002542178E-04.
  Using Symmetric Orthogonalization.

  SCF Guess: Superposition of Atomic Densities via on-the-fly atomic UHF.

  ==> Iterations <==

                           Total Energy        Delta E     RMS |[F,P]|

   @DF-RHF iter SAD:   -78.66015761631058   -7.86602e+01   0.00000e+00 
   @DF-RHF iter   1:   -79.14809493512666   -4.87937e-01   1.34049e-03 DIIS
   @DF-RHF iter   2:   -79.23891693012285   -9.08220e-02   6.12107e-04 DIIS
   @DF-RHF iter   3:   -79.25885094659597   -1.99340e-02   1.00079e-04 DIIS
   @DF-RHF iter   4:   -79.26011632098596   -1.26537e-03   1.38814e-05 DIIS
   @DF-RHF iter   5:   -79.26014415326401   -2.78323e-05   2.48112e-06 DIIS
   @DF-RHF iter   6:   -79.26014499353491   -8.40271e-07   2.97712e-07 DIIS
   @DF-RHF iter   7:   -79.26014500635847   -1.28236e-08   3.29288e-08 DIIS
   @DF-RHF iter   8:   -79.26014500649215   -1.33682e-10   5.35015e-09 DIIS
  Energy and wave function converged.


  ==> Post-Iterations <==

    Orbital Energies [Eh]
    ---------------------

    Doubly Occupied:                                                      

       1A    -11.210504     2A    -11.209893     3A     -1.018474  
       4A     -0.841709     5A     -0.597138     6A     -0.596903  
       7A     -0.509952     8A     -0.486691     9A     -0.486449  

    Virtual:                                                              

      10A      0.040141    11A      0.050676    12A      0.058233  
      13A      0.063873    14A      0.079824    15A      0.090816  
      16A      0.091446    17A      0.098230    18A      0.102916  
      19A      0.116320    20A      0.121786    21A      0.124657  
      22A      0.133767    23A      0.154775    24A      0.160437  
      25A      0.189711    26A      0.214151    27A      0.230908  
      28A      0.233459    29A      0.260252    30A      0.284780  
      31A      0.286470    32A      0.296512    33A      0.296868  
      34A      0.308461    35A      0.311702    36A      0.320582  
      37A      0.336104    38A      0.339880    39A      0.343053  
      40A      0.347132    41A      0.350155    42A      0.353940  
      43A      0.359082    44A      0.365723    45A      0.375369  
      46A      0.383512    47A      0.402095    48A      0.414531  
      49A      0.426028    50A      0.429031    51A      0.459763  
      52A      0.477038    53A      0.486092    54A      0.491526  
      55A      0.515404    56A      0.518718    57A      0.527151  
      58A      0.541965    59A      0.555754    60A      0.565924  
      61A      0.601862    62A      0.621486    63A      0.632539  
      64A      0.637454    65A      0.652267    66A      0.653485  
      67A      0.657887    68A      0.714225    69A      0.745116  
      70A      0.751815    71A      0.761988    72A      0.774898  
      73A      0.776065    74A      0.794491    75A      0.794601  
      76A      0.838823    77A      0.857761    78A      0.861561  
      79A      0.880625    80A      0.960295    81A      0.963839  
      82A      0.973197    83A      1.004133    84A      1.032303  
      85A      1.041335    86A      1.047639    87A      1.054176  
      88A      1.083263    89A      1.105855    90A      1.112442  
      91A      1.119011    92A      1.137763    93A      1.150031  
      94A      1.181756    95A      1.186527    96A      1.207094  
      97A      1.226319    98A      1.234714    99A      1.250755  
     100A      1.273604   101A      1.304790   102A      1.307304  
     103A      1.326407   104A      1.331577   105A      1.337938  
     106A      1.356990   107A      1.367905   108A      1.371830  
     109A      1.388120   110A      1.393064   111A      1.404432  
     112A      1.430826   113A      1.447449   114A      1.472487  
     115A      1.477448   116A      1.493301   117A      1.511287  
     118A      1.533125   119A      1.556932   120A      1.564476  
     121A      1.567608   122A      1.589295   123A      1.605333  
     124A      1.614645   125A      1.641445   126A      1.665629  
     127A      1.666400   128A      1.683881   129A      1.688741  
     130A      1.689115   131A      1.766226   132A      1.777355  
     133A      1.780705   134A      1.797897   135A      1.810610  
     136A      1.889964   137A      1.907594   138A      1.909708  
     139A      1.979798   140A      1.984101   141A      1.998616  
     142A      2.080795   143A      2.083977   144A      2.231382  
     145A      2.287952   146A      2.319059   147A      2.403842  
     148A      2.408404   149A      2.493973   150A      2.538200  
     151A      2.703556   152A      2.748719   153A      2.749960  
     154A      2.798418   155A      2.807363   156A      2.839075  
     157A      2.873535   158A      2.938335   159A      3.077444  
     160A      3.091061   161A      3.122157   162A      3.181962  
     163A      3.185186   164A      3.206882   165A      3.226978  
     166A      3.272271   167A      3.282820   168A      3.328716  
     169A      3.339588   170A      3.388200   171A      3.406504  
     172A      3.437636   173A      3.451297   174A      3.493803  
     175A      3.499886   176A      3.506314   177A      3.519372  
     178A      3.538884   179A      3.546732   180A      3.550547  
     181A      3.562679   182A      3.570690   183A      3.587261  
     184A      3.594685   185A      3.602186   186A      3.611713  
     187A      3.661638   188A      3.721245   189A      3.736081  
     190A      3.777372   191A      3.793563   192A      3.794765  
     193A      3.800846   194A      3.815674   195A      3.815909  
     196A      3.824591   197A      3.847188   198A      3.852483  
     199A      3.867050   200A      3.905157   201A      3.909255  
     202A      3.929764   203A      3.938610   204A      3.947278  
     205A      4.056356   206A      4.072831   207A      4.082150  
     208A      4.090182   209A      4.155688   210A      4.160835  
     211A      4.173844   212A      4.181859   213A      4.187803  
     214A      4.205261   215A      4.216859   216A      4.224056  
     217A      4.282299   218A      4.287818   219A      4.321028  
     220A      4.340036   221A      4.358402   222A      4.405543  
     223A      4.416584   224A      4.427354   225A      4.436996  
     226A      4.459632   227A      4.466849   228A      4.489413  
     229A      4.491926   230A      4.495925   231A      4.501056  
     232A      4.509140   233A      4.515263   234A      4.531272  
     235A      4.544860   236A      4.545207   237A      4.599745  
     238A      4.600631   239A      4.652785   240A      4.672977  
     241A      4.690349   242A      4.714232   243A      4.717883  
     244A      4.720695   245A      4.728817   246A      4.746041  
     247A      4.764464   248A      4.791497   249A      4.796177  
     250A      4.804970   251A      4.815217   252A      4.844714  
     253A      4.856719   254A      4.893568   255A      4.920988  
     256A      4.923579   257A      4.949004   258A      4.959265  
     259A      4.972899   260A      4.982704   261A      4.999878  
     262A      5.020836   263A      5.023555   264A      5.081800  
     265A      5.129221   266A      5.178769   267A      5.208115  
     268A      5.211245   269A      5.261946   270A      5.273273  
     271A      5.288297   272A      5.318143   273A      5.328129  
     274A      5.344386   275A      5.355183   276A      5.388293  
     277A      5.396512   278A      5.410617   279A      5.643451  
     280A      5.653017   281A      5.688893   282A      5.702321  
     283A      5.718175   284A      5.720544   285A      5.757244  
     286A      5.758325   287A      5.773810   288A      5.775260  
     289A      5.794570   290A      5.912090   291A      5.915043  
     292A      5.919880   293A      5.997871   294A      6.000853  
     295A      6.225558   296A      6.321121   297A      6.326028  
     298A      6.348719   299A      6.365333   300A      6.394907  
     301A      6.441196   302A      6.452536   303A      6.456894  
     304A      6.473783   305A      6.497223   306A      6.529682  
     307A      6.799860   308A      6.888851   309A      7.348546  
     310A      7.494765   311A      7.498356   312A      7.647923  
     313A      7.673112   314A      7.791714   315A      7.795019  
     316A      7.894025   317A      7.906573   318A      8.244789  
     319A      9.719096   320A      9.875906   321A     14.229989  
     322A     14.582523   323A     45.053625   324A     45.482140  

    Final Occupation by Irrep:
              A 
    DOCC [     9 ]

  @DF-RHF Final Energy:   -79.26014500649215

   => Energetics <=

    Nuclear Repulsion Energy =             42.3400412522638518
    One-Electron Energy =                -189.2849452927373477
    Two-Electron Energy =                  67.6847590339813365
    Total Energy =                        -79.2601450064921522

Computation Completed


Properties will be evaluated at   0.000000,   0.000000,   0.000000 [a0]

Properties computed using the SCF density matrix

  Nuclear Dipole Moment: [e a0]
     X:   -62.8705      Y:     0.0000      Z:    -0.0088

  Electronic Dipole Moment: [e a0]
     X:    62.8703      Y:    -0.0000      Z:     0.0088

  Dipole Moment: [e a0]
     X:    -0.0003      Y:     0.0000      Z:    -0.0000     Total:     0.0003

  Dipole Moment: [D]
     X:    -0.0007      Y:     0.0000      Z:    -0.0000     Total:     0.0007


*** tstop() called on r282 at Thu Sep  9 10:44:03 2021
Module time:
	user time   =       4.96 seconds =       0.08 minutes
	system time =       0.15 seconds =       0.00 minutes
	total time  =          5 seconds =       0.08 minutes
Total time:
	user time   =      20.85 seconds =       0.35 minutes
	system time =       0.61 seconds =       0.01 minutes
	total time  =         21 seconds =       0.35 minutes
  Constructing Basis Sets for SAPT...

   => Loading Basis Set <=

    Name: (JUN-CC-PVTZ AUX)
    Role: RIFIT
    Keyword: DF_BASIS_SAPT
    atoms 1-2, 9-10  entry C          line   132 file /home/r08543048/miniconda3/share/psi4/basis/jun-cc-pvtz-ri.gbs 
    atoms 3-8, 11-16 entry H          line    30 file /home/r08543048/miniconda3/share/psi4/basis/jun-cc-pvtz-ri.gbs 


  //>>>>>>>>>>>>>>>>>>>>>>>>>>>>>>>>>>>//
  //               SAPT0               //
  //<<<<<<<<<<<<<<<<<<<<<<<<<<<<<<<<<<<//


*** tstart() called on r282
*** at Thu Sep  9 10:44:03 2021

        SAPT0  
    Ed Hohenstein
     6 June 2009

      Orbital Information
  --------------------------
    NSO        =       324
    NMO        =       324
    NRI        =       748
    NOCC A     =         9
    NOCC B     =         9
    FOCC A     =         2
    FOCC B     =         2
    NVIR A     =       315
    NVIR B     =       315

    Elst10,r            =    -0.000915018745 [Eh]
    Exch10              =     0.003101532567 [Eh]
    Exch10 (S^2)        =     0.003096011532 [Eh]

    Iter     Energy [mEh]          dE [mEh]         Residual      Time [s]
       1      -0.18458002       0.184580022       1.638458823             0
       2      -0.22164114       0.037061120       0.205936120             1
       3      -0.22099166      -0.000649484       0.067929499             1
       4      -0.22076926      -0.000222398       0.014917011             1
       5      -0.22082366       0.000054397       0.002874793             1
       6      -0.22082256      -0.000001093       0.000524344             1
       7      -0.22082135      -0.000001211       0.000087485             2
       8      -0.22082150       0.000000145       0.000019387             2
       9      -0.22082151       0.000000012       0.000003422             2
      10      -0.22082150      -0.000000007       0.000000510             2

    CHF Iterations converged


    Iter     Energy [mEh]          dE [mEh]         Residual      Time [s]
       1      -0.18457962       0.184579622       1.638457009             1
       2      -0.22164065       0.037061026       0.205936232             1
       3      -0.22099117      -0.000649478       0.067929656             1
       4      -0.22076877      -0.000222400       0.014916993             1
       5      -0.22082317       0.000054397       0.002874778             2
       6      -0.22082207      -0.000001094       0.000524340             2
       7      -0.22082086      -0.000001211       0.000087484             2
       8      -0.22082101       0.000000145       0.000019387             2
       9      -0.22082102       0.000000012       0.000003422             2
      10      -0.22082101      -0.000000007       0.000000510             3

    CHF Iterations converged

    Ind20,r (A<-B)      =    -0.000220821502 [Eh]
    Ind20,r (B<-A)      =    -0.000220821012 [Eh]
    Ind20,r             =    -0.000441642514 [Eh]
    Exch-Ind20,r (A<-B) =     0.000197036940 [Eh]
    Exch-Ind20,r (B<-A) =     0.000197036450 [Eh]
    Exch-Ind20,r        =     0.000394073391 [Eh]
    Disp20              =    -0.004315687233 [Eh]
    Disp20 (SS)         =    -0.002157843617 [Eh]
    Disp20 (OS)         =    -0.002157843617 [Eh]
    Exch-Disp20         =     0.000327886053 [Eh]
    Exch-Disp20 (SS)    =     0.000216043231 [Eh]
    Exch-Disp20 (OS)    =     0.000111842821 [Eh]

    SAPT Results 
  --------------------------------------------------------------------------------------------------------
    Electrostatics                 -0.91501874 [mEh]      -0.57418293 [kcal/mol]      -2.40238138 [kJ/mol]
      Elst10,r                     -0.91501874 [mEh]      -0.57418293 [kcal/mol]      -2.40238138 [kJ/mol]

    Exchange                        3.10153257 [mEh]       1.94624107 [kcal/mol]       8.14307263 [kJ/mol]
      Exch10                        3.10153257 [mEh]       1.94624107 [kcal/mol]       8.14307263 [kJ/mol]
      Exch10(S^2)                   3.09601153 [mEh]       1.94277657 [kcal/mol]       8.12857716 [kJ/mol]

    Induction                      -0.23796598 [mEh]      -0.14932591 [kcal/mol]      -0.62477960 [kJ/mol]
      Ind20,r                      -0.44164251 [mEh]      -0.27713486 [kcal/mol]      -1.15953226 [kJ/mol]
      Exch-Ind20,r                  0.39407339 [mEh]       0.24728479 [kcal/mol]       1.03463955 [kJ/mol]
      delta HF,r (2)               -0.19039686 [mEh]      -0.11947583 [kcal/mol]      -0.49988688 [kJ/mol]

    Dispersion                     -3.98780118 [mEh]      -2.50238302 [kcal/mol]     -10.46997056 [kJ/mol]
      Disp20                       -4.31568723 [mEh]      -2.70813462 [kcal/mol]     -11.33083527 [kJ/mol]
      Exch-Disp20                   0.32788605 [mEh]       0.20575160 [kcal/mol]       0.86086471 [kJ/mol]
      Disp20 (SS)                  -2.15784362 [mEh]      -1.35406731 [kcal/mol]      -5.66541763 [kJ/mol]
      Disp20 (OS)                  -2.15784362 [mEh]      -1.35406731 [kcal/mol]      -5.66541763 [kJ/mol]
      Exch-Disp20 (SS)              0.21604323 [mEh]       0.13556917 [kcal/mol]       0.56722143 [kJ/mol]
      Exch-Disp20 (OS)              0.11184282 [mEh]       0.07018243 [kcal/mol]       0.29364329 [kJ/mol]

  Total HF                          1.94854784 [mEh]       1.22273223 [kcal/mol]       5.11591165 [kJ/mol]
  Total SAPT0                      -2.03925334 [mEh]      -1.27965079 [kcal/mol]      -5.35405890 [kJ/mol]

  Special recipe for scaled SAPT0 (see Manual):
    Electrostatics sSAPT0          -0.91501874 [mEh]      -0.57418293 [kcal/mol]      -2.40238138 [kJ/mol]
    Exchange sSAPT0                 3.10153257 [mEh]       1.94624107 [kcal/mol]       8.14307263 [kJ/mol]
    Induction sSAPT0               -0.23585400 [mEh]      -0.14800062 [kcal/mol]      -0.61923459 [kJ/mol]
    Dispersion sSAPT0              -3.98604392 [mEh]      -2.50128032 [kcal/mol]     -10.46535687 [kJ/mol]
  Total sSAPT0                     -2.03538409 [mEh]      -1.27722280 [kcal/mol]      -5.34390020 [kJ/mol]
  --------------------------------------------------------------------------------------------------------

*** tstop() called on r282 at Thu Sep  9 10:44:22 2021
Module time:
	user time   =      15.53 seconds =       0.26 minutes
	system time =       3.52 seconds =       0.06 minutes
	total time  =         19 seconds =       0.32 minutes
Total time:
	user time   =      36.48 seconds =       0.61 minutes
	system time =       4.13 seconds =       0.07 minutes
	total time  =         40 seconds =       0.67 minutes

    Psi4 stopped on: Thursday, 09 September 2021 10:44AM
    Psi4 wall time for execution: 0:00:40.70

*** Psi4 exiting successfully. Buy a developer a beer!
