
    -----------------------------------------------------------------------
          Psi4: An Open-Source Ab Initio Electronic Structure Package
                               Psi4 1.3.2 release

                         Git: Rev {HEAD} ecbda83 


    R. M. Parrish, L. A. Burns, D. G. A. Smith, A. C. Simmonett,
    A. E. DePrince III, E. G. Hohenstein, U. Bozkaya, A. Yu. Sokolov,
    R. Di Remigio, R. M. Richard, J. F. Gonthier, A. M. James,
    H. R. McAlexander, A. Kumar, M. Saitow, X. Wang, B. P. Pritchard,
    P. Verma, H. F. Schaefer III, K. Patkowski, R. A. King, E. F. Valeev,
    F. A. Evangelista, J. M. Turney, T. D. Crawford, and C. D. Sherrill,
    J. Chem. Theory Comput. 13(7) pp 3185--3197 (2017).
    (doi: 10.1021/acs.jctc.7b00174)


                         Additional Contributions by
    P. Kraus, H. Kruse, M. H. Lechner, M. C. Schieber, R. A. Shaw,
    A. Alenaizan, R. Galvelis, Z. L. Glick, S. Lehtola, and J. P. Misiewicz

    -----------------------------------------------------------------------


    Psi4 started on: Thursday, 09 September 2021 10:27AM

    Process ID: 53879
    Host:       r282
    PSIDATADIR: /home/r08543048/miniconda3/share/psi4
    Memory:     500.0 MiB
    Threads:    1
    
  ==> Input File <==

--------------------------------------------------------------------------
# Any line starting with the # character is a comment line
#! Sample  computation

memory 22 gb

molecule Dimer {
 
0 1                               
 C    1.90112100   -2.52738800    0.33524500
 H    2.73368100   -2.55542800    1.03952200
 H    0.97620100   -2.56332700    0.91243800
 H    1.94839000   -3.42846400   -0.27616400
 C    1.95917800   -1.26511900   -0.51621700
 H    1.13809600   -1.26696300   -1.23881300
 H    2.88321500   -1.25626100   -1.10084600
 C    1.88566500    0.00651000    0.31911900
 H    0.95834700    0.00325300    0.90179900
 H    2.70562300    0.00961300    1.04510300
 C    1.94994400    1.27836900   -0.51662700
 H    1.12876900    1.27408900   -1.23911100
 H    2.87394600    1.27594900   -1.10138100
 C    1.88294900    2.54043900    0.33447600
 H    2.71549900    2.57476000    1.03849000
 H    1.92346700    3.44165300   -0.27721700
 H    0.95796300    2.56981300    0.91194000

 
 --
0 1
 C    -1.90137400    2.52746200   -0.33449600
 H    -0.97659800    2.56356000   -0.91192200
 H    -2.73412800    2.55568300   -1.03854500
 H    -1.94849600    3.42836700    0.27718200
 C    -1.95918400    1.26496000    0.51664000
 H    -2.88310600    1.25588400    1.10146100
 H    -1.13794900    1.26666900    1.23906800
 C    -1.88574100   -0.00640900   -0.31910200
 H    -2.70583700   -0.00931000   -1.04493700
 H    -0.95851900   -0.00292700   -0.90195200
 C    -1.94983700   -1.27853300    0.51624700
 H    -2.87381300   -1.27641500    1.10105200
 H    -1.12862500   -1.27439300    1.23868900
 C    -1.88271800   -2.54031800   -0.33527500
 H    -0.95771300   -2.56943400   -0.91273000
 H    -1.92318100   -3.44173200    0.27612400
 H    -2.71525000   -2.57447500   -1.03932100

 
 
 
units angstrom

no_reorient
symmetry c1
}

set globals{
  basis jun-cc-pVTZ
  scf_type DF 
  freeze_core True
}

energy('sapt0')


--------------------------------------------------------------------------

  Memory set to  20.489 GiB by Python driver.

  //>>>>>>>>>>>>>>>>>>>>>>>>>>>>>>>>>>>//
  //              Dimer HF             //
  //<<<<<<<<<<<<<<<<<<<<<<<<<<<<<<<<<<<//


*** tstart() called on r282
*** at Thu Sep  9 10:27:37 2021

   => Loading Basis Set <=

    Name: JUN-CC-PVTZ
    Role: ORBITAL
    Keyword: BASIS
    atoms 1, 5, 8, 11, 14, 18, 22, 25, 28, 31                             entry C          line   217 file /home/r08543048/miniconda3/share/psi4/basis/jun-cc-pvtz.gbs 
    atoms 2-4, 6-7, 9-10, 12-13, 15-17, 19-21, 23-24, 26-27, 29-30, 32-34 entry H          line    36 file /home/r08543048/miniconda3/share/psi4/basis/jun-cc-pvtz.gbs 


         ---------------------------------------------------------
                                   SCF
               by Justin Turney, Rob Parrish, Andy Simmonett
                          and Daniel G. A. Smith
                              RHF Reference
                        1 Threads,  20980 MiB Core
         ---------------------------------------------------------

  ==> Geometry <==

    Molecular point group: c1
    Full point group: C1

    Geometry (in Angstrom), charge = 0, multiplicity = 1:

       Center              X                  Y                   Z               Mass       
    ------------   -----------------  -----------------  -----------------  -----------------
         C            1.901120876140    -2.527386899236     0.335244664019    12.000000000000
         H            2.733680876140    -2.555426899236     1.039521664019     1.007825032230
         H            0.976200876140    -2.563325899236     0.912437664019     1.007825032230
         H            1.948389876140    -3.428462899236    -0.276164335981     1.007825032230
         C            1.959177876140    -1.265117899236    -0.516217335981    12.000000000000
         H            1.138095876140    -1.266961899236    -1.238813335981     1.007825032230
         H            2.883214876140    -1.256259899236    -1.100846335981     1.007825032230
         C            1.885664876140     0.006511100764     0.319118664019    12.000000000000
         H            0.958346876140     0.003254100764     0.901798664019     1.007825032230
         H            2.705622876140     0.009614100764     1.045102664019     1.007825032230
         C            1.949943876140     1.278370100764    -0.516627335981    12.000000000000
         H            1.128768876140     1.274090100764    -1.239111335981     1.007825032230
         H            2.873945876140     1.275950100764    -1.101381335981     1.007825032230
         C            1.882948876140     2.540440100764     0.334475664019    12.000000000000
         H            2.715498876140     2.574761100764     1.038489664019     1.007825032230
         H            1.923466876140     3.441654100764    -0.277217335981     1.007825032230
         H            0.957962876140     2.569814100764     0.911939664019     1.007825032230
         C           -1.901374123860     2.527463100764    -0.334496335981    12.000000000000
         H           -0.976598123860     2.563561100764    -0.911922335981     1.007825032230
         H           -2.734128123860     2.555684100764    -1.038545335981     1.007825032230
         H           -1.948496123860     3.428368100764     0.277181664019     1.007825032230
         C           -1.959184123860     1.264961100764     0.516639664019    12.000000000000
         H           -2.883106123860     1.255885100764     1.101460664019     1.007825032230
         H           -1.137949123860     1.266670100764     1.239067664019     1.007825032230
         C           -1.885741123860    -0.006407899236    -0.319102335981    12.000000000000
         H           -2.705837123860    -0.009308899236    -1.044937335981     1.007825032230
         H           -0.958519123860    -0.002925899236    -0.901952335981     1.007825032230
         C           -1.949837123860    -1.278531899236     0.516246664019    12.000000000000
         H           -2.873813123860    -1.276413899236     1.101051664019     1.007825032230
         H           -1.128625123860    -1.274391899236     1.238688664019     1.007825032230
         C           -1.882718123860    -2.540316899236    -0.335275335981    12.000000000000
         H           -0.957713123860    -2.569432899236    -0.912730335981     1.007825032230
         H           -1.923181123860    -3.441730899236     0.276123664019     1.007825032230
         H           -2.715250123860    -2.574473899236    -1.039321335981     1.007825032230

  Running in c1 symmetry.

  Rotational constants: A =      0.03105  B =      0.02866  C =      0.01615 [cm^-1]
  Rotational constants: A =    930.71477  B =    859.33617  C =    484.08095 [MHz]
  Nuclear repulsion =  577.714280200152757

  Charge       = 0
  Multiplicity = 1
  Electrons    = 84
  Nalpha       = 42
  Nbeta        = 42

  ==> Algorithm <==

  SCF Algorithm Type is DF.
  DIIS enabled.
  MOM disabled.
  Fractional occupation disabled.
  Guess Type is SAD.
  Energy threshold   = 1.00e-08
  Density threshold  = 1.00e-08
  Integral threshold = 0.00e+00

  ==> Primary Basis <==

  Basis Set: JUN-CC-PVTZ
    Blend: JUN-CC-PVTZ
    Number of shells: 274
    Number of basis function: 726
    Number of Cartesian functions: 810
    Spherical Harmonics?: true
    Max angular momentum: 3

   => Loading Basis Set <=

    Name: (JUN-CC-PVTZ AUX)
    Role: JKFIT
    Keyword: DF_BASIS_SCF
    atoms 1, 5, 8, 11, 14, 18, 22, 25, 28, 31                             entry C          line   152 file /home/r08543048/miniconda3/share/psi4/basis/jun-cc-pvtz-jkfit.gbs 
    atoms 2-4, 6-7, 9-10, 12-13, 15-17, 19-21, 23-24, 26-27, 29-30, 32-34 entry H          line    70 file /home/r08543048/miniconda3/share/psi4/basis/jun-cc-pvtz-jkfit.gbs 

  ==> Pre-Iterations <==

   -------------------------------------------------------
    Irrep   Nso     Nmo     Nalpha   Nbeta   Ndocc  Nsocc
   -------------------------------------------------------
     A        726     726       0       0       0       0
   -------------------------------------------------------
    Total     726     726      42      42      42       0
   -------------------------------------------------------

  ==> Integral Setup <==

  ==> DiskDFJK: Density-Fitted J/K Matrices <==

    J tasked:                  Yes
    K tasked:                  Yes
    wK tasked:                  No
    OpenMP threads:              1
    Integrals threads:           1
    Memory [MiB]:            15735
    Algorithm:                Core
    Integral Cache:           SAVE
    Schwarz Cutoff:          1E-12
    Fitting Condition:       1E-10

   => Auxiliary Basis Set <=

  Basis Set: (JUN-CC-PVTZ AUX)
    Blend: JUN-CC-PVTZ-JKFIT
    Number of shells: 530
    Number of basis function: 1670
    Number of Cartesian functions: 2000
    Spherical Harmonics?: true
    Max angular momentum: 4

  Minimum eigenvalue in the overlap matrix is 2.7913522441E-05.
  Using Symmetric Orthogonalization.

  SCF Guess: Superposition of Atomic Densities via on-the-fly atomic UHF.

  ==> Iterations <==

                           Total Energy        Delta E     RMS |[F,P]|

   @DF-RHF iter SAD:  -391.99205614212218   -3.91992e+02   0.00000e+00 
   @DF-RHF iter   1:  -392.30701796235110   -3.14962e-01   1.21838e-03 DIIS
   @DF-RHF iter   2:  -392.71013987053431   -4.03122e-01   5.56774e-04 DIIS
   @DF-RHF iter   3:  -392.79594082989695   -8.58010e-02   1.03431e-04 DIIS
   @DF-RHF iter   4:  -392.80183247606300   -5.89165e-03   2.34551e-05 DIIS
   @DF-RHF iter   5:  -392.80204999068803   -2.17515e-04   6.47790e-06 DIIS
   @DF-RHF iter   6:  -392.80206935960234   -1.93689e-05   1.02981e-06 DIIS
   @DF-RHF iter   7:  -392.80206995218276   -5.92580e-07   2.32803e-07 DIIS
   @DF-RHF iter   8:  -392.80206998145485   -2.92721e-08   5.25181e-08 DIIS
   @DF-RHF iter   9:  -392.80206998277617   -1.32133e-09   1.35375e-08 DIIS
   @DF-RHF iter  10:  -392.80206998289412   -1.17950e-10   2.68063e-09 DIIS
  Energy and wave function converged.


  ==> Post-Iterations <==

    Orbital Energies [Eh]
    ---------------------

    Doubly Occupied:                                                      

       1A    -11.213474     2A    -11.213473     3A    -11.213409  
       4A    -11.213408     5A    -11.210818     6A    -11.210815  
       7A    -11.207327     8A    -11.207326     9A    -11.207326  
      10A    -11.207324    11A     -1.084132    12A     -1.079301  
      13A     -1.017857    14A     -1.013385    15A     -0.921362  
      16A     -0.916902    17A     -0.820113    18A     -0.819970  
      19A     -0.788564    20A     -0.782588    21A     -0.661965  
      22A     -0.634547    23A     -0.605020    24A     -0.600468  
      25A     -0.596949    26A     -0.582070    27A     -0.555473  
      28A     -0.553082    29A     -0.547571    30A     -0.547120  
      31A     -0.534860    32A     -0.517749    33A     -0.495757  
      34A     -0.493443    35A     -0.479001    36A     -0.474094  
      37A     -0.469716    38A     -0.467046    39A     -0.456927  
      40A     -0.450029    41A     -0.447580    42A     -0.446222  

    Virtual:                                                              

      43A      0.047642    44A      0.049221    45A      0.049562  
      46A      0.056460    47A      0.065572    48A      0.067442  
      49A      0.072102    50A      0.075806    51A      0.082983  
      52A      0.089283    53A      0.091391    54A      0.104152  
      55A      0.108346    56A      0.109267    57A      0.114515  
      58A      0.118371    59A      0.123509    60A      0.128582  
      61A      0.136658    62A      0.138001    63A      0.144619  
      64A      0.147976    65A      0.159584    66A      0.162297  
      67A      0.162631    68A      0.165477    69A      0.167154  
      70A      0.172785    71A      0.177075    72A      0.182774  
      73A      0.201983    74A      0.202617    75A      0.204994  
      76A      0.214185    77A      0.215825    78A      0.219181  
      79A      0.223650    80A      0.224780    81A      0.231056  
      82A      0.238032    83A      0.255763    84A      0.258148  
      85A      0.266682    86A      0.278340    87A      0.281100  
      88A      0.285180    89A      0.291759    90A      0.297474  
      91A      0.298391    92A      0.304033    93A      0.307221  
      94A      0.320940    95A      0.321009    96A      0.323315  
      97A      0.328311    98A      0.330879    99A      0.331241  
     100A      0.331445   101A      0.333514   102A      0.334877  
     103A      0.339543   104A      0.341161   105A      0.349023  
     106A      0.359225   107A      0.363324   108A      0.368420  
     109A      0.370219   110A      0.377402   111A      0.378856  
     112A      0.387193   113A      0.397039   114A      0.404699  
     115A      0.405509   116A      0.408730   117A      0.410789  
     118A      0.415658   119A      0.421803   120A      0.427351  
     121A      0.428957   122A      0.439483   123A      0.445315  
     124A      0.446666   125A      0.446900   126A      0.457407  
     127A      0.463637   128A      0.463754   129A      0.470181  
     130A      0.473714   131A      0.475710   132A      0.492298  
     133A      0.495465   134A      0.500838   135A      0.502605  
     136A      0.509565   137A      0.522975   138A      0.526944  
     139A      0.531817   140A      0.541237   141A      0.543729  
     142A      0.547632   143A      0.549441   144A      0.560619  
     145A      0.560667   146A      0.564092   147A      0.569575  
     148A      0.577617   149A      0.585768   150A      0.586933  
     151A      0.590495   152A      0.594327   153A      0.602767  
     154A      0.604035   155A      0.611568   156A      0.624769  
     157A      0.629847   158A      0.630537   159A      0.636350  
     160A      0.653635   161A      0.659051   162A      0.665330  
     163A      0.667845   164A      0.690252   165A      0.695623  
     166A      0.695856   167A      0.697033   168A      0.699744  
     169A      0.715342   170A      0.716393   171A      0.730727  
     172A      0.739308   173A      0.749614   174A      0.752541  
     175A      0.757419   176A      0.760165   177A      0.770364  
     178A      0.777321   179A      0.785439   180A      0.793564  
     181A      0.795103   182A      0.799037   183A      0.808808  
     184A      0.817706   185A      0.828252   186A      0.828940  
     187A      0.830964   188A      0.835784   189A      0.847592  
     190A      0.855107   191A      0.858094   192A      0.860104  
     193A      0.868413   194A      0.870775   195A      0.873525  
     196A      0.876799   197A      0.877817   198A      0.893505  
     199A      0.895261   200A      0.895696   201A      0.903186  
     202A      0.909789   203A      0.912995   204A      0.915301  
     205A      0.918092   206A      0.939049   207A      0.939730  
     208A      0.942978   209A      0.945748   210A      0.948018  
     211A      0.960621   212A      0.968733   213A      0.995784  
     214A      1.004440   215A      1.009401   216A      1.013889  
     217A      1.016637   218A      1.017650   219A      1.043616  
     220A      1.049077   221A      1.066268   222A      1.066632  
     223A      1.081586   224A      1.089673   225A      1.106431  
     226A      1.122512   227A      1.137122   228A      1.145533  
     229A      1.147390   230A      1.149398   231A      1.157972  
     232A      1.168618   233A      1.175867   234A      1.190040  
     235A      1.212091   236A      1.225949   237A      1.233534  
     238A      1.233951   239A      1.242501   240A      1.251887  
     241A      1.260745   242A      1.265431   243A      1.274114  
     244A      1.276802   245A      1.290886   246A      1.303194  
     247A      1.303224   248A      1.312937   249A      1.313585  
     250A      1.322893   251A      1.327496   252A      1.336753  
     253A      1.342978   254A      1.366805   255A      1.382587  
     256A      1.396977   257A      1.398757   258A      1.403256  
     259A      1.406026   260A      1.414412   261A      1.414852  
     262A      1.422599   263A      1.426797   264A      1.437849  
     265A      1.438908   266A      1.448986   267A      1.456310  
     268A      1.464143   269A      1.468955   270A      1.478542  
     271A      1.478662   272A      1.487618   273A      1.491293  
     274A      1.500061   275A      1.504103   276A      1.504579  
     277A      1.526186   278A      1.530793   279A      1.539833  
     280A      1.544543   281A      1.552990   282A      1.564455  
     283A      1.568929   284A      1.573590   285A      1.578333  
     286A      1.578369   287A      1.591986   288A      1.592536  
     289A      1.602254   290A      1.605244   291A      1.607808  
     292A      1.609497   293A      1.615780   294A      1.616904  
     295A      1.625783   296A      1.634988   297A      1.652149  
     298A      1.655751   299A      1.658248   300A      1.662504  
     301A      1.663510   302A      1.690821   303A      1.697673  
     304A      1.697879   305A      1.706420   306A      1.709641  
     307A      1.723762   308A      1.742756   309A      1.750562  
     310A      1.751175   311A      1.764691   312A      1.789447  
     313A      1.794821   314A      1.800236   315A      1.817080  
     316A      1.823101   317A      1.823978   318A      1.826726  
     319A      1.842336   320A      1.843205   321A      1.858075  
     322A      1.868294   323A      1.874533   324A      1.875934  
     325A      1.881946   326A      1.900302   327A      1.905916  
     328A      1.934998   329A      1.941052   330A      1.944356  
     331A      1.950522   332A      1.959552   333A      1.965891  
     334A      1.984746   335A      1.986163   336A      1.989554  
     337A      1.990818   338A      1.998623   339A      2.057888  
     340A      2.066541   341A      2.081070   342A      2.090123  
     343A      2.096468   344A      2.101237   345A      2.130012  
     346A      2.132778   347A      2.152995   348A      2.173112  
     349A      2.219793   350A      2.285776   351A      2.755674  
     352A      2.758011   353A      2.766825   354A      2.767946  
     355A      2.786950   356A      2.804217   357A      2.807768  
     358A      2.844324   359A      2.844692   360A      2.857649  
     361A      2.858554   362A      2.862737   363A      2.878513  
     364A      2.881465   365A      2.883280   366A      2.891237  
     367A      2.911036   368A      2.919531   369A      2.924426  
     370A      2.940356   371A      2.942811   372A      2.962220  
     373A      2.967772   374A      2.974024   375A      2.980733  
     376A      3.003741   377A      3.007150   378A      3.010859  
     379A      3.034549   380A      3.052395   381A      3.054774  
     382A      3.058294   383A      3.072486   384A      3.084608  
     385A      3.087610   386A      3.112991   387A      3.125370  
     388A      3.133824   389A      3.135740   390A      3.141282  
     391A      3.145738   392A      3.152063   393A      3.161069  
     394A      3.165527   395A      3.176223   396A      3.176227  
     397A      3.183084   398A      3.191375   399A      3.208457  
     400A      3.212467   401A      3.229195   402A      3.233852  
     403A      3.234638   404A      3.239633   405A      3.248512  
     406A      3.269659   407A      3.270238   408A      3.292004  
     409A      3.296599   410A      3.303411   411A      3.313797  
     412A      3.317130   413A      3.337991   414A      3.338054  
     415A      3.343933   416A      3.351219   417A      3.351284  
     418A      3.352049   419A      3.377866   420A      3.379182  
     421A      3.382793   422A      3.385074   423A      3.392967  
     424A      3.400941   425A      3.406284   426A      3.421373  
     427A      3.423291   428A      3.439598   429A      3.444990  
     430A      3.446132   431A      3.453770   432A      3.456623  
     433A      3.457438   434A      3.473660   435A      3.475236  
     436A      3.484286   437A      3.484856   438A      3.492880  
     439A      3.495336   440A      3.496012   441A      3.507139  
     442A      3.507819   443A      3.511660   444A      3.512109  
     445A      3.513707   446A      3.522717   447A      3.532354  
     448A      3.541246   449A      3.557879   450A      3.561941  
     451A      3.562860   452A      3.566378   453A      3.577822  
     454A      3.593008   455A      3.594917   456A      3.597360  
     457A      3.598281   458A      3.606627   459A      3.613573  
     460A      3.636420   461A      3.637921   462A      3.642139  
     463A      3.643409   464A      3.644914   465A      3.661834  
     466A      3.673103   467A      3.677010   468A      3.680307  
     469A      3.704318   470A      3.704544   471A      3.711913  
     472A      3.725314   473A      3.733586   474A      3.739483  
     475A      3.748366   476A      3.759785   477A      3.778981  
     478A      3.784702   479A      3.795990   480A      3.799534  
     481A      3.809460   482A      3.817667   483A      3.827793  
     484A      3.843037   485A      3.857624   486A      3.858854  
     487A      3.869110   488A      3.872550   489A      3.887934  
     490A      3.890689   491A      3.905396   492A      3.906378  
     493A      3.939860   494A      3.942036   495A      3.952949  
     496A      3.954337   497A      3.957298   498A      3.960820  
     499A      3.962769   500A      3.963296   501A      3.970973  
     502A      3.971973   503A      3.985900   504A      3.997998  
     505A      4.004138   506A      4.010038   507A      4.032048  
     508A      4.032691   509A      4.038067   510A      4.045889  
     511A      4.066431   512A      4.082325   513A      4.100774  
     514A      4.106231   515A      4.133866   516A      4.163380  
     517A      4.166597   518A      4.173460   519A      4.198089  
     520A      4.204650   521A      4.224145   522A      4.230468  
     523A      4.231519   524A      4.248273   525A      4.249715  
     526A      4.250596   527A      4.258101   528A      4.258105  
     529A      4.277438   530A      4.279078   531A      4.282624  
     532A      4.284900   533A      4.287846   534A      4.308520  
     535A      4.309793   536A      4.313528   537A      4.320514  
     538A      4.329114   539A      4.339172   540A      4.346058  
     541A      4.358852   542A      4.368065   543A      4.373421  
     544A      4.385163   545A      4.389168   546A      4.390922  
     547A      4.399946   548A      4.409331   549A      4.413656  
     550A      4.414170   551A      4.421308   552A      4.426715  
     553A      4.431906   554A      4.448868   555A      4.455615  
     556A      4.455909   557A      4.467127   558A      4.469374  
     559A      4.482310   560A      4.485387   561A      4.488987  
     562A      4.493814   563A      4.503736   564A      4.523636  
     565A      4.532213   566A      4.536513   567A      4.537701  
     568A      4.544145   569A      4.561844   570A      4.577341  
     571A      4.578865   572A      4.580047   573A      4.592062  
     574A      4.593279   575A      4.609377   576A      4.609404  
     577A      4.612450   578A      4.619492   579A      4.630176  
     580A      4.635431   581A      4.647633   582A      4.655130  
     583A      4.659596   584A      4.666276   585A      4.679747  
     586A      4.683385   587A      4.698538   588A      4.709745  
     589A      4.724272   590A      4.728918   591A      4.756482  
     592A      4.760891   593A      4.766364   594A      4.771505  
     595A      4.805783   596A      4.817942   597A      4.820957  
     598A      4.829757   599A      4.855953   600A      4.858204  
     601A      4.859273   602A      4.890135   603A      4.913017  
     604A      4.917317   605A      4.917508   606A      4.923296  
     607A      4.941250   608A      4.948336   609A      4.981472  
     610A      4.999907   611A      5.005271   612A      5.012850  
     613A      5.015286   614A      5.032578   615A      5.090202  
     616A      5.101009   617A      5.107261   618A      5.120173  
     619A      5.133282   620A      5.138183   621A      5.179684  
     622A      5.187206   623A      5.188380   624A      5.201745  
     625A      5.219603   626A      5.228626   627A      5.229951  
     628A      5.233666   629A      5.244593   630A      5.263639  
     631A      5.266737   632A      5.277410   633A      5.283127  
     634A      5.306593   635A      5.317170   636A      5.322490  
     637A      5.324832   638A      5.325118   639A      5.325824  
     640A      5.330216   641A      5.333795   642A      5.342532  
     643A      5.356423   644A      5.361116   645A      5.375666  
     646A      5.385834   647A      5.389142   648A      5.437803  
     649A      5.462427   650A      5.464416   651A      5.475729  
     652A      5.483857   653A      5.491620   654A      5.493489  
     655A      5.509879   656A      5.512266   657A      5.545910  
     658A      5.549707   659A      5.558761   660A      5.582477  
     661A      5.627242   662A      5.629526   663A      5.633175  
     664A      5.652145   665A      5.674103   666A      5.674284  
     667A      5.695559   668A      5.697347   669A      5.768804  
     670A      5.776563   671A      5.778116   672A      5.779285  
     673A      5.785367   674A      5.789846   675A      5.795498  
     676A      5.795764   677A      5.828997   678A      5.836514  
     679A      5.838325   680A      5.854375   681A      5.883458  
     682A      5.916998   683A      5.920802   684A      5.921480  
     685A      5.925833   686A      5.931471   687A      5.936596  
     688A      5.954136   689A      5.968063   690A      5.974414  
     691A      5.976292   692A      5.982835   693A      5.998626  
     694A      6.010599   695A      6.041117   696A      6.043056  
     697A      6.121508   698A      6.122613   699A      6.189791  
     700A      6.195409   701A      6.257767   702A      6.259756  
     703A      6.524996   704A      6.529162   705A      6.532679  
     706A      6.536103   707A      6.547967   708A      6.560199  
     709A      6.565994   710A      6.568353   711A      6.588679  
     712A      6.636126   713A      6.648226   714A      6.677177  
     715A      6.687796   716A      6.697550   717A     13.742594  
     718A     13.866829   719A     14.117262   720A     14.162317  
     721A     14.459359   722A     14.460336   723A     14.554832  
     724A     14.616229   725A     14.743749   726A     14.754902  

    Final Occupation by Irrep:
              A 
    DOCC [    42 ]

  @DF-RHF Final Energy:  -392.80206998289412

   => Energetics <=

    Nuclear Repulsion Energy =            577.7142802001527571
    One-Electron Energy =               -1675.1015708899453784
    Two-Electron Energy =                 704.5852207068985535
    Total Energy =                       -392.8020699828941815

Computation Completed


Properties will be evaluated at   0.000000,   0.000000,   0.000000 [a0]

Properties computed using the SCF density matrix

  Nuclear Dipole Moment: [e a0]
     X:    -0.0000      Y:     0.0002      Z:    -0.0001

  Electronic Dipole Moment: [e a0]
     X:     0.0000      Y:    -0.0002      Z:     0.0001

  Dipole Moment: [e a0]
     X:    -0.0000      Y:    -0.0000      Z:     0.0000     Total:     0.0000

  Dipole Moment: [D]
     X:    -0.0000      Y:    -0.0000      Z:     0.0000     Total:     0.0000


*** tstop() called on r282 at Thu Sep  9 10:31:48 2021
Module time:
	user time   =     245.96 seconds =       4.10 minutes
	system time =       5.32 seconds =       0.09 minutes
	total time  =        251 seconds =       4.18 minutes
Total time:
	user time   =     245.96 seconds =       4.10 minutes
	system time =       5.32 seconds =       0.09 minutes
	total time  =        251 seconds =       4.18 minutes

  //>>>>>>>>>>>>>>>>>>>>>>>>>>>>>>>>>>>//
  //            Monomer A HF           //
  //<<<<<<<<<<<<<<<<<<<<<<<<<<<<<<<<<<<//


*** tstart() called on r282
*** at Thu Sep  9 10:31:48 2021

   => Loading Basis Set <=

    Name: JUN-CC-PVTZ
    Role: ORBITAL
    Keyword: BASIS
    atoms 1, 5, 8, 11, 14, 18, 22, 25, 28, 31                             entry C          line   217 file /home/r08543048/miniconda3/share/psi4/basis/jun-cc-pvtz.gbs 
    atoms 2-4, 6-7, 9-10, 12-13, 15-17, 19-21, 23-24, 26-27, 29-30, 32-34 entry H          line    36 file /home/r08543048/miniconda3/share/psi4/basis/jun-cc-pvtz.gbs 


         ---------------------------------------------------------
                                   SCF
               by Justin Turney, Rob Parrish, Andy Simmonett
                          and Daniel G. A. Smith
                              RHF Reference
                        1 Threads,  20980 MiB Core
         ---------------------------------------------------------

  ==> Geometry <==

    Molecular point group: c1
    Full point group: C1

    Geometry (in Angstrom), charge = 0, multiplicity = 1:

       Center              X                  Y                   Z               Mass       
    ------------   -----------------  -----------------  -----------------  -----------------
         C            1.901120876140    -2.527386899236     0.335244664019    12.000000000000
         H            2.733680876140    -2.555426899236     1.039521664019     1.007825032230
         H            0.976200876140    -2.563325899236     0.912437664019     1.007825032230
         H            1.948389876140    -3.428462899236    -0.276164335981     1.007825032230
         C            1.959177876140    -1.265117899236    -0.516217335981    12.000000000000
         H            1.138095876140    -1.266961899236    -1.238813335981     1.007825032230
         H            2.883214876140    -1.256259899236    -1.100846335981     1.007825032230
         C            1.885664876140     0.006511100764     0.319118664019    12.000000000000
         H            0.958346876140     0.003254100764     0.901798664019     1.007825032230
         H            2.705622876140     0.009614100764     1.045102664019     1.007825032230
         C            1.949943876140     1.278370100764    -0.516627335981    12.000000000000
         H            1.128768876140     1.274090100764    -1.239111335981     1.007825032230
         H            2.873945876140     1.275950100764    -1.101381335981     1.007825032230
         C            1.882948876140     2.540440100764     0.334475664019    12.000000000000
         H            2.715498876140     2.574761100764     1.038489664019     1.007825032230
         H            1.923466876140     3.441654100764    -0.277217335981     1.007825032230
         H            0.957962876140     2.569814100764     0.911939664019     1.007825032230
      Gh(C)          -1.901374123860     2.527463100764    -0.334496335981    12.000000000000
      Gh(H)          -0.976598123860     2.563561100764    -0.911922335981     1.007825032230
      Gh(H)          -2.734128123860     2.555684100764    -1.038545335981     1.007825032230
      Gh(H)          -1.948496123860     3.428368100764     0.277181664019     1.007825032230
      Gh(C)          -1.959184123860     1.264961100764     0.516639664019    12.000000000000
      Gh(H)          -2.883106123860     1.255885100764     1.101460664019     1.007825032230
      Gh(H)          -1.137949123860     1.266670100764     1.239067664019     1.007825032230
      Gh(C)          -1.885741123860    -0.006407899236    -0.319102335981    12.000000000000
      Gh(H)          -2.705837123860    -0.009308899236    -1.044937335981     1.007825032230
      Gh(H)          -0.958519123860    -0.002925899236    -0.901952335981     1.007825032230
      Gh(C)          -1.949837123860    -1.278531899236     0.516246664019    12.000000000000
      Gh(H)          -2.873813123860    -1.276413899236     1.101051664019     1.007825032230
      Gh(H)          -1.128625123860    -1.274391899236     1.238688664019     1.007825032230
      Gh(C)          -1.882718123860    -2.540316899236    -0.335275335981    12.000000000000
      Gh(H)          -0.957713123860    -2.569432899236    -0.912730335981     1.007825032230
      Gh(H)          -1.923181123860    -3.441730899236     0.276123664019     1.007825032230
      Gh(H)          -2.715250123860    -2.574473899236    -1.039321335981     1.007825032230

  Running in c1 symmetry.

  Rotational constants: A =      0.03105  B =      0.02866  C =      0.01615 [cm^-1]
  Rotational constants: A =    930.71477  B =    859.33617  C =    484.08095 [MHz]
  Nuclear repulsion =  185.554951461376731

  Charge       = 0
  Multiplicity = 1
  Electrons    = 42
  Nalpha       = 21
  Nbeta        = 21

  ==> Algorithm <==

  SCF Algorithm Type is DF.
  DIIS enabled.
  MOM disabled.
  Fractional occupation disabled.
  Guess Type is SAD.
  Energy threshold   = 1.00e-08
  Density threshold  = 1.00e-08
  Integral threshold = 0.00e+00

  ==> Primary Basis <==

  Basis Set: JUN-CC-PVTZ
    Blend: JUN-CC-PVTZ
    Number of shells: 274
    Number of basis function: 726
    Number of Cartesian functions: 810
    Spherical Harmonics?: true
    Max angular momentum: 3

   => Loading Basis Set <=

    Name: (JUN-CC-PVTZ AUX)
    Role: JKFIT
    Keyword: DF_BASIS_SCF
    atoms 1, 5, 8, 11, 14, 18, 22, 25, 28, 31                             entry C          line   152 file /home/r08543048/miniconda3/share/psi4/basis/jun-cc-pvtz-jkfit.gbs 
    atoms 2-4, 6-7, 9-10, 12-13, 15-17, 19-21, 23-24, 26-27, 29-30, 32-34 entry H          line    70 file /home/r08543048/miniconda3/share/psi4/basis/jun-cc-pvtz-jkfit.gbs 

  ==> Pre-Iterations <==

   -------------------------------------------------------
    Irrep   Nso     Nmo     Nalpha   Nbeta   Ndocc  Nsocc
   -------------------------------------------------------
     A        726     726       0       0       0       0
   -------------------------------------------------------
    Total     726     726      21      21      21       0
   -------------------------------------------------------

  ==> Integral Setup <==

  ==> DiskDFJK: Density-Fitted J/K Matrices <==

    J tasked:                  Yes
    K tasked:                  Yes
    wK tasked:                  No
    OpenMP threads:              1
    Integrals threads:           1
    Memory [MiB]:            15735
    Algorithm:                Core
    Integral Cache:           LOAD
    Schwarz Cutoff:          1E-12
    Fitting Condition:       1E-10

   => Auxiliary Basis Set <=

  Basis Set: (JUN-CC-PVTZ AUX)
    Blend: JUN-CC-PVTZ-JKFIT
    Number of shells: 530
    Number of basis function: 1670
    Number of Cartesian functions: 2000
    Spherical Harmonics?: true
    Max angular momentum: 4

  Minimum eigenvalue in the overlap matrix is 2.7913522441E-05.
  Using Symmetric Orthogonalization.

  SCF Guess: Superposition of Atomic Densities via on-the-fly atomic UHF.

  ==> Iterations <==

                           Total Energy        Delta E     RMS |[F,P]|

   @DF-RHF iter SAD:  -195.86191932076989   -1.95862e+02   0.00000e+00 
   @DF-RHF iter   1:  -196.15411651789881   -2.92197e-01   8.68593e-04 DIIS
   @DF-RHF iter   2:  -196.35746024043576   -2.03344e-01   3.96268e-04 DIIS
   @DF-RHF iter   3:  -196.40074160227363   -4.32814e-02   7.09660e-05 DIIS
   @DF-RHF iter   4:  -196.40363117787561   -2.88958e-03   1.48289e-05 DIIS
   @DF-RHF iter   5:  -196.40372202135694   -9.08435e-05   4.52498e-06 DIIS
   @DF-RHF iter   6:  -196.40373116487106   -9.14351e-06   6.85014e-07 DIIS
   @DF-RHF iter   7:  -196.40373144175518   -2.76884e-07   1.42779e-07 DIIS
   @DF-RHF iter   8:  -196.40373145439503   -1.26398e-08   2.78521e-08 DIIS
   @DF-RHF iter   9:  -196.40373145488672   -4.91696e-10   8.83744e-09 DIIS
  Energy and wave function converged.


  ==> Post-Iterations <==

    Orbital Energies [Eh]
    ---------------------

    Doubly Occupied:                                                      

       1A    -11.212979     2A    -11.212906     3A    -11.210555  
       4A    -11.207405     5A    -11.207403     6A     -1.080864  
       7A     -1.014960     8A     -0.918593     9A     -0.819392  
      10A     -0.784538    11A     -0.647056    12A     -0.598013  
      13A     -0.592632    14A     -0.553466    15A     -0.547088  
      16A     -0.525623    17A     -0.494207    18A     -0.475742  
      19A     -0.461629    20A     -0.459042    21A     -0.446458  

    Virtual:                                                              

      22A      0.029056    23A      0.040732    24A      0.045484  
      25A      0.052395    26A      0.061772    27A      0.063706  
      28A      0.068852    29A      0.070710    30A      0.080592  
      31A      0.086821    32A      0.089805    33A      0.095996  
      34A      0.100286    35A      0.104864    36A      0.107805  
      37A      0.113921    38A      0.118255    39A      0.121392  
      40A      0.125989    41A      0.130910    42A      0.137545  
      43A      0.139654    44A      0.145175    45A      0.145388  
      46A      0.149663    47A      0.162014    48A      0.162498  
      49A      0.166612    50A      0.172149    51A      0.172445  
      52A      0.182080    53A      0.182858    54A      0.187465  
      55A      0.190649    56A      0.203689    57A      0.208263  
      58A      0.210268    59A      0.215705    60A      0.219084  
      61A      0.231193    62A      0.231693    63A      0.251952  
      64A      0.252126    65A      0.274501    66A      0.278583  
      67A      0.279628    68A      0.288844    69A      0.291410  
      70A      0.296666    71A      0.298144    72A      0.305969  
      73A      0.313658    74A      0.314728    75A      0.316026  
      76A      0.322568    77A      0.324025    78A      0.334205  
      79A      0.335234    80A      0.341680    81A      0.343277  
      82A      0.347177    83A      0.354210    84A      0.359321  
      85A      0.361315    86A      0.363315    87A      0.367786  
      88A      0.375417    89A      0.381496    90A      0.382482  
      91A      0.385577    92A      0.389784    93A      0.394715  
      94A      0.400213    95A      0.408604    96A      0.409910  
      97A      0.417832    98A      0.419033    99A      0.427817  
     100A      0.431934   101A      0.438634   102A      0.439513  
     103A      0.447651   104A      0.451205   105A      0.452575  
     106A      0.462093   107A      0.465784   108A      0.472532  
     109A      0.477843   110A      0.491630   111A      0.492537  
     112A      0.505072   113A      0.507062   114A      0.518739  
     115A      0.518782   116A      0.531376   117A      0.533234  
     118A      0.541715   119A      0.548177   120A      0.551353  
     121A      0.557903   122A      0.560997   123A      0.563199  
     124A      0.570024   125A      0.572251   126A      0.575328  
     127A      0.587510   128A      0.599185   129A      0.600807  
     130A      0.606582   131A      0.608231   132A      0.618100  
     133A      0.618185   134A      0.623386   135A      0.630968  
     136A      0.639183   137A      0.640383   138A      0.644884  
     139A      0.648402   140A      0.652690   141A      0.661031  
     142A      0.672151   143A      0.676832   144A      0.681963  
     145A      0.689608   146A      0.689945   147A      0.697712  
     148A      0.700173   149A      0.707443   150A      0.711015  
     151A      0.720233   152A      0.720343   153A      0.733547  
     154A      0.739587   155A      0.755678   156A      0.761612  
     157A      0.766066   158A      0.775211   159A      0.778481  
     160A      0.780536   161A      0.786018   162A      0.811401  
     163A      0.813327   164A      0.819595   165A      0.824027  
     166A      0.831392   167A      0.848566   168A      0.850942  
     169A      0.853097   170A      0.867677   171A      0.871446  
     172A      0.879553   173A      0.885803   174A      0.886743  
     175A      0.893823   176A      0.902657   177A      0.908584  
     178A      0.911860   179A      0.923080   180A      0.926860  
     181A      0.948560   182A      0.951942   183A      0.957266  
     184A      0.987959   185A      0.996969   186A      1.014445  
     187A      1.028905   188A      1.032665   189A      1.050777  
     190A      1.066891   191A      1.095664   192A      1.096843  
     193A      1.097915   194A      1.112049   195A      1.113665  
     196A      1.136650   197A      1.147812   198A      1.153626  
     199A      1.167149   200A      1.169505   201A      1.175959  
     202A      1.185568   203A      1.187714   204A      1.194873  
     205A      1.196180   206A      1.207820   207A      1.211041  
     208A      1.226188   209A      1.234833   210A      1.242744  
     211A      1.244207   212A      1.250703   213A      1.260245  
     214A      1.268219   215A      1.270925   216A      1.285795  
     217A      1.291836   218A      1.297353   219A      1.301043  
     220A      1.311357   221A      1.313424   222A      1.313486  
     223A      1.316947   224A      1.327584   225A      1.337727  
     226A      1.337901   227A      1.347255   228A      1.360964  
     229A      1.363373   230A      1.364725   231A      1.380443  
     232A      1.380814   233A      1.398926   234A      1.399982  
     235A      1.405267   236A      1.405747   237A      1.415499  
     238A      1.422388   239A      1.426399   240A      1.432254  
     241A      1.438735   242A      1.446474   243A      1.452686  
     244A      1.460331   245A      1.463857   246A      1.467406  
     247A      1.479988   248A      1.490075   249A      1.492226  
     250A      1.499803   251A      1.507541   252A      1.519794  
     253A      1.521546   254A      1.534074   255A      1.538378  
     256A      1.549715   257A      1.551088   258A      1.556119  
     259A      1.568836   260A      1.570295   261A      1.582261  
     262A      1.582918   263A      1.591872   264A      1.594794  
     265A      1.603181   266A      1.609926   267A      1.612841  
     268A      1.619904   269A      1.626566   270A      1.634580  
     271A      1.637602   272A      1.644214   273A      1.650454  
     274A      1.660387   275A      1.666029   276A      1.668366  
     277A      1.678858   278A      1.687538   279A      1.694475  
     280A      1.695637   281A      1.702033   282A      1.721511  
     283A      1.732218   284A      1.732352   285A      1.743070  
     286A      1.750836   287A      1.758707   288A      1.766156  
     289A      1.768937   290A      1.787812   291A      1.807608  
     292A      1.812931   293A      1.825624   294A      1.842688  
     295A      1.844038   296A      1.851409   297A      1.865256  
     298A      1.872703   299A      1.882625   300A      1.885439  
     301A      1.899807   302A      1.909931   303A      1.923812  
     304A      1.932846   305A      1.948323   306A      1.949057  
     307A      1.974465   308A      1.977703   309A      1.985188  
     310A      1.991060   311A      1.998354   312A      1.998976  
     313A      2.036614   314A      2.038812   315A      2.066919  
     316A      2.076007   317A      2.079791   318A      2.096992  
     319A      2.110775   320A      2.126850   321A      2.157685  
     322A      2.176148   323A      2.178508   324A      2.195371  
     325A      2.219026   326A      2.269785   327A      2.273225  
     328A      2.281788   329A      2.311055   330A      2.314308  
     331A      2.358049   332A      2.410078   333A      2.415823  
     334A      2.434649   335A      2.461231   336A      2.477621  
     337A      2.483977   338A      2.505053   339A      2.528663  
     340A      2.548431   341A      2.657518   342A      2.672519  
     343A      2.691912   344A      2.713542   345A      2.766931  
     346A      2.775175   347A      2.787916   348A      2.823924  
     349A      2.850377   350A      2.863186   351A      2.879345  
     352A      2.901209   353A      2.908079   354A      2.929638  
     355A      2.932135   356A      2.957269   357A      2.971135  
     358A      2.981099   359A      3.000143   360A      3.050473  
     361A      3.052620   362A      3.069999   363A      3.111194  
     364A      3.133244   365A      3.145734   366A      3.165218  
     367A      3.179643   368A      3.183506   369A      3.190534  
     370A      3.222047   371A      3.225767   372A      3.226941  
     373A      3.277739   374A      3.287446   375A      3.303352  
     376A      3.304123   377A      3.328600   378A      3.333869  
     379A      3.356220   380A      3.380068   381A      3.391791  
     382A      3.398185   383A      3.398602   384A      3.427151  
     385A      3.430888   386A      3.461055   387A      3.466478  
     388A      3.470696   389A      3.472852   390A      3.480945  
     391A      3.495730   392A      3.503486   393A      3.508188  
     394A      3.516876   395A      3.522817   396A      3.536126  
     397A      3.539628   398A      3.546193   399A      3.552551  
     400A      3.570604   401A      3.574369   402A      3.579881  
     403A      3.588880   404A      3.596471   405A      3.597616  
     406A      3.601042   407A      3.604948   408A      3.611096  
     409A      3.612578   410A      3.625449   411A      3.636469  
     412A      3.645496   413A      3.661143   414A      3.662531  
     415A      3.668697   416A      3.675810   417A      3.680144  
     418A      3.681262   419A      3.696016   420A      3.717776  
     421A      3.726026   422A      3.739154   423A      3.745817  
     424A      3.767832   425A      3.774238   426A      3.783359  
     427A      3.792762   428A      3.802428   429A      3.805157  
     430A      3.816709   431A      3.823728   432A      3.844684  
     433A      3.845723   434A      3.856539   435A      3.858083  
     436A      3.865748   437A      3.867037   438A      3.876245  
     439A      3.885025   440A      3.888286   441A      3.896536  
     442A      3.899353   443A      3.906599   444A      3.931151  
     445A      3.933620   446A      3.944416   447A      3.947943  
     448A      3.951344   449A      3.962646   450A      3.969406  
     451A      3.973369   452A      3.975616   453A      3.989859  
     454A      3.993502   455A      4.003380   456A      4.005352  
     457A      4.021887   458A      4.036833   459A      4.038332  
     460A      4.050533   461A      4.079837   462A      4.092593  
     463A      4.107885   464A      4.110739   465A      4.129806  
     466A      4.142798   467A      4.164267   468A      4.169011  
     469A      4.169969   470A      4.189354   471A      4.198557  
     472A      4.211241   473A      4.225182   474A      4.235575  
     475A      4.238613   476A      4.247780   477A      4.249381  
     478A      4.264117   479A      4.268698   480A      4.275972  
     481A      4.286100   482A      4.294758   483A      4.301196  
     484A      4.315192   485A      4.317907   486A      4.331482  
     487A      4.344738   488A      4.348869   489A      4.358878  
     490A      4.368563   491A      4.385309   492A      4.389739  
     493A      4.398118   494A      4.402770   495A      4.405242  
     496A      4.419823   497A      4.424697   498A      4.428583  
     499A      4.448058   500A      4.449855   501A      4.461531  
     502A      4.464604   503A      4.470913   504A      4.502174  
     505A      4.503227   506A      4.515261   507A      4.516599  
     508A      4.521512   509A      4.529390   510A      4.532892  
     511A      4.533572   512A      4.543441   513A      4.548829  
     514A      4.559241   515A      4.564926   516A      4.569716  
     517A      4.577271   518A      4.581964   519A      4.595867  
     520A      4.603648   521A      4.606630   522A      4.615098  
     523A      4.619044   524A      4.630440   525A      4.638803  
     526A      4.650041   527A      4.658481   528A      4.660748  
     529A      4.667768   530A      4.681743   531A      4.682729  
     532A      4.687031   533A      4.689398   534A      4.699293  
     535A      4.705402   536A      4.716006   537A      4.729727  
     538A      4.732942   539A      4.750716   540A      4.751120  
     541A      4.761170   542A      4.766325   543A      4.776104  
     544A      4.781558   545A      4.794795   546A      4.796356  
     547A      4.810117   548A      4.812516   549A      4.821568  
     550A      4.829898   551A      4.842484   552A      4.848174  
     553A      4.852342   554A      4.857525   555A      4.868966  
     556A      4.882153   557A      4.892910   558A      4.907881  
     559A      4.916138   560A      4.922349   561A      4.923496  
     562A      4.928079   563A      4.929185   564A      4.947968  
     565A      4.957092   566A      4.958065   567A      4.959813  
     568A      4.966358   569A      4.973603   570A      4.983784  
     571A      4.991649   572A      4.991663   573A      5.004391  
     574A      5.014639   575A      5.026173   576A      5.030525  
     577A      5.039538   578A      5.047009   579A      5.053917  
     580A      5.058680   581A      5.064531   582A      5.090084  
     583A      5.101400   584A      5.111645   585A      5.112908  
     586A      5.129654   587A      5.135288   588A      5.157891  
     589A      5.173031   590A      5.188999   591A      5.199842  
     592A      5.208162   593A      5.214222   594A      5.218439  
     595A      5.240285   596A      5.250510   597A      5.264229  
     598A      5.266188   599A      5.275427   600A      5.285461  
     601A      5.303664   602A      5.305903   603A      5.320735  
     604A      5.327425   605A      5.331995   606A      5.338746  
     607A      5.339205   608A      5.355111   609A      5.382627  
     610A      5.390259   611A      5.406693   612A      5.426744  
     613A      5.447899   614A      5.464712   615A      5.480116  
     616A      5.488076   617A      5.493775   618A      5.494216  
     619A      5.505889   620A      5.536942   621A      5.545010  
     622A      5.558967   623A      5.565464   624A      5.593528  
     625A      5.606244   626A      5.621257   627A      5.631065  
     628A      5.647523   629A      5.673067   630A      5.674927  
     631A      5.681165   632A      5.698386   633A      5.737330  
     634A      5.773234   635A      5.781011   636A      5.791082  
     637A      5.792446   638A      5.797999   639A      5.817112  
     640A      5.823859   641A      5.838066   642A      5.866326  
     643A      5.867002   644A      5.892973   645A      5.912349  
     646A      5.924034   647A      5.931400   648A      5.960356  
     649A      5.964618   650A      5.988799   651A      5.989733  
     652A      6.004273   653A      6.019933   654A      6.038097  
     655A      6.049662   656A      6.052556   657A      6.064490  
     658A      6.103687   659A      6.122661   660A      6.142583  
     661A      6.196012   662A      6.249830   663A      6.258278  
     664A      6.296840   665A      6.312217   666A      6.377408  
     667A      6.387068   668A      6.398385   669A      6.412003  
     670A      6.416810   671A      6.470265   672A      6.506851  
     673A      6.510710   674A      6.533019   675A      6.536827  
     676A      6.550675   677A      6.556516   678A      6.563192  
     679A      6.566851   680A      6.612422   681A      6.626571  
     682A      6.670694   683A      6.686353   684A      6.775638  
     685A      6.782528   686A      6.845253   687A      6.922871  
     688A      6.955908   689A      7.092774   690A      7.262231  
     691A      7.472723   692A      7.527512   693A      7.582668  
     694A      7.593502   695A      7.599741   696A      7.670955  
     697A      7.688530   698A      7.717940   699A      7.739136  
     700A      7.754325   701A      7.812603   702A      7.815863  
     703A      7.855521   704A      7.888898   705A      7.902221  
     706A      8.054329   707A      8.157956   708A      8.341308  
     709A      8.455232   710A      8.649448   711A      8.751332  
     712A      9.616690   713A      9.668229   714A      9.796312  
     715A      9.930671   716A      9.938046   717A     13.808714  
     718A     14.142505   719A     14.468623   720A     14.649069  
     721A     14.677996   722A     43.877246   723A     45.005273  
     724A     45.734289   725A     45.812358   726A     45.880031  

    Final Occupation by Irrep:
              A 
    DOCC [    21 ]

  @DF-RHF Final Energy:  -196.40373145488672

   => Energetics <=

    Nuclear Repulsion Energy =            185.5549514613767315
    One-Electron Energy =                -630.9762669776698658
    Two-Electron Energy =                 249.0175840614064100
    Total Energy =                       -196.4037314548867244

Computation Completed


Properties will be evaluated at   0.000000,   0.000000,   0.000000 [a0]

Properties computed using the SCF density matrix

  Nuclear Dipole Moment: [e a0]
     X:   151.9648      Y:     0.5208      Z:     0.6647

  Electronic Dipole Moment: [e a0]
     X:  -151.9619      Y:    -0.5208      Z:    -0.6977

  Dipole Moment: [e a0]
     X:     0.0029      Y:     0.0000      Z:    -0.0330     Total:     0.0332

  Dipole Moment: [D]
     X:     0.0074      Y:     0.0000      Z:    -0.0840     Total:     0.0843


*** tstop() called on r282 at Thu Sep  9 10:34:02 2021
Module time:
	user time   =     131.76 seconds =       2.20 minutes
	system time =       1.65 seconds =       0.03 minutes
	total time  =        134 seconds =       2.23 minutes
Total time:
	user time   =     377.73 seconds =       6.30 minutes
	system time =       6.97 seconds =       0.12 minutes
	total time  =        385 seconds =       6.42 minutes

  //>>>>>>>>>>>>>>>>>>>>>>>>>>>>>>>>>>>//
  //            Monomer B HF           //
  //<<<<<<<<<<<<<<<<<<<<<<<<<<<<<<<<<<<//


*** tstart() called on r282
*** at Thu Sep  9 10:34:02 2021

   => Loading Basis Set <=

    Name: JUN-CC-PVTZ
    Role: ORBITAL
    Keyword: BASIS
    atoms 1, 5, 8, 11, 14, 18, 22, 25, 28, 31                             entry C          line   217 file /home/r08543048/miniconda3/share/psi4/basis/jun-cc-pvtz.gbs 
    atoms 2-4, 6-7, 9-10, 12-13, 15-17, 19-21, 23-24, 26-27, 29-30, 32-34 entry H          line    36 file /home/r08543048/miniconda3/share/psi4/basis/jun-cc-pvtz.gbs 


         ---------------------------------------------------------
                                   SCF
               by Justin Turney, Rob Parrish, Andy Simmonett
                          and Daniel G. A. Smith
                              RHF Reference
                        1 Threads,  20980 MiB Core
         ---------------------------------------------------------

  ==> Geometry <==

    Molecular point group: c1
    Full point group: C1

    Geometry (in Angstrom), charge = 0, multiplicity = 1:

       Center              X                  Y                   Z               Mass       
    ------------   -----------------  -----------------  -----------------  -----------------
      Gh(C)           1.901120876140    -2.527386899236     0.335244664019    12.000000000000
      Gh(H)           2.733680876140    -2.555426899236     1.039521664019     1.007825032230
      Gh(H)           0.976200876140    -2.563325899236     0.912437664019     1.007825032230
      Gh(H)           1.948389876140    -3.428462899236    -0.276164335981     1.007825032230
      Gh(C)           1.959177876140    -1.265117899236    -0.516217335981    12.000000000000
      Gh(H)           1.138095876140    -1.266961899236    -1.238813335981     1.007825032230
      Gh(H)           2.883214876140    -1.256259899236    -1.100846335981     1.007825032230
      Gh(C)           1.885664876140     0.006511100764     0.319118664019    12.000000000000
      Gh(H)           0.958346876140     0.003254100764     0.901798664019     1.007825032230
      Gh(H)           2.705622876140     0.009614100764     1.045102664019     1.007825032230
      Gh(C)           1.949943876140     1.278370100764    -0.516627335981    12.000000000000
      Gh(H)           1.128768876140     1.274090100764    -1.239111335981     1.007825032230
      Gh(H)           2.873945876140     1.275950100764    -1.101381335981     1.007825032230
      Gh(C)           1.882948876140     2.540440100764     0.334475664019    12.000000000000
      Gh(H)           2.715498876140     2.574761100764     1.038489664019     1.007825032230
      Gh(H)           1.923466876140     3.441654100764    -0.277217335981     1.007825032230
      Gh(H)           0.957962876140     2.569814100764     0.911939664019     1.007825032230
         C           -1.901374123860     2.527463100764    -0.334496335981    12.000000000000
         H           -0.976598123860     2.563561100764    -0.911922335981     1.007825032230
         H           -2.734128123860     2.555684100764    -1.038545335981     1.007825032230
         H           -1.948496123860     3.428368100764     0.277181664019     1.007825032230
         C           -1.959184123860     1.264961100764     0.516639664019    12.000000000000
         H           -2.883106123860     1.255885100764     1.101460664019     1.007825032230
         H           -1.137949123860     1.266670100764     1.239067664019     1.007825032230
         C           -1.885741123860    -0.006407899236    -0.319102335981    12.000000000000
         H           -2.705837123860    -0.009308899236    -1.044937335981     1.007825032230
         H           -0.958519123860    -0.002925899236    -0.901952335981     1.007825032230
         C           -1.949837123860    -1.278531899236     0.516246664019    12.000000000000
         H           -2.873813123860    -1.276413899236     1.101051664019     1.007825032230
         H           -1.128625123860    -1.274391899236     1.238688664019     1.007825032230
         C           -1.882718123860    -2.540316899236    -0.335275335981    12.000000000000
         H           -0.957713123860    -2.569432899236    -0.912730335981     1.007825032230
         H           -1.923181123860    -3.441730899236     0.276123664019     1.007825032230
         H           -2.715250123860    -2.574473899236    -1.039321335981     1.007825032230

  Running in c1 symmetry.

  Rotational constants: A =      0.03105  B =      0.02866  C =      0.01615 [cm^-1]
  Rotational constants: A =    930.71477  B =    859.33617  C =    484.08095 [MHz]
  Nuclear repulsion =  185.555001584914436

  Charge       = 0
  Multiplicity = 1
  Electrons    = 42
  Nalpha       = 21
  Nbeta        = 21

  ==> Algorithm <==

  SCF Algorithm Type is DF.
  DIIS enabled.
  MOM disabled.
  Fractional occupation disabled.
  Guess Type is SAD.
  Energy threshold   = 1.00e-08
  Density threshold  = 1.00e-08
  Integral threshold = 0.00e+00

  ==> Primary Basis <==

  Basis Set: JUN-CC-PVTZ
    Blend: JUN-CC-PVTZ
    Number of shells: 274
    Number of basis function: 726
    Number of Cartesian functions: 810
    Spherical Harmonics?: true
    Max angular momentum: 3

   => Loading Basis Set <=

    Name: (JUN-CC-PVTZ AUX)
    Role: JKFIT
    Keyword: DF_BASIS_SCF
    atoms 1, 5, 8, 11, 14, 18, 22, 25, 28, 31                             entry C          line   152 file /home/r08543048/miniconda3/share/psi4/basis/jun-cc-pvtz-jkfit.gbs 
    atoms 2-4, 6-7, 9-10, 12-13, 15-17, 19-21, 23-24, 26-27, 29-30, 32-34 entry H          line    70 file /home/r08543048/miniconda3/share/psi4/basis/jun-cc-pvtz-jkfit.gbs 

  ==> Pre-Iterations <==

   -------------------------------------------------------
    Irrep   Nso     Nmo     Nalpha   Nbeta   Ndocc  Nsocc
   -------------------------------------------------------
     A        726     726       0       0       0       0
   -------------------------------------------------------
    Total     726     726      21      21      21       0
   -------------------------------------------------------

  ==> Integral Setup <==

  ==> DiskDFJK: Density-Fitted J/K Matrices <==

    J tasked:                  Yes
    K tasked:                  Yes
    wK tasked:                  No
    OpenMP threads:              1
    Integrals threads:           1
    Memory [MiB]:            15735
    Algorithm:                Core
    Integral Cache:           LOAD
    Schwarz Cutoff:          1E-12
    Fitting Condition:       1E-10

   => Auxiliary Basis Set <=

  Basis Set: (JUN-CC-PVTZ AUX)
    Blend: JUN-CC-PVTZ-JKFIT
    Number of shells: 530
    Number of basis function: 1670
    Number of Cartesian functions: 2000
    Spherical Harmonics?: true
    Max angular momentum: 4

  Minimum eigenvalue in the overlap matrix is 2.7913522441E-05.
  Using Symmetric Orthogonalization.

  SCF Guess: Superposition of Atomic Densities via on-the-fly atomic UHF.

  ==> Iterations <==

                           Total Energy        Delta E     RMS |[F,P]|

   @DF-RHF iter SAD:  -195.86190001051122   -1.95862e+02   0.00000e+00 
   @DF-RHF iter   1:  -196.15411545890726   -2.92215e-01   8.68593e-04 DIIS
   @DF-RHF iter   2:  -196.35745897624824   -2.03344e-01   3.96271e-04 DIIS
   @DF-RHF iter   3:  -196.40074103873303   -4.32821e-02   7.09662e-05 DIIS
   @DF-RHF iter   4:  -196.40363063173828   -2.88959e-03   1.48291e-05 DIIS
   @DF-RHF iter   5:  -196.40372147642205   -9.08447e-05   4.52499e-06 DIIS
   @DF-RHF iter   6:  -196.40373062001171   -9.14359e-06   6.85012e-07 DIIS
   @DF-RHF iter   7:  -196.40373089689948   -2.76888e-07   1.42776e-07 DIIS
   @DF-RHF iter   8:  -196.40373090953747   -1.26380e-08   2.78500e-08 DIIS
   @DF-RHF iter   9:  -196.40373091003266   -4.95191e-10   8.83574e-09 DIIS
  Energy and wave function converged.


  ==> Post-Iterations <==

    Orbital Energies [Eh]
    ---------------------

    Doubly Occupied:                                                      

       1A    -11.212980     2A    -11.212907     3A    -11.210557  
       4A    -11.207406     5A    -11.207404     6A     -1.080863  
       7A     -1.014959     8A     -0.918590     9A     -0.819390  
      10A     -0.784536    11A     -0.647055    12A     -0.598015  
      13A     -0.592631    14A     -0.553463    15A     -0.547085  
      16A     -0.525620    17A     -0.494207    18A     -0.475742  
      19A     -0.461631    20A     -0.459042    21A     -0.446454  

    Virtual:                                                              

      22A      0.029056    23A      0.040732    24A      0.045484  
      25A      0.052395    26A      0.061772    27A      0.063706  
      28A      0.068852    29A      0.070710    30A      0.080592  
      31A      0.086821    32A      0.089805    33A      0.095995  
      34A      0.100286    35A      0.104864    36A      0.107804  
      37A      0.113921    38A      0.118255    39A      0.121392  
      40A      0.125989    41A      0.130910    42A      0.137544  
      43A      0.139654    44A      0.145175    45A      0.145388  
      46A      0.149664    47A      0.162014    48A      0.162498  
      49A      0.166613    50A      0.172149    51A      0.172445  
      52A      0.182080    53A      0.182857    54A      0.187466  
      55A      0.190650    56A      0.203689    57A      0.208263  
      58A      0.210267    59A      0.215704    60A      0.219084  
      61A      0.231192    62A      0.231691    63A      0.251949  
      64A      0.252126    65A      0.274503    66A      0.278584  
      67A      0.279629    68A      0.288846    69A      0.291408  
      70A      0.296667    71A      0.298142    72A      0.305970  
      73A      0.313658    74A      0.314727    75A      0.316025  
      76A      0.322567    77A      0.324029    78A      0.334203  
      79A      0.335232    80A      0.341679    81A      0.343280  
      82A      0.347176    83A      0.354210    84A      0.359317  
      85A      0.361317    86A      0.363316    87A      0.367783  
      88A      0.375419    89A      0.381493    90A      0.382481  
      91A      0.385581    92A      0.389779    93A      0.394716  
      94A      0.400222    95A      0.408610    96A      0.409911  
      97A      0.417831    98A      0.419028    99A      0.427823  
     100A      0.431933   101A      0.438631   102A      0.439513  
     103A      0.447647   104A      0.451204   105A      0.452579  
     106A      0.462095   107A      0.465780   108A      0.472531  
     109A      0.477840   110A      0.491623   111A      0.492534  
     112A      0.505071   113A      0.507061   114A      0.518732  
     115A      0.518789   116A      0.531373   117A      0.533229  
     118A      0.541722   119A      0.548172   120A      0.551350  
     121A      0.557900   122A      0.560994   123A      0.563197  
     124A      0.570020   125A      0.572269   126A      0.575319  
     127A      0.587510   128A      0.599193   129A      0.600804  
     130A      0.606582   131A      0.608239   132A      0.618102  
     133A      0.618191   134A      0.623386   135A      0.630962  
     136A      0.639182   137A      0.640381   138A      0.644881  
     139A      0.648406   140A      0.652681   141A      0.661034  
     142A      0.672145   143A      0.676840   144A      0.681970  
     145A      0.689621   146A      0.689938   147A      0.697710  
     148A      0.700174   149A      0.707437   150A      0.711020  
     151A      0.720240   152A      0.720343   153A      0.733546  
     154A      0.739585   155A      0.755680   156A      0.761618  
     157A      0.766068   158A      0.775213   159A      0.778485  
     160A      0.780532   161A      0.786020   162A      0.811402  
     163A      0.813321   164A      0.819595   165A      0.824012  
     166A      0.831377   167A      0.848567   168A      0.850939  
     169A      0.853090   170A      0.867667   171A      0.871448  
     172A      0.879542   173A      0.885805   174A      0.886749  
     175A      0.893821   176A      0.902666   177A      0.908592  
     178A      0.911860   179A      0.923078   180A      0.926867  
     181A      0.948553   182A      0.951937   183A      0.957267  
     184A      0.987963   185A      0.996972   186A      1.014440  
     187A      1.028911   188A      1.032676   189A      1.050779  
     190A      1.066896   191A      1.095660   192A      1.096841  
     193A      1.097929   194A      1.112044   195A      1.113663  
     196A      1.136646   197A      1.147809   198A      1.153647  
     199A      1.167150   200A      1.169482   201A      1.175958  
     202A      1.185563   203A      1.187717   204A      1.194868  
     205A      1.196173   206A      1.207815   207A      1.211042  
     208A      1.226198   209A      1.234840   210A      1.242735  
     211A      1.244184   212A      1.250704   213A      1.260255  
     214A      1.268231   215A      1.270924   216A      1.285793  
     217A      1.291841   218A      1.297346   219A      1.301056  
     220A      1.311343   221A      1.313433   222A      1.313488  
     223A      1.316941   224A      1.327574   225A      1.337731  
     226A      1.337914   227A      1.347257   228A      1.360975  
     229A      1.363373   230A      1.364716   231A      1.380445  
     232A      1.380806   233A      1.398931   234A      1.399968  
     235A      1.405263   236A      1.405747   237A      1.415513  
     238A      1.422384   239A      1.426400   240A      1.432256  
     241A      1.438746   242A      1.446471   243A      1.452680  
     244A      1.460325   245A      1.463846   246A      1.467420  
     247A      1.479979   248A      1.490050   249A      1.492218  
     250A      1.499805   251A      1.507534   252A      1.519797  
     253A      1.521553   254A      1.534087   255A      1.538381  
     256A      1.549723   257A      1.551078   258A      1.556122  
     259A      1.568834   260A      1.570312   261A      1.582275  
     262A      1.582927   263A      1.591868   264A      1.594799  
     265A      1.603186   266A      1.609926   267A      1.612829  
     268A      1.619902   269A      1.626563   270A      1.634592  
     271A      1.637596   272A      1.644211   273A      1.650452  
     274A      1.660364   275A      1.666032   276A      1.668372  
     277A      1.678868   278A      1.687534   279A      1.694460  
     280A      1.695642   281A      1.702026   282A      1.721498  
     283A      1.732224   284A      1.732352   285A      1.743050  
     286A      1.750842   287A      1.758709   288A      1.766165  
     289A      1.768938   290A      1.787815   291A      1.807609  
     292A      1.812946   293A      1.825626   294A      1.842688  
     295A      1.844042   296A      1.851420   297A      1.865270  
     298A      1.872708   299A      1.882613   300A      1.885433  
     301A      1.899781   302A      1.909956   303A      1.923787  
     304A      1.932848   305A      1.948315   306A      1.949059  
     307A      1.974468   308A      1.977711   309A      1.985192  
     310A      1.991054   311A      1.998342   312A      1.998982  
     313A      2.036599   314A      2.038824   315A      2.066916  
     316A      2.076002   317A      2.079789   318A      2.096981  
     319A      2.110771   320A      2.126842   321A      2.157705  
     322A      2.176152   323A      2.178510   324A      2.195367  
     325A      2.219016   326A      2.269781   327A      2.273232  
     328A      2.281790   329A      2.311051   330A      2.314304  
     331A      2.358047   332A      2.410076   333A      2.415820  
     334A      2.434659   335A      2.461235   336A      2.477624  
     337A      2.483976   338A      2.505058   339A      2.528669  
     340A      2.548432   341A      2.657521   342A      2.672517  
     343A      2.691916   344A      2.713547   345A      2.766917  
     346A      2.775181   347A      2.787915   348A      2.823921  
     349A      2.850391   350A      2.863191   351A      2.879349  
     352A      2.901207   353A      2.908074   354A      2.929642  
     355A      2.932102   356A      2.957285   357A      2.971136  
     358A      2.981098   359A      3.000139   360A      3.050472  
     361A      3.052608   362A      3.070000   363A      3.111189  
     364A      3.133246   365A      3.145730   366A      3.165212  
     367A      3.179651   368A      3.183505   369A      3.190530  
     370A      3.222055   371A      3.225770   372A      3.226944  
     373A      3.277739   374A      3.287443   375A      3.303361  
     376A      3.304124   377A      3.328595   378A      3.333868  
     379A      3.356225   380A      3.380062   381A      3.391786  
     382A      3.398185   383A      3.398606   384A      3.427152  
     385A      3.430898   386A      3.461057   387A      3.466470  
     388A      3.470691   389A      3.472854   390A      3.480944  
     391A      3.495728   392A      3.503484   393A      3.508195  
     394A      3.516872   395A      3.522815   396A      3.536131  
     397A      3.539631   398A      3.546201   399A      3.552550  
     400A      3.570596   401A      3.574380   402A      3.579872  
     403A      3.588878   404A      3.596467   405A      3.597610  
     406A      3.601038   407A      3.604954   408A      3.611094  
     409A      3.612587   410A      3.625448   411A      3.636472  
     412A      3.645490   413A      3.661137   414A      3.662541  
     415A      3.668693   416A      3.675810   417A      3.680166  
     418A      3.681262   419A      3.696032   420A      3.717773  
     421A      3.726028   422A      3.739140   423A      3.745828  
     424A      3.767839   425A      3.774241   426A      3.783357  
     427A      3.792753   428A      3.802422   429A      3.805155  
     430A      3.816707   431A      3.823718   432A      3.844690  
     433A      3.845724   434A      3.856532   435A      3.858100  
     436A      3.865746   437A      3.867036   438A      3.876245  
     439A      3.885028   440A      3.888289   441A      3.896531  
     442A      3.899349   443A      3.906618   444A      3.931152  
     445A      3.933617   446A      3.944416   447A      3.947964  
     448A      3.951344   449A      3.962648   450A      3.969406  
     451A      3.973359   452A      3.975617   453A      3.989851  
     454A      3.993509   455A      4.003378   456A      4.005374  
     457A      4.021885   458A      4.036839   459A      4.038341  
     460A      4.050527   461A      4.079856   462A      4.092600  
     463A      4.107892   464A      4.110744   465A      4.129803  
     466A      4.142802   467A      4.164271   468A      4.169014  
     469A      4.169962   470A      4.189351   471A      4.198548  
     472A      4.211237   473A      4.225192   474A      4.235579  
     475A      4.238604   476A      4.247781   477A      4.249378  
     478A      4.264120   479A      4.268690   480A      4.275956  
     481A      4.286107   482A      4.294755   483A      4.301192  
     484A      4.315191   485A      4.317892   486A      4.331470  
     487A      4.344741   488A      4.348876   489A      4.358865  
     490A      4.368573   491A      4.385319   492A      4.389734  
     493A      4.398110   494A      4.402764   495A      4.405231  
     496A      4.419812   497A      4.424691   498A      4.428576  
     499A      4.448070   500A      4.449850   501A      4.461532  
     502A      4.464593   503A      4.470899   504A      4.502174  
     505A      4.503219   506A      4.515256   507A      4.516593  
     508A      4.521500   509A      4.529397   510A      4.532886  
     511A      4.533576   512A      4.543447   513A      4.548851  
     514A      4.559251   515A      4.564894   516A      4.569702  
     517A      4.577269   518A      4.581947   519A      4.595868  
     520A      4.603651   521A      4.606636   522A      4.615096  
     523A      4.619038   524A      4.630449   525A      4.638787  
     526A      4.650026   527A      4.658478   528A      4.660749  
     529A      4.667768   530A      4.681748   531A      4.682717  
     532A      4.687034   533A      4.689399   534A      4.699284  
     535A      4.705425   536A      4.716004   537A      4.729728  
     538A      4.732948   539A      4.750715   540A      4.751135  
     541A      4.761158   542A      4.766333   543A      4.776099  
     544A      4.781560   545A      4.794789   546A      4.796361  
     547A      4.810122   548A      4.812514   549A      4.821568  
     550A      4.829899   551A      4.842474   552A      4.848167  
     553A      4.852338   554A      4.857531   555A      4.868959  
     556A      4.882145   557A      4.892914   558A      4.907876  
     559A      4.916131   560A      4.922338   561A      4.923507  
     562A      4.928078   563A      4.929192   564A      4.947966  
     565A      4.957108   566A      4.958074   567A      4.959795  
     568A      4.966366   569A      4.973613   570A      4.983779  
     571A      4.991652   572A      4.991673   573A      5.004387  
     574A      5.014635   575A      5.026186   576A      5.030524  
     577A      5.039528   578A      5.047012   579A      5.053928  
     580A      5.058678   581A      5.064540   582A      5.090081  
     583A      5.101400   584A      5.111638   585A      5.112926  
     586A      5.129625   587A      5.135277   588A      5.157900  
     589A      5.173033   590A      5.188996   591A      5.199831  
     592A      5.208153   593A      5.214230   594A      5.218429  
     595A      5.240282   596A      5.250506   597A      5.264211  
     598A      5.266185   599A      5.275413   600A      5.285449  
     601A      5.303655   602A      5.305898   603A      5.320715  
     604A      5.327438   605A      5.331983   606A      5.338730  
     607A      5.339199   608A      5.355133   609A      5.382629  
     610A      5.390276   611A      5.406678   612A      5.426746  
     613A      5.447897   614A      5.464704   615A      5.480111  
     616A      5.488087   617A      5.493740   618A      5.494203  
     619A      5.505889   620A      5.536943   621A      5.545016  
     622A      5.558959   623A      5.565461   624A      5.593541  
     625A      5.606237   626A      5.621257   627A      5.631071  
     628A      5.647519   629A      5.673084   630A      5.674920  
     631A      5.681172   632A      5.698398   633A      5.737335  
     634A      5.773229   635A      5.780997   636A      5.791062  
     637A      5.792441   638A      5.797998   639A      5.817094  
     640A      5.823850   641A      5.838054   642A      5.866316  
     643A      5.867011   644A      5.892977   645A      5.912332  
     646A      5.924021   647A      5.931367   648A      5.960343  
     649A      5.964604   650A      5.988790   651A      5.989730  
     652A      6.004245   653A      6.019920   654A      6.038100  
     655A      6.049657   656A      6.052582   657A      6.064501  
     658A      6.103712   659A      6.122641   660A      6.142602  
     661A      6.195998   662A      6.249818   663A      6.258278  
     664A      6.296832   665A      6.312197   666A      6.377424  
     667A      6.387077   668A      6.398393   669A      6.412022  
     670A      6.416837   671A      6.470272   672A      6.506868  
     673A      6.510724   674A      6.533015   675A      6.536826  
     676A      6.550661   677A      6.556537   678A      6.563191  
     679A      6.566847   680A      6.612425   681A      6.626572  
     682A      6.670695   683A      6.686321   684A      6.775658  
     685A      6.782540   686A      6.845263   687A      6.922880  
     688A      6.955943   689A      7.092796   690A      7.262227  
     691A      7.472740   692A      7.527535   693A      7.582675  
     694A      7.593511   695A      7.599749   696A      7.670976  
     697A      7.688540   698A      7.717963   699A      7.739172  
     700A      7.754350   701A      7.812637   702A      7.815910  
     703A      7.855555   704A      7.888904   705A      7.902232  
     706A      8.054353   707A      8.157985   708A      8.341305  
     709A      8.455236   710A      8.649456   711A      8.751342  
     712A      9.616725   713A      9.668258   714A      9.796369  
     715A      9.930700   716A      9.938061   717A     13.808575  
     718A     14.142440   719A     14.468516   720A     14.649024  
     721A     14.677959   722A     43.877546   723A     45.005392  
     724A     45.734389   725A     45.812431   726A     45.880214  

    Final Occupation by Irrep:
              A 
    DOCC [    21 ]

  @DF-RHF Final Energy:  -196.40373091003266

   => Energetics <=

    Nuclear Repulsion Energy =            185.5550015849144359
    One-Electron Energy =                -630.9763858274225186
    Two-Electron Energy =                 249.0176533324754473
    Total Energy =                       -196.4037309100326638

Computation Completed


Properties will be evaluated at   0.000000,   0.000000,   0.000000 [a0]

Properties computed using the SCF density matrix

  Nuclear Dipole Moment: [e a0]
     X:  -151.9649      Y:    -0.5206      Z:    -0.6647

  Electronic Dipole Moment: [e a0]
     X:   151.9620      Y:     0.5206      Z:     0.6978

  Dipole Moment: [e a0]
     X:    -0.0029      Y:    -0.0000      Z:     0.0330     Total:     0.0332

  Dipole Moment: [D]
     X:    -0.0074      Y:    -0.0000      Z:     0.0840     Total:     0.0843


*** tstop() called on r282 at Thu Sep  9 10:36:16 2021
Module time:
	user time   =     132.01 seconds =       2.20 minutes
	system time =       1.68 seconds =       0.03 minutes
	total time  =        134 seconds =       2.23 minutes
Total time:
	user time   =     509.75 seconds =       8.50 minutes
	system time =       8.65 seconds =       0.14 minutes
	total time  =        519 seconds =       8.65 minutes
  Constructing Basis Sets for SAPT...

   => Loading Basis Set <=

    Name: (JUN-CC-PVTZ AUX)
    Role: RIFIT
    Keyword: DF_BASIS_SAPT
    atoms 1, 5, 8, 11, 14, 18, 22, 25, 28, 31                             entry C          line   132 file /home/r08543048/miniconda3/share/psi4/basis/jun-cc-pvtz-ri.gbs 
    atoms 2-4, 6-7, 9-10, 12-13, 15-17, 19-21, 23-24, 26-27, 29-30, 32-34 entry H          line    30 file /home/r08543048/miniconda3/share/psi4/basis/jun-cc-pvtz-ri.gbs 


  //>>>>>>>>>>>>>>>>>>>>>>>>>>>>>>>>>>>//
  //               SAPT0               //
  //<<<<<<<<<<<<<<<<<<<<<<<<<<<<<<<<<<<//


*** tstart() called on r282
*** at Thu Sep  9 10:36:16 2021

        SAPT0  
    Ed Hohenstein
     6 June 2009

      Orbital Information
  --------------------------
    NSO        =       726
    NMO        =       726
    NRI        =      1690
    NOCC A     =        21
    NOCC B     =        21
    FOCC A     =         5
    FOCC B     =         5
    NVIR A     =       705
    NVIR B     =       705

    Elst10,r            =    -0.002612909721 [Eh]
    Exch10              =     0.008790001380 [Eh]
    Exch10 (S^2)        =     0.008780566301 [Eh]

    Iter     Energy [mEh]          dE [mEh]         Residual      Time [s]
       1      -0.55127127       0.551271272       2.953623559             4
       2      -0.66865250       0.117381229       0.534038324             7
       3      -0.66903001       0.000377513       0.155619348            10
       4      -0.66751838      -0.001511633       0.036797028            13
       5      -0.66758762       0.000069236       0.011443860            17
       6      -0.66766146       0.000073838       0.002251827            21
       7      -0.66765535      -0.000006110       0.000694537            25
       8      -0.66765276      -0.000002583       0.000162309            28
       9      -0.66765334       0.000000582       0.000030104            31
      10      -0.66765334      -0.000000008       0.000005963            35
      11      -0.66765332      -0.000000015       0.000001354            38
      12      -0.66765332       0.000000001       0.000000360            41

    CHF Iterations converged


    Iter     Energy [mEh]          dE [mEh]         Residual      Time [s]
       1      -0.55113823       0.551138231       2.953238438             3
       2      -0.66848469       0.117346463       0.533964554             7
       3      -0.66886251       0.000377815       0.155582524            10
       4      -0.66735136      -0.001511144       0.036788976            13
       5      -0.66742054       0.000069173       0.011441498            16
       6      -0.66749436       0.000073823       0.002251248            20
       7      -0.66748825      -0.000006108       0.000694361            23
       8      -0.66748567      -0.000002582       0.000162268            26
       9      -0.66748625       0.000000581       0.000030096            29
      10      -0.66748624      -0.000000008       0.000005961            33
      11      -0.66748623      -0.000000015       0.000001353            36
      12      -0.66748623       0.000000001       0.000000360            39

    CHF Iterations converged

    Ind20,r (A<-B)      =    -0.000667653322 [Eh]
    Ind20,r (B<-A)      =    -0.000667486229 [Eh]
    Ind20,r             =    -0.001335139551 [Eh]
    Exch-Ind20,r (A<-B) =     0.000581000939 [Eh]
    Exch-Ind20,r (B<-A) =     0.000580817489 [Eh]
    Exch-Ind20,r        =     0.001161818428 [Eh]
    Disp20              =    -0.012518422324 [Eh]
    Disp20 (SS)         =    -0.006259211162 [Eh]
    Disp20 (OS)         =    -0.006259211162 [Eh]
    Exch-Disp20         =     0.000995435435 [Eh]
    Exch-Disp20 (SS)    =     0.000655878518 [Eh]
    Exch-Disp20 (OS)    =     0.000339556917 [Eh]

    SAPT Results 
  --------------------------------------------------------------------------------------------------------
    Electrostatics                 -2.61290972 [mEh]      -1.63962560 [kcal/mol]      -6.86019353 [kJ/mol]
      Elst10,r                     -2.61290972 [mEh]      -1.63962560 [kcal/mol]      -6.86019353 [kJ/mol]

    Exchange                        8.79000138 [mEh]       5.51580914 [kcal/mol]      23.07814544 [kJ/mol]
      Exch10                        8.79000138 [mEh]       5.51580914 [kcal/mol]      23.07814544 [kJ/mol]
      Exch10(S^2)                   8.78056630 [mEh]       5.50988854 [kcal/mol]      23.05337365 [kJ/mol]

    Induction                      -0.78470963 [mEh]      -0.49241273 [kcal/mol]      -2.06025486 [kJ/mol]
      Ind20,r                      -1.33513955 [mEh]      -0.83781272 [kcal/mol]      -3.50540841 [kJ/mol]
      Exch-Ind20,r                  1.16181843 [mEh]       0.72905207 [kcal/mol]       3.05035386 [kJ/mol]
      delta HF,r (2)               -0.61138851 [mEh]      -0.38365208 [kcal/mol]      -1.60520031 [kJ/mol]

    Dispersion                    -11.52298689 [mEh]      -7.23078344 [kcal/mol]     -30.25359791 [kJ/mol]
      Disp20                      -12.51842232 [mEh]      -7.85542860 [kcal/mol]     -32.86711328 [kJ/mol]
      Exch-Disp20                   0.99543544 [mEh]       0.62464517 [kcal/mol]       2.61351538 [kJ/mol]
      Disp20 (SS)                  -6.25921116 [mEh]      -3.92771430 [kcal/mol]     -16.43355664 [kJ/mol]
      Disp20 (OS)                  -6.25921116 [mEh]      -3.92771430 [kcal/mol]     -16.43355664 [kJ/mol]
      Exch-Disp20 (SS)              0.65587852 [mEh]       0.41156998 [kcal/mol]       1.72200881 [kJ/mol]
      Exch-Disp20 (OS)              0.33955692 [mEh]       0.21307518 [kcal/mol]       0.89150656 [kJ/mol]

  Total HF                          5.39238203 [mEh]       3.38377081 [kcal/mol]      14.15769706 [kJ/mol]
  Total SAPT0                      -6.13060486 [mEh]      -3.84701263 [kcal/mol]     -16.09590085 [kJ/mol]

  Special recipe for scaled SAPT0 (see Manual):
    Electrostatics sSAPT0          -2.61290972 [mEh]      -1.63962560 [kcal/mol]      -6.86019353 [kJ/mol]
    Exchange sSAPT0                 8.79000138 [mEh]       5.51580914 [kcal/mol]      23.07814544 [kJ/mol]
    Induction sSAPT0               -0.78096034 [mEh]      -0.49006001 [kcal/mol]      -2.05041110 [kJ/mol]
    Dispersion sSAPT0             -11.51977453 [mEh]      -7.22876765 [kcal/mol]     -30.24516386 [kJ/mol]
  Total sSAPT0                     -6.12364321 [mEh]      -3.84264413 [kcal/mol]     -16.07762304 [kJ/mol]
  --------------------------------------------------------------------------------------------------------

*** tstop() called on r282 at Thu Sep  9 10:42:50 2021
Module time:
	user time   =     346.29 seconds =       5.77 minutes
	system time =      46.01 seconds =       0.77 minutes
	total time  =        394 seconds =       6.57 minutes
Total time:
	user time   =     856.27 seconds =      14.27 minutes
	system time =      54.66 seconds =       0.91 minutes
	total time  =        913 seconds =      15.22 minutes

    Psi4 stopped on: Thursday, 09 September 2021 10:42AM
    Psi4 wall time for execution: 0:15:13.32

*** Psi4 exiting successfully. Buy a developer a beer!
