
    -----------------------------------------------------------------------
          Psi4: An Open-Source Ab Initio Electronic Structure Package
                               Psi4 1.3.2 release

                         Git: Rev {HEAD} ecbda83 


    R. M. Parrish, L. A. Burns, D. G. A. Smith, A. C. Simmonett,
    A. E. DePrince III, E. G. Hohenstein, U. Bozkaya, A. Yu. Sokolov,
    R. Di Remigio, R. M. Richard, J. F. Gonthier, A. M. James,
    H. R. McAlexander, A. Kumar, M. Saitow, X. Wang, B. P. Pritchard,
    P. Verma, H. F. Schaefer III, K. Patkowski, R. A. King, E. F. Valeev,
    F. A. Evangelista, J. M. Turney, T. D. Crawford, and C. D. Sherrill,
    J. Chem. Theory Comput. 13(7) pp 3185--3197 (2017).
    (doi: 10.1021/acs.jctc.7b00174)


                         Additional Contributions by
    P. Kraus, H. Kruse, M. H. Lechner, M. C. Schieber, R. A. Shaw,
    A. Alenaizan, R. Galvelis, Z. L. Glick, S. Lehtola, and J. P. Misiewicz

    -----------------------------------------------------------------------


    Psi4 started on: Thursday, 09 September 2021 09:31AM

    Process ID: 53702
    Host:       r282
    PSIDATADIR: /home/r08543048/miniconda3/share/psi4
    Memory:     500.0 MiB
    Threads:    1
    
  ==> Input File <==

--------------------------------------------------------------------------
# Any line starting with the # character is a comment line
#! Sample  computation

memory 22 gb

molecule Dimer {
 
0 1
 C   -2.09610400   -1.23362700    0.31107400                                   
 C   -1.78512600   -0.05066900   -0.59748900                                  
 C   -1.88608100    1.27856600    0.14019100                                  
 H   -1.40643000   -1.26494600    1.15604000                                  
 H   -3.10729100   -1.15607300    0.71321200                                  
 H   -2.01741400   -2.18170100   -0.22049300
 H   -2.47239700   -0.05105700   -1.44608800
 H   -0.78160500   -0.16348100   -1.01287100
 H   -1.65970000    2.12089200   -0.51328500
 H   -2.89132800    1.42249200    0.53906000
 H   -1.18926900    1.30968600    0.97927300
 
 --
0 1
 C    2.09580500   -1.23377600   -0.31107800 
 C    1.78526900   -0.05073500    0.59752900
 C    1.88625600    1.27845500   -0.14022400
 H    1.40589100   -1.26504600   -1.15585600
 H    3.10689100   -1.15638500   -0.71350000
 H    2.01710900   -2.18181300    0.22055300
 H    2.47275700   -0.05120400    1.44595200
 H    0.78183200   -0.16335900    1.01317400
 H    1.66024100    2.12083900    0.51330400 
 H    2.89140800    1.42218400   -0.53940400 
 H    1.18919200    1.30968000   -0.97908300 
 
 
 
 
 
 
units angstrom

no_reorient
symmetry c1
}

set globals{
  basis jun-cc-pVTZ
  scf_type DF 
  freeze_core True
}

energy('sapt0')


--------------------------------------------------------------------------

  Memory set to  20.489 GiB by Python driver.

  //>>>>>>>>>>>>>>>>>>>>>>>>>>>>>>>>>>>//
  //              Dimer HF             //
  //<<<<<<<<<<<<<<<<<<<<<<<<<<<<<<<<<<<//


*** tstart() called on r282
*** at Thu Sep  9 09:31:52 2021

   => Loading Basis Set <=

    Name: JUN-CC-PVTZ
    Role: ORBITAL
    Keyword: BASIS
    atoms 1-3, 12-14  entry C          line   217 file /home/r08543048/miniconda3/share/psi4/basis/jun-cc-pvtz.gbs 
    atoms 4-11, 15-22 entry H          line    36 file /home/r08543048/miniconda3/share/psi4/basis/jun-cc-pvtz.gbs 


         ---------------------------------------------------------
                                   SCF
               by Justin Turney, Rob Parrish, Andy Simmonett
                          and Daniel G. A. Smith
                              RHF Reference
                        1 Threads,  20980 MiB Core
         ---------------------------------------------------------

  ==> Geometry <==

    Molecular point group: c1
    Full point group: C1

    Geometry (in Angstrom), charge = 0, multiplicity = 1:

       Center              X                  Y                   Z               Mass       
    ------------   -----------------  -----------------  -----------------  -----------------
         C           -2.096105294928    -1.232830738463     0.311073728726    12.000000000000
         C           -1.785127294928    -0.049872738463    -0.597489271274    12.000000000000
         C           -1.886082294928     1.279362261537     0.140190728726    12.000000000000
         H           -1.406431294928    -1.264149738463     1.156039728726     1.007825032230
         H           -3.107292294928    -1.155276738463     0.713211728726     1.007825032230
         H           -2.017415294928    -2.180904738463    -0.220493271274     1.007825032230
         H           -2.472398294928    -0.050260738463    -1.446088271274     1.007825032230
         H           -0.781606294928    -0.162684738463    -1.012871271274     1.007825032230
         H           -1.659701294928     2.121688261537    -0.513285271274     1.007825032230
         H           -2.891329294928     1.423288261537     0.539059728726     1.007825032230
         H           -1.189270294928     1.310482261537     0.979272728726     1.007825032230
         C            2.095803705072    -1.232979738463    -0.311078271274    12.000000000000
         C            1.785267705072    -0.049938738463     0.597528728726    12.000000000000
         C            1.886254705072     1.279251261537    -0.140224271274    12.000000000000
         H            1.405889705072    -1.264249738463    -1.155856271274     1.007825032230
         H            3.106889705072    -1.155588738463    -0.713500271274     1.007825032230
         H            2.017107705072    -2.181016738463     0.220552728726     1.007825032230
         H            2.472755705072    -0.050407738463     1.445951728726     1.007825032230
         H            0.781830705072    -0.162562738463     1.013173728726     1.007825032230
         H            1.660239705072     2.121635261537     0.513303728726     1.007825032230
         H            2.891406705072     1.422980261537    -0.539404271274     1.007825032230
         H            1.189190705072     1.310476261537    -0.979083271274     1.007825032230

  Running in c1 symmetry.

  Rotational constants: A =      0.12723  B =      0.04653  C =      0.03782 [cm^-1]
  Rotational constants: A =   3814.23352  B =   1395.02617  C =   1133.73312 [MHz]
  Nuclear repulsion =  251.653988641620231

  Charge       = 0
  Multiplicity = 1
  Electrons    = 52
  Nalpha       = 26
  Nbeta        = 26

  ==> Algorithm <==

  SCF Algorithm Type is DF.
  DIIS enabled.
  MOM disabled.
  Fractional occupation disabled.
  Guess Type is SAD.
  Energy threshold   = 1.00e-08
  Density threshold  = 1.00e-08
  Integral threshold = 0.00e+00

  ==> Primary Basis <==

  Basis Set: JUN-CC-PVTZ
    Blend: JUN-CC-PVTZ
    Number of shells: 174
    Number of basis function: 458
    Number of Cartesian functions: 510
    Spherical Harmonics?: true
    Max angular momentum: 3

   => Loading Basis Set <=

    Name: (JUN-CC-PVTZ AUX)
    Role: JKFIT
    Keyword: DF_BASIS_SCF
    atoms 1-3, 12-14  entry C          line   152 file /home/r08543048/miniconda3/share/psi4/basis/jun-cc-pvtz-jkfit.gbs 
    atoms 4-11, 15-22 entry H          line    70 file /home/r08543048/miniconda3/share/psi4/basis/jun-cc-pvtz-jkfit.gbs 

  ==> Pre-Iterations <==

   -------------------------------------------------------
    Irrep   Nso     Nmo     Nalpha   Nbeta   Ndocc  Nsocc
   -------------------------------------------------------
     A        458     458       0       0       0       0
   -------------------------------------------------------
    Total     458     458      26      26      26       0
   -------------------------------------------------------

  ==> Integral Setup <==

  ==> DiskDFJK: Density-Fitted J/K Matrices <==

    J tasked:                  Yes
    K tasked:                  Yes
    wK tasked:                  No
    OpenMP threads:              1
    Integrals threads:           1
    Memory [MiB]:            15735
    Algorithm:                Core
    Integral Cache:           SAVE
    Schwarz Cutoff:          1E-12
    Fitting Condition:       1E-10

   => Auxiliary Basis Set <=

  Basis Set: (JUN-CC-PVTZ AUX)
    Blend: JUN-CC-PVTZ-JKFIT
    Number of shells: 334
    Number of basis function: 1050
    Number of Cartesian functions: 1256
    Spherical Harmonics?: true
    Max angular momentum: 4

  Minimum eigenvalue in the overlap matrix is 9.0725738596E-05.
  Using Symmetric Orthogonalization.

  SCF Guess: Superposition of Atomic Densities via on-the-fly atomic UHF.

  ==> Iterations <==

                           Total Energy        Delta E     RMS |[F,P]|

   @DF-RHF iter SAD:  -235.60087389815646   -2.35601e+02   0.00000e+00 
   @DF-RHF iter   1:  -236.29203460603424   -6.91161e-01   1.57935e-03 DIIS
   @DF-RHF iter   2:  -236.54976614228909   -2.57732e-01   7.43818e-04 DIIS
   @DF-RHF iter   3:  -236.60938485288949   -5.96187e-02   1.28249e-04 DIIS
   @DF-RHF iter   4:  -236.61311667018532   -3.73182e-03   2.51539e-05 DIIS
   @DF-RHF iter   5:  -236.61323279322309   -1.16123e-04   7.11805e-06 DIIS
   @DF-RHF iter   6:  -236.61324211014596   -9.31692e-06   1.24304e-06 DIIS
   @DF-RHF iter   7:  -236.61324244773490   -3.37589e-07   2.29792e-07 DIIS
   @DF-RHF iter   8:  -236.61324246132878   -1.35939e-08   4.13491e-08 DIIS
   @DF-RHF iter   9:  -236.61324246173291   -4.04128e-10   1.03942e-08 DIIS
   @DF-RHF iter  10:  -236.61324246175872   -2.58069e-11   2.48603e-09 DIIS
  Energy and wave function converged.


  ==> Post-Iterations <==

    Orbital Energies [Eh]
    ---------------------

    Doubly Occupied:                                                      

       1A    -11.215436     2A    -11.215434     3A    -11.208122  
       4A    -11.208122     5A    -11.207712     6A    -11.207710  
       7A     -1.057187     8A     -1.051913     9A     -0.926707  
      10A     -0.923641    11A     -0.801541    12A     -0.799213  
      13A     -0.639242    14A     -0.612165    15A     -0.599234  
      16A     -0.597905    17A     -0.551495    18A     -0.548352  
      19A     -0.534645    20A     -0.526433    21A     -0.478869  
      22A     -0.476210    23A     -0.474895    24A     -0.473893  
      25A     -0.471864    26A     -0.462615  

    Virtual:                                                              

      27A      0.052937    28A      0.053138    29A      0.055928  
      30A      0.062574    31A      0.071355    32A      0.075005  
      33A      0.088297    34A      0.092506    35A      0.093934  
      36A      0.111828    37A      0.117041    38A      0.119507  
      39A      0.119783    40A      0.121398    41A      0.132557  
      42A      0.148199    43A      0.153540    44A      0.153707  
      45A      0.156682    46A      0.169298    47A      0.190165  
      48A      0.206708    49A      0.208317    50A      0.210788  
      51A      0.256764    52A      0.261085    53A      0.263267  
      54A      0.266425    55A      0.276905    56A      0.280952  
      57A      0.288536    58A      0.300781    59A      0.307407  
      60A      0.307782    61A      0.314284    62A      0.325079  
      63A      0.331345    64A      0.332523    65A      0.335343  
      66A      0.339894    67A      0.343964    68A      0.354582  
      69A      0.354960    70A      0.355063    71A      0.358778  
      72A      0.369319    73A      0.370587    74A      0.379846  
      75A      0.392836    76A      0.404594    77A      0.405353  
      78A      0.414383    79A      0.416566    80A      0.426552  
      81A      0.426583    82A      0.446408    83A      0.458244  
      84A      0.464194    85A      0.477473    86A      0.491047  
      87A      0.499129    88A      0.504225    89A      0.517325  
      90A      0.522354    91A      0.533252    92A      0.539884  
      93A      0.540900    94A      0.554690    95A      0.567840  
      96A      0.572903    97A      0.574146    98A      0.582113  
      99A      0.603411   100A      0.607514   101A      0.641228  
     102A      0.656099   103A      0.673211   104A      0.681421  
     105A      0.683000   106A      0.684588   107A      0.710714  
     108A      0.712735   109A      0.733731   110A      0.759684  
     111A      0.761234   112A      0.764482   113A      0.772283  
     114A      0.781090   115A      0.788295   116A      0.800285  
     117A      0.801362   118A      0.810697   119A      0.812261  
     120A      0.826451   121A      0.833099   122A      0.837472  
     123A      0.844139   124A      0.860091   125A      0.867109  
     126A      0.873500   127A      0.877304   128A      0.881661  
     129A      0.892958   130A      0.912821   131A      0.918894  
     132A      0.924563   133A      0.926639   134A      0.951057  
     135A      0.967651   136A      0.968597   137A      0.986164  
     138A      0.987647   139A      1.013653   140A      1.015476  
     141A      1.016444   142A      1.063382   143A      1.094725  
     144A      1.106064   145A      1.118825   146A      1.133889  
     147A      1.149602   148A      1.156921   149A      1.158673  
     150A      1.174698   151A      1.216648   152A      1.239616  
     153A      1.247363   154A      1.251532   155A      1.255706  
     156A      1.286067   157A      1.297822   158A      1.322165  
     159A      1.339860   160A      1.348885   161A      1.355673  
     162A      1.358351   163A      1.372740   164A      1.381176  
     165A      1.391730   166A      1.398908   167A      1.417560  
     168A      1.425835   169A      1.437613   170A      1.440405  
     171A      1.444658   172A      1.452185   173A      1.472919  
     174A      1.495896   175A      1.499180   176A      1.500301  
     177A      1.513602   178A      1.542742   179A      1.551366  
     180A      1.567578   181A      1.572262   182A      1.577995  
     183A      1.582757   184A      1.584822   185A      1.588935  
     186A      1.597463   187A      1.614072   188A      1.614221  
     189A      1.649336   190A      1.654615   191A      1.666500  
     192A      1.675962   193A      1.693579   194A      1.696356  
     195A      1.705278   196A      1.716620   197A      1.717632  
     198A      1.723390   199A      1.768888   200A      1.799661  
     201A      1.802834   202A      1.819116   203A      1.834958  
     204A      1.861004   205A      1.869524   206A      1.880904  
     207A      1.883198   208A      1.889678   209A      1.934385  
     210A      1.938275   211A      1.944880   212A      1.963048  
     213A      1.965910   214A      1.991719   215A      1.996367  
     216A      2.016975   217A      2.114046   218A      2.131497  
     219A      2.723055   220A      2.745561   221A      2.748001  
     222A      2.753557   223A      2.766552   224A      2.779522  
     225A      2.786187   226A      2.790411   227A      2.810314  
     228A      2.855337   229A      2.877919   230A      2.888881  
     231A      2.907772   232A      2.926190   233A      2.927475  
     234A      2.932339   235A      2.937581   236A      2.950082  
     237A      2.950732   238A      2.984694   239A      2.990350  
     240A      3.017309   241A      3.026738   242A      3.035071  
     243A      3.079197   244A      3.094979   245A      3.104207  
     246A      3.123002   247A      3.130971   248A      3.139426  
     249A      3.155389   250A      3.157735   251A      3.183354  
     252A      3.192240   253A      3.204551   254A      3.209472  
     255A      3.239799   256A      3.244735   257A      3.264986  
     258A      3.268463   259A      3.284900   260A      3.306639  
     261A      3.317833   262A      3.324506   263A      3.341034  
     264A      3.354161   265A      3.361852   266A      3.379644  
     267A      3.383851   268A      3.390912   269A      3.391318  
     270A      3.399809   271A      3.413414   272A      3.431210  
     273A      3.439433   274A      3.452187   275A      3.469395  
     276A      3.476503   277A      3.483985   278A      3.487594  
     279A      3.494875   280A      3.500358   281A      3.506185  
     282A      3.508188   283A      3.524717   284A      3.530680  
     285A      3.537117   286A      3.537784   287A      3.548165  
     288A      3.564520   289A      3.572554   290A      3.588865  
     291A      3.599949   292A      3.624400   293A      3.628507  
     294A      3.644951   295A      3.678268   296A      3.698993  
     297A      3.712046   298A      3.726522   299A      3.741582  
     300A      3.746496   301A      3.766607   302A      3.774326  
     303A      3.793950   304A      3.797973   305A      3.802633  
     306A      3.824365   307A      3.829093   308A      3.833780  
     309A      3.858147   310A      3.865414   311A      3.877949  
     312A      3.894893   313A      3.925393   314A      3.932725  
     315A      3.940335   316A      3.948759   317A      3.954471  
     318A      3.960398   319A      3.970984   320A      3.975861  
     321A      4.017471   322A      4.023836   323A      4.081641  
     324A      4.111998   325A      4.119957   326A      4.129865  
     327A      4.162131   328A      4.171441   329A      4.193604  
     330A      4.208741   331A      4.214746   332A      4.230518  
     333A      4.244504   334A      4.254680   335A      4.258615  
     336A      4.274843   337A      4.290590   338A      4.312674  
     339A      4.321481   340A      4.322384   341A      4.334135  
     342A      4.334303   343A      4.354040   344A      4.357516  
     345A      4.372218   346A      4.376813   347A      4.388442  
     348A      4.389750   349A      4.415543   350A      4.432383  
     351A      4.439071   352A      4.460884   353A      4.470512  
     354A      4.487568   355A      4.493195   356A      4.499457  
     357A      4.504021   358A      4.520734   359A      4.534580  
     360A      4.540505   361A      4.545476   362A      4.549773  
     363A      4.563962   364A      4.571133   365A      4.579352  
     366A      4.581160   367A      4.608439   368A      4.631243  
     369A      4.642029   370A      4.687442   371A      4.691890  
     372A      4.697306   373A      4.714433   374A      4.726453  
     375A      4.745521   376A      4.759700   377A      4.793993  
     378A      4.799683   379A      4.820189   380A      4.826432  
     381A      4.866462   382A      4.872950   383A      4.891686  
     384A      4.899292   385A      4.974738   386A      4.976785  
     387A      5.014027   388A      5.023989   389A      5.030512  
     390A      5.067044   391A      5.126489   392A      5.147106  
     393A      5.160100   394A      5.181816   395A      5.198855  
     396A      5.206669   397A      5.253862   398A      5.265654  
     399A      5.273229   400A      5.280269   401A      5.282070  
     402A      5.289632   403A      5.293744   404A      5.308476  
     405A      5.335835   406A      5.338237   407A      5.393974  
     408A      5.398994   409A      5.402323   410A      5.453919  
     411A      5.479359   412A      5.481191   413A      5.508667  
     414A      5.517057   415A      5.578826   416A      5.587129  
     417A      5.604475   418A      5.606223   419A      5.720640  
     420A      5.722929   421A      5.747991   422A      5.751032  
     423A      5.758342   424A      5.764795   425A      5.773554  
     426A      5.777850   427A      5.790203   428A      5.796291  
     429A      5.810515   430A      5.816585   431A      5.816619  
     432A      5.826739   433A      5.919651   434A      5.921329  
     435A      5.932600   436A      5.935185   437A      5.953171  
     438A      5.957138   439A      5.972070   440A      6.022020  
     441A      6.102039   442A      6.119182   443A      6.457532  
     444A      6.472363   445A      6.500954   446A      6.521485  
     447A      6.523592   448A      6.543103   449A      6.559106  
     450A      6.561184   451A      6.593573   452A      6.646470  
     453A     13.801209   454A     14.004602   455A     14.395960  
     456A     14.535548   457A     14.603524   458A     14.726333  

    Final Occupation by Irrep:
              A 
    DOCC [    26 ]

  @DF-RHF Final Energy:  -236.61324246175872

   => Energetics <=

    Nuclear Repulsion Energy =            251.6539886416202307
    One-Electron Energy =                -815.9933468748905625
    Two-Electron Energy =                 327.7261157715116155
    Total Energy =                       -236.6132424617587162

Computation Completed


Properties will be evaluated at   0.000000,   0.000000,   0.000000 [a0]

Properties computed using the SCF density matrix

  Nuclear Dipole Moment: [e a0]
     X:    -0.0001      Y:     0.0782      Z:    -0.0000

  Electronic Dipole Moment: [e a0]
     X:     0.0001      Y:    -0.0816      Z:     0.0000

  Dipole Moment: [e a0]
     X:     0.0000      Y:    -0.0034      Z:     0.0000     Total:     0.0034

  Dipole Moment: [D]
     X:     0.0000      Y:    -0.0087      Z:     0.0000     Total:     0.0087


*** tstop() called on r282 at Thu Sep  9 09:32:36 2021
Module time:
	user time   =      42.85 seconds =       0.71 minutes
	system time =       1.05 seconds =       0.02 minutes
	total time  =         44 seconds =       0.73 minutes
Total time:
	user time   =      42.85 seconds =       0.71 minutes
	system time =       1.05 seconds =       0.02 minutes
	total time  =         44 seconds =       0.73 minutes

  //>>>>>>>>>>>>>>>>>>>>>>>>>>>>>>>>>>>//
  //            Monomer A HF           //
  //<<<<<<<<<<<<<<<<<<<<<<<<<<<<<<<<<<<//


*** tstart() called on r282
*** at Thu Sep  9 09:32:36 2021

   => Loading Basis Set <=

    Name: JUN-CC-PVTZ
    Role: ORBITAL
    Keyword: BASIS
    atoms 1-3, 12-14  entry C          line   217 file /home/r08543048/miniconda3/share/psi4/basis/jun-cc-pvtz.gbs 
    atoms 4-11, 15-22 entry H          line    36 file /home/r08543048/miniconda3/share/psi4/basis/jun-cc-pvtz.gbs 


         ---------------------------------------------------------
                                   SCF
               by Justin Turney, Rob Parrish, Andy Simmonett
                          and Daniel G. A. Smith
                              RHF Reference
                        1 Threads,  20980 MiB Core
         ---------------------------------------------------------

  ==> Geometry <==

    Molecular point group: c1
    Full point group: C1

    Geometry (in Angstrom), charge = 0, multiplicity = 1:

       Center              X                  Y                   Z               Mass       
    ------------   -----------------  -----------------  -----------------  -----------------
         C           -2.096105294928    -1.232830738463     0.311073728726    12.000000000000
         C           -1.785127294928    -0.049872738463    -0.597489271274    12.000000000000
         C           -1.886082294928     1.279362261537     0.140190728726    12.000000000000
         H           -1.406431294928    -1.264149738463     1.156039728726     1.007825032230
         H           -3.107292294928    -1.155276738463     0.713211728726     1.007825032230
         H           -2.017415294928    -2.180904738463    -0.220493271274     1.007825032230
         H           -2.472398294928    -0.050260738463    -1.446088271274     1.007825032230
         H           -0.781606294928    -0.162684738463    -1.012871271274     1.007825032230
         H           -1.659701294928     2.121688261537    -0.513285271274     1.007825032230
         H           -2.891329294928     1.423288261537     0.539059728726     1.007825032230
         H           -1.189270294928     1.310482261537     0.979272728726     1.007825032230
      Gh(C)           2.095803705072    -1.232979738463    -0.311078271274    12.000000000000
      Gh(C)           1.785267705072    -0.049938738463     0.597528728726    12.000000000000
      Gh(C)           1.886254705072     1.279251261537    -0.140224271274    12.000000000000
      Gh(H)           1.405889705072    -1.264249738463    -1.155856271274     1.007825032230
      Gh(H)           3.106889705072    -1.155588738463    -0.713500271274     1.007825032230
      Gh(H)           2.017107705072    -2.181016738463     0.220552728726     1.007825032230
      Gh(H)           2.472755705072    -0.050407738463     1.445951728726     1.007825032230
      Gh(H)           0.781830705072    -0.162562738463     1.013173728726     1.007825032230
      Gh(H)           1.660239705072     2.121635261537     0.513303728726     1.007825032230
      Gh(H)           2.891406705072     1.422980261537    -0.539404271274     1.007825032230
      Gh(H)           1.189190705072     1.310476261537    -0.979083271274     1.007825032230

  Running in c1 symmetry.

  Rotational constants: A =      0.12723  B =      0.04653  C =      0.03782 [cm^-1]
  Rotational constants: A =   3814.23352  B =   1395.02617  C =   1133.73312 [MHz]
  Nuclear repulsion =   82.817219279052694

  Charge       = 0
  Multiplicity = 1
  Electrons    = 26
  Nalpha       = 13
  Nbeta        = 13

  ==> Algorithm <==

  SCF Algorithm Type is DF.
  DIIS enabled.
  MOM disabled.
  Fractional occupation disabled.
  Guess Type is SAD.
  Energy threshold   = 1.00e-08
  Density threshold  = 1.00e-08
  Integral threshold = 0.00e+00

  ==> Primary Basis <==

  Basis Set: JUN-CC-PVTZ
    Blend: JUN-CC-PVTZ
    Number of shells: 174
    Number of basis function: 458
    Number of Cartesian functions: 510
    Spherical Harmonics?: true
    Max angular momentum: 3

   => Loading Basis Set <=

    Name: (JUN-CC-PVTZ AUX)
    Role: JKFIT
    Keyword: DF_BASIS_SCF
    atoms 1-3, 12-14  entry C          line   152 file /home/r08543048/miniconda3/share/psi4/basis/jun-cc-pvtz-jkfit.gbs 
    atoms 4-11, 15-22 entry H          line    70 file /home/r08543048/miniconda3/share/psi4/basis/jun-cc-pvtz-jkfit.gbs 

  ==> Pre-Iterations <==

   -------------------------------------------------------
    Irrep   Nso     Nmo     Nalpha   Nbeta   Ndocc  Nsocc
   -------------------------------------------------------
     A        458     458       0       0       0       0
   -------------------------------------------------------
    Total     458     458      13      13      13       0
   -------------------------------------------------------

  ==> Integral Setup <==

  ==> DiskDFJK: Density-Fitted J/K Matrices <==

    J tasked:                  Yes
    K tasked:                  Yes
    wK tasked:                  No
    OpenMP threads:              1
    Integrals threads:           1
    Memory [MiB]:            15735
    Algorithm:                Core
    Integral Cache:           LOAD
    Schwarz Cutoff:          1E-12
    Fitting Condition:       1E-10

   => Auxiliary Basis Set <=

  Basis Set: (JUN-CC-PVTZ AUX)
    Blend: JUN-CC-PVTZ-JKFIT
    Number of shells: 334
    Number of basis function: 1050
    Number of Cartesian functions: 1256
    Spherical Harmonics?: true
    Max angular momentum: 4

  Minimum eigenvalue in the overlap matrix is 9.0725738596E-05.
  Using Symmetric Orthogonalization.

  SCF Guess: Superposition of Atomic Densities via on-the-fly atomic UHF.

  ==> Iterations <==

                           Total Energy        Delta E     RMS |[F,P]|

   @DF-RHF iter SAD:  -117.72589517981187   -1.17726e+02   0.00000e+00 
   @DF-RHF iter   1:  -118.14638971709489   -4.20495e-01   1.12530e-03 DIIS
   @DF-RHF iter   2:  -118.27577491652272   -1.29385e-01   5.32323e-04 DIIS
   @DF-RHF iter   3:  -118.30618714060165   -3.04122e-02   8.94540e-05 DIIS
   @DF-RHF iter   4:  -118.30803916198788   -1.85202e-03   1.76517e-05 DIIS
   @DF-RHF iter   5:  -118.30809752633340   -5.83643e-05   4.96101e-06 DIIS
   @DF-RHF iter   6:  -118.30810214679843   -4.62047e-06   8.90634e-07 DIIS
   @DF-RHF iter   7:  -118.30810231814358   -1.71345e-07   1.67952e-07 DIIS
   @DF-RHF iter   8:  -118.30810232564949   -7.50590e-09   2.94725e-08 DIIS
   @DF-RHF iter   9:  -118.30810232588755   -2.38060e-10   5.81123e-09 DIIS
  Energy and wave function converged.


  ==> Post-Iterations <==

    Orbital Energies [Eh]
    ---------------------

    Doubly Occupied:                                                      

       1A    -11.215580     2A    -11.207860     3A    -11.207814  
       4A     -1.054042     5A     -0.924836     6A     -0.799824  
       7A     -0.624736     8A     -0.598262     9A     -0.549392  
      10A     -0.530202    11A     -0.475536    12A     -0.474962  
      13A     -0.467986  

    Virtual:                                                              

      14A      0.033828    15A      0.047200    16A      0.052419  
      17A      0.058536    18A      0.068151    19A      0.073067  
      20A      0.084298    21A      0.088690    22A      0.091267  
      23A      0.105933    24A      0.109869    25A      0.113743  
      26A      0.117866    27A      0.119540    28A      0.122146  
      29A      0.132597    30A      0.145166    31A      0.152855  
      32A      0.153517    33A      0.157578    34A      0.164810  
      35A      0.176702    36A      0.201028    37A      0.203727  
      38A      0.228195    39A      0.237136    40A      0.259769  
      41A      0.261270    42A      0.272196    43A      0.276922  
      44A      0.280796    45A      0.292322    46A      0.300311  
      47A      0.303040    48A      0.314444    49A      0.318270  
      50A      0.324841    51A      0.329074    52A      0.335413  
      53A      0.341513    54A      0.344339    55A      0.350115  
      56A      0.359815    57A      0.370733    58A      0.374174  
      59A      0.381485    60A      0.384321    61A      0.385249  
      62A      0.388069    63A      0.398351    64A      0.401557  
      65A      0.419450    66A      0.423222    67A      0.435822  
      68A      0.440459    69A      0.453358    70A      0.461774  
      71A      0.473977    72A      0.479532    73A      0.480692  
      74A      0.505772    75A      0.515745    76A      0.521338  
      77A      0.527175    78A      0.539858    79A      0.547429  
      80A      0.555791    81A      0.568150    82A      0.571985  
      83A      0.574506    84A      0.579641    85A      0.589213  
      86A      0.595416    87A      0.609463    88A      0.620456  
      89A      0.627294    90A      0.633235    91A      0.650645  
      92A      0.663376    93A      0.668326    94A      0.676362  
      95A      0.686866    96A      0.694709    97A      0.714718  
      98A      0.736208    99A      0.752254   100A      0.761517  
     101A      0.775906   102A      0.781995   103A      0.789367  
     104A      0.799169   105A      0.807359   106A      0.815317  
     107A      0.820559   108A      0.839577   109A      0.847687  
     110A      0.875801   111A      0.882997   112A      0.894308  
     113A      0.910299   114A      0.927421   115A      0.963163  
     116A      0.981164   117A      0.996082   118A      1.002197  
     119A      1.024713   120A      1.044749   121A      1.069594  
     122A      1.083801   123A      1.100413   124A      1.105510  
     125A      1.122646   126A      1.127279   127A      1.136181  
     128A      1.148866   129A      1.162543   130A      1.167807  
     131A      1.177479   132A      1.193890   133A      1.208170  
     134A      1.209435   135A      1.229412   136A      1.239926  
     137A      1.257312   138A      1.265574   139A      1.274051  
     140A      1.286076   141A      1.293174   142A      1.298699  
     143A      1.322091   144A      1.325526   145A      1.327300  
     146A      1.339360   147A      1.344868   148A      1.352162  
     149A      1.377431   150A      1.384821   151A      1.391486  
     152A      1.405611   153A      1.413480   154A      1.426541  
     155A      1.435908   156A      1.442638   157A      1.444322  
     158A      1.456605   159A      1.467499   160A      1.483333  
     161A      1.494231   162A      1.507994   163A      1.521225  
     164A      1.532106   165A      1.544899   166A      1.557499  
     167A      1.563043   168A      1.576070   169A      1.584141  
     170A      1.593671   171A      1.606666   172A      1.610636  
     173A      1.617682   174A      1.623773   175A      1.646891  
     176A      1.652852   177A      1.665988   178A      1.678064  
     179A      1.684399   180A      1.698322   181A      1.721237  
     182A      1.730873   183A      1.742651   184A      1.757809  
     185A      1.775229   186A      1.793686   187A      1.815130  
     188A      1.833078   189A      1.849720   190A      1.861961  
     191A      1.878140   192A      1.894581   193A      1.915539  
     194A      1.921438   195A      1.960795   196A      1.970221  
     197A      1.977761   198A      1.992154   199A      2.017658  
     200A      2.040171   201A      2.077565   202A      2.105033  
     203A      2.145029   204A      2.182216   205A      2.191505  
     206A      2.209973   207A      2.335306   208A      2.389223  
     209A      2.406249   210A      2.413191   211A      2.452560  
     212A      2.490141   213A      2.573275   214A      2.599341  
     215A      2.608208   216A      2.750988   217A      2.762367  
     218A      2.800339   219A      2.825873   220A      2.847562  
     221A      2.871482   222A      2.920101   223A      2.931850  
     224A      2.963333   225A      2.981253   226A      2.986251  
     227A      3.033830   228A      3.095157   229A      3.103123  
     230A      3.132614   231A      3.160757   232A      3.164781  
     233A      3.210471   234A      3.253617   235A      3.285484  
     236A      3.291267   237A      3.318075   238A      3.326578  
     239A      3.370007   240A      3.377632   241A      3.387301  
     242A      3.419865   243A      3.435745   244A      3.463611  
     245A      3.472798   246A      3.478541   247A      3.486410  
     248A      3.495261   249A      3.504480   250A      3.524866  
     251A      3.531381   252A      3.537057   253A      3.542360  
     254A      3.569653   255A      3.574725   256A      3.583234  
     257A      3.590870   258A      3.596510   259A      3.609949  
     260A      3.617802   261A      3.638067   262A      3.646466  
     263A      3.657443   264A      3.683853   265A      3.713119  
     266A      3.721581   267A      3.733729   268A      3.736765  
     269A      3.765743   270A      3.783188   271A      3.783788  
     272A      3.796682   273A      3.813669   274A      3.821687  
     275A      3.838350   276A      3.845569   277A      3.853463  
     278A      3.866821   279A      3.873243   280A      3.892432  
     281A      3.909547   282A      3.917058   283A      3.928313  
     284A      3.941514   285A      3.952443   286A      3.959574  
     287A      3.966957   288A      3.978175   289A      3.985667  
     290A      4.031155   291A      4.068632   292A      4.101427  
     293A      4.120941   294A      4.135134   295A      4.147464  
     296A      4.157615   297A      4.176598   298A      4.193673  
     299A      4.206404   300A      4.213042   301A      4.228935  
     302A      4.232489   303A      4.236576   304A      4.242207  
     305A      4.300782   306A      4.306563   307A      4.322038  
     308A      4.336736   309A      4.350021   310A      4.361089  
     311A      4.369952   312A      4.373334   313A      4.378906  
     314A      4.400730   315A      4.417941   316A      4.425417  
     317A      4.444865   318A      4.451143   319A      4.467755  
     320A      4.481121   321A      4.493551   322A      4.500255  
     323A      4.510214   324A      4.512765   325A      4.530915  
     326A      4.534753   327A      4.541617   328A      4.550196  
     329A      4.565426   330A      4.577641   331A      4.589982  
     332A      4.604928   333A      4.612671   334A      4.622566  
     335A      4.648004   336A      4.655623   337A      4.669571  
     338A      4.687186   339A      4.695181   340A      4.709874  
     341A      4.714234   342A      4.724552   343A      4.744187  
     344A      4.754990   345A      4.781701   346A      4.798135  
     347A      4.801819   348A      4.812283   349A      4.818132  
     350A      4.821098   351A      4.836279   352A      4.845432  
     353A      4.851671   354A      4.861331   355A      4.882433  
     356A      4.894174   357A      4.908036   358A      4.914397  
     359A      4.935055   360A      4.941634   361A      4.953425  
     362A      4.954901   363A      4.967169   364A      4.987308  
     365A      5.004970   366A      5.009468   367A      5.014488  
     368A      5.042469   369A      5.048260   370A      5.069967  
     371A      5.075897   372A      5.125468   373A      5.135804  
     374A      5.146034   375A      5.162107   376A      5.178447  
     377A      5.201977   378A      5.219558   379A      5.232836  
     380A      5.260566   381A      5.276022   382A      5.285390  
     383A      5.298079   384A      5.308789   385A      5.340259  
     386A      5.382103   387A      5.398137   388A      5.408211  
     389A      5.432365   390A      5.476127   391A      5.494267  
     392A      5.514505   393A      5.583656   394A      5.601472  
     395A      5.612943   396A      5.618280   397A      5.624662  
     398A      5.629887   399A      5.632803   400A      5.722536  
     401A      5.750349   402A      5.768149   403A      5.776297  
     404A      5.793123   405A      5.814815   406A      5.821081  
     407A      5.833043   408A      5.902052   409A      5.928258  
     410A      5.931754   411A      5.952939   412A      5.968625  
     413A      5.994005   414A      6.018386   415A      6.053395  
     416A      6.106871   417A      6.188808   418A      6.197605  
     419A      6.255647   420A      6.346174   421A      6.348899  
     422A      6.378116   423A      6.423054   424A      6.436913  
     425A      6.468953   426A      6.485391   427A      6.503942  
     428A      6.527273   429A      6.544188   430A      6.559866  
     431A      6.609658   432A      6.612775   433A      6.761968  
     434A      6.900698   435A      6.997049   436A      7.300146  
     437A      7.485034   438A      7.559526   439A      7.593683  
     440A      7.636113   441A      7.692319   442A      7.698447  
     443A      7.807704   444A      7.826692   445A      7.865081  
     446A      7.908149   447A      8.052853   448A      8.217052  
     449A      8.495014   450A      9.585630   451A      9.888395  
     452A      9.913401   453A     13.905839   454A     14.467108  
     455A     14.665122   456A     44.378502   457A     45.374582  
     458A     45.785538  

    Final Occupation by Irrep:
              A 
    DOCC [    13 ]

  @DF-RHF Final Energy:  -118.30810232588755

   => Energetics <=

    Nuclear Repulsion Energy =             82.8172192790526935
    One-Electron Energy =                -321.9885777743621702
    Two-Electron Energy =                 120.8632561694219305
    Total Energy =                       -118.3081023258875462

Computation Completed


Properties will be evaluated at   0.000000,   0.000000,   0.000000 [a0]

Properties computed using the SCF density matrix

  Nuclear Dipole Moment: [e a0]
     X:   -94.7307      Y:     0.0418      Z:    -1.2897

  Electronic Dipole Moment: [e a0]
     X:    94.7387      Y:    -0.0446      Z:     1.2579

  Dipole Moment: [e a0]
     X:     0.0079      Y:    -0.0028      Z:    -0.0318     Total:     0.0329

  Dipole Moment: [D]
     X:     0.0202      Y:    -0.0071      Z:    -0.0809     Total:     0.0837


*** tstop() called on r282 at Thu Sep  9 09:32:57 2021
Module time:
	user time   =      21.04 seconds =       0.35 minutes
	system time =       0.42 seconds =       0.01 minutes
	total time  =         21 seconds =       0.35 minutes
Total time:
	user time   =      63.89 seconds =       1.06 minutes
	system time =       1.47 seconds =       0.02 minutes
	total time  =         65 seconds =       1.08 minutes

  //>>>>>>>>>>>>>>>>>>>>>>>>>>>>>>>>>>>//
  //            Monomer B HF           //
  //<<<<<<<<<<<<<<<<<<<<<<<<<<<<<<<<<<<//


*** tstart() called on r282
*** at Thu Sep  9 09:32:57 2021

   => Loading Basis Set <=

    Name: JUN-CC-PVTZ
    Role: ORBITAL
    Keyword: BASIS
    atoms 1-3, 12-14  entry C          line   217 file /home/r08543048/miniconda3/share/psi4/basis/jun-cc-pvtz.gbs 
    atoms 4-11, 15-22 entry H          line    36 file /home/r08543048/miniconda3/share/psi4/basis/jun-cc-pvtz.gbs 


         ---------------------------------------------------------
                                   SCF
               by Justin Turney, Rob Parrish, Andy Simmonett
                          and Daniel G. A. Smith
                              RHF Reference
                        1 Threads,  20980 MiB Core
         ---------------------------------------------------------

  ==> Geometry <==

    Molecular point group: c1
    Full point group: C1

    Geometry (in Angstrom), charge = 0, multiplicity = 1:

       Center              X                  Y                   Z               Mass       
    ------------   -----------------  -----------------  -----------------  -----------------
      Gh(C)          -2.096105294928    -1.232830738463     0.311073728726    12.000000000000
      Gh(C)          -1.785127294928    -0.049872738463    -0.597489271274    12.000000000000
      Gh(C)          -1.886082294928     1.279362261537     0.140190728726    12.000000000000
      Gh(H)          -1.406431294928    -1.264149738463     1.156039728726     1.007825032230
      Gh(H)          -3.107292294928    -1.155276738463     0.713211728726     1.007825032230
      Gh(H)          -2.017415294928    -2.180904738463    -0.220493271274     1.007825032230
      Gh(H)          -2.472398294928    -0.050260738463    -1.446088271274     1.007825032230
      Gh(H)          -0.781606294928    -0.162684738463    -1.012871271274     1.007825032230
      Gh(H)          -1.659701294928     2.121688261537    -0.513285271274     1.007825032230
      Gh(H)          -2.891329294928     1.423288261537     0.539059728726     1.007825032230
      Gh(H)          -1.189270294928     1.310482261537     0.979272728726     1.007825032230
         C            2.095803705072    -1.232979738463    -0.311078271274    12.000000000000
         C            1.785267705072    -0.049938738463     0.597528728726    12.000000000000
         C            1.886254705072     1.279251261537    -0.140224271274    12.000000000000
         H            1.405889705072    -1.264249738463    -1.155856271274     1.007825032230
         H            3.106889705072    -1.155588738463    -0.713500271274     1.007825032230
         H            2.017107705072    -2.181016738463     0.220552728726     1.007825032230
         H            2.472755705072    -0.050407738463     1.445951728726     1.007825032230
         H            0.781830705072    -0.162562738463     1.013173728726     1.007825032230
         H            1.660239705072     2.121635261537     0.513303728726     1.007825032230
         H            2.891406705072     1.422980261537    -0.539404271274     1.007825032230
         H            1.189190705072     1.310476261537    -0.979083271274     1.007825032230

  Running in c1 symmetry.

  Rotational constants: A =      0.12723  B =      0.04653  C =      0.03782 [cm^-1]
  Rotational constants: A =   3814.23352  B =   1395.02617  C =   1133.73312 [MHz]
  Nuclear repulsion =   82.817242756398969

  Charge       = 0
  Multiplicity = 1
  Electrons    = 26
  Nalpha       = 13
  Nbeta        = 13

  ==> Algorithm <==

  SCF Algorithm Type is DF.
  DIIS enabled.
  MOM disabled.
  Fractional occupation disabled.
  Guess Type is SAD.
  Energy threshold   = 1.00e-08
  Density threshold  = 1.00e-08
  Integral threshold = 0.00e+00

  ==> Primary Basis <==

  Basis Set: JUN-CC-PVTZ
    Blend: JUN-CC-PVTZ
    Number of shells: 174
    Number of basis function: 458
    Number of Cartesian functions: 510
    Spherical Harmonics?: true
    Max angular momentum: 3

   => Loading Basis Set <=

    Name: (JUN-CC-PVTZ AUX)
    Role: JKFIT
    Keyword: DF_BASIS_SCF
    atoms 1-3, 12-14  entry C          line   152 file /home/r08543048/miniconda3/share/psi4/basis/jun-cc-pvtz-jkfit.gbs 
    atoms 4-11, 15-22 entry H          line    70 file /home/r08543048/miniconda3/share/psi4/basis/jun-cc-pvtz-jkfit.gbs 

  ==> Pre-Iterations <==

   -------------------------------------------------------
    Irrep   Nso     Nmo     Nalpha   Nbeta   Ndocc  Nsocc
   -------------------------------------------------------
     A        458     458       0       0       0       0
   -------------------------------------------------------
    Total     458     458      13      13      13       0
   -------------------------------------------------------

  ==> Integral Setup <==

  ==> DiskDFJK: Density-Fitted J/K Matrices <==

    J tasked:                  Yes
    K tasked:                  Yes
    wK tasked:                  No
    OpenMP threads:              1
    Integrals threads:           1
    Memory [MiB]:            15735
    Algorithm:                Core
    Integral Cache:           LOAD
    Schwarz Cutoff:          1E-12
    Fitting Condition:       1E-10

   => Auxiliary Basis Set <=

  Basis Set: (JUN-CC-PVTZ AUX)
    Blend: JUN-CC-PVTZ-JKFIT
    Number of shells: 334
    Number of basis function: 1050
    Number of Cartesian functions: 1256
    Spherical Harmonics?: true
    Max angular momentum: 4

  Minimum eigenvalue in the overlap matrix is 9.0725738596E-05.
  Using Symmetric Orthogonalization.

  SCF Guess: Superposition of Atomic Densities via on-the-fly atomic UHF.

  ==> Iterations <==

                           Total Energy        Delta E     RMS |[F,P]|

   @DF-RHF iter SAD:  -117.72589708996105   -1.17726e+02   0.00000e+00 
   @DF-RHF iter   1:  -118.14638939467773   -4.20492e-01   1.12530e-03 DIIS
   @DF-RHF iter   2:  -118.27577479913454   -1.29385e-01   5.32324e-04 DIIS
   @DF-RHF iter   3:  -118.30618715546419   -3.04124e-02   8.94540e-05 DIIS
   @DF-RHF iter   4:  -118.30803917894839   -1.85202e-03   1.76518e-05 DIIS
   @DF-RHF iter   5:  -118.30809754335294   -5.83644e-05   4.96101e-06 DIIS
   @DF-RHF iter   6:  -118.30810216381172   -4.62046e-06   8.90636e-07 DIIS
   @DF-RHF iter   7:  -118.30810233515592   -1.71344e-07   1.67952e-07 DIIS
   @DF-RHF iter   8:  -118.30810234266417   -7.50825e-09   2.94724e-08 DIIS
   @DF-RHF iter   9:  -118.30810234289896   -2.34792e-10   5.81120e-09 DIIS
  Energy and wave function converged.


  ==> Post-Iterations <==

    Orbital Energies [Eh]
    ---------------------

    Doubly Occupied:                                                      

       1A    -11.215581     2A    -11.207859     3A    -11.207815  
       4A     -1.054042     5A     -0.924836     6A     -0.799824  
       7A     -0.624736     8A     -0.598261     9A     -0.549393  
      10A     -0.530202    11A     -0.475536    12A     -0.474960  
      13A     -0.467987  

    Virtual:                                                              

      14A      0.033828    15A      0.047200    16A      0.052419  
      17A      0.058536    18A      0.068151    19A      0.073067  
      20A      0.084298    21A      0.088690    22A      0.091266  
      23A      0.105930    24A      0.109870    25A      0.113743  
      26A      0.117866    27A      0.119543    28A      0.122147  
      29A      0.132597    30A      0.145166    31A      0.152853  
      32A      0.153516    33A      0.157581    34A      0.164812  
      35A      0.176706    36A      0.201026    37A      0.203727  
      38A      0.228195    39A      0.237129    40A      0.259768  
      41A      0.261266    42A      0.272201    43A      0.276926  
      44A      0.280797    45A      0.292316    46A      0.300306  
      47A      0.303030    48A      0.314451    49A      0.318272  
      50A      0.324842    51A      0.329075    52A      0.335419  
      53A      0.341517    54A      0.344334    55A      0.350120  
      56A      0.359818    57A      0.370725    58A      0.374172  
      59A      0.381490    60A      0.384317    61A      0.385254  
      62A      0.388067    63A      0.398347    64A      0.401558  
      65A      0.419443    66A      0.423224    67A      0.435834  
      68A      0.440464    69A      0.453370    70A      0.461769  
      71A      0.473959    72A      0.479537    73A      0.480697  
      74A      0.505766    75A      0.515748    76A      0.521340  
      77A      0.527146    78A      0.539856    79A      0.547424  
      80A      0.555790    81A      0.568167    82A      0.571988  
      83A      0.574513    84A      0.579647    85A      0.589196  
      86A      0.595428    87A      0.609465    88A      0.620451  
      89A      0.627303    90A      0.633235    91A      0.650641  
      92A      0.663395    93A      0.668318    94A      0.676368  
      95A      0.686866    96A      0.694710    97A      0.714721  
      98A      0.736214    99A      0.752247   100A      0.761515  
     101A      0.775906   102A      0.781994   103A      0.789370  
     104A      0.799166   105A      0.807350   106A      0.815325  
     107A      0.820564   108A      0.839549   109A      0.847656  
     110A      0.875811   111A      0.882995   112A      0.894287  
     113A      0.910310   114A      0.927406   115A      0.963148  
     116A      0.981157   117A      0.996072   118A      1.002194  
     119A      1.024709   120A      1.044766   121A      1.069594  
     122A      1.083844   123A      1.100435   124A      1.105518  
     125A      1.122657   126A      1.127302   127A      1.136169  
     128A      1.148863   129A      1.162535   130A      1.167796  
     131A      1.177471   132A      1.193902   133A      1.208190  
     134A      1.209468   135A      1.229416   136A      1.239932  
     137A      1.257323   138A      1.265561   139A      1.274054  
     140A      1.286083   141A      1.293137   142A      1.298704  
     143A      1.322102   144A      1.325518   145A      1.327317  
     146A      1.339367   147A      1.344839   148A      1.352148  
     149A      1.377414   150A      1.384822   151A      1.391485  
     152A      1.405610   153A      1.413504   154A      1.426549  
     155A      1.435915   156A      1.442643   157A      1.444338  
     158A      1.456600   159A      1.467496   160A      1.483327  
     161A      1.494199   162A      1.507990   163A      1.521240  
     164A      1.532113   165A      1.544913   166A      1.557496  
     167A      1.563028   168A      1.576067   169A      1.584149  
     170A      1.593656   171A      1.606649   172A      1.610654  
     173A      1.617682   174A      1.623776   175A      1.646900  
     176A      1.652875   177A      1.665950   178A      1.678049  
     179A      1.684382   180A      1.698323   181A      1.721237  
     182A      1.730880   183A      1.742660   184A      1.757844  
     185A      1.775190   186A      1.793668   187A      1.815117  
     188A      1.833115   189A      1.849701   190A      1.861955  
     191A      1.878165   192A      1.894589   193A      1.915553  
     194A      1.921446   195A      1.960801   196A      1.970200  
     197A      1.977746   198A      1.992153   199A      2.017625  
     200A      2.040186   201A      2.077580   202A      2.104974  
     203A      2.145017   204A      2.182216   205A      2.191499  
     206A      2.209974   207A      2.335310   208A      2.389240  
     209A      2.406240   210A      2.413201   211A      2.452572  
     212A      2.490142   213A      2.573291   214A      2.599343  
     215A      2.608222   216A      2.750986   217A      2.762371  
     218A      2.800338   219A      2.825892   220A      2.847562  
     221A      2.871457   222A      2.920099   223A      2.931851  
     224A      2.963327   225A      2.981264   226A      2.986224  
     227A      3.033830   228A      3.095150   229A      3.103106  
     230A      3.132626   231A      3.160758   232A      3.164799  
     233A      3.210493   234A      3.253614   235A      3.285479  
     236A      3.291263   237A      3.318087   238A      3.326563  
     239A      3.370014   240A      3.377625   241A      3.387294  
     242A      3.419874   243A      3.435760   244A      3.463610  
     245A      3.472824   246A      3.478545   247A      3.486411  
     248A      3.495266   249A      3.504483   250A      3.524860  
     251A      3.531391   252A      3.537064   253A      3.542354  
     254A      3.569667   255A      3.574725   256A      3.583236  
     257A      3.590861   258A      3.596515   259A      3.609936  
     260A      3.617804   261A      3.638051   262A      3.646461  
     263A      3.657477   264A      3.683868   265A      3.713116  
     266A      3.721583   267A      3.733742   268A      3.736774  
     269A      3.765757   270A      3.783182   271A      3.783783  
     272A      3.796689   273A      3.813645   274A      3.821659  
     275A      3.838352   276A      3.845565   277A      3.853482  
     278A      3.866831   279A      3.873224   280A      3.892422  
     281A      3.909556   282A      3.917038   283A      3.928316  
     284A      3.941505   285A      3.952440   286A      3.959577  
     287A      3.966963   288A      3.978174   289A      3.985667  
     290A      4.031154   291A      4.068612   292A      4.101413  
     293A      4.120945   294A      4.135142   295A      4.147454  
     296A      4.157613   297A      4.176595   298A      4.193700  
     299A      4.206396   300A      4.213046   301A      4.228946  
     302A      4.232501   303A      4.236548   304A      4.242192  
     305A      4.300776   306A      4.306573   307A      4.322040  
     308A      4.336730   309A      4.350026   310A      4.361075  
     311A      4.369924   312A      4.373329   313A      4.378868  
     314A      4.400737   315A      4.417939   316A      4.425442  
     317A      4.444869   318A      4.451139   319A      4.467718  
     320A      4.481109   321A      4.493548   322A      4.500245  
     323A      4.510214   324A      4.512750   325A      4.530918  
     326A      4.534760   327A      4.541609   328A      4.550205  
     329A      4.565452   330A      4.577654   331A      4.589969  
     332A      4.604935   333A      4.612679   334A      4.622567  
     335A      4.648013   336A      4.655629   337A      4.669563  
     338A      4.687183   339A      4.695191   340A      4.709904  
     341A      4.714223   342A      4.724559   343A      4.744179  
     344A      4.754978   345A      4.781719   346A      4.798136  
     347A      4.801824   348A      4.812269   349A      4.818120  
     350A      4.821108   351A      4.836294   352A      4.845457  
     353A      4.851698   354A      4.861311   355A      4.882428  
     356A      4.894147   357A      4.908042   358A      4.914370  
     359A      4.935067   360A      4.941612   361A      4.953384  
     362A      4.954889   363A      4.967173   364A      4.987306  
     365A      5.004994   366A      5.009468   367A      5.014497  
     368A      5.042456   369A      5.048281   370A      5.069965  
     371A      5.075848   372A      5.125481   373A      5.135786  
     374A      5.146036   375A      5.162110   376A      5.178446  
     377A      5.201988   378A      5.219552   379A      5.232857  
     380A      5.260563   381A      5.276012   382A      5.285398  
     383A      5.298079   384A      5.308799   385A      5.340257  
     386A      5.382100   387A      5.398157   388A      5.408213  
     389A      5.432328   390A      5.476117   391A      5.494275  
     392A      5.514511   393A      5.583662   394A      5.601493  
     395A      5.612951   396A      5.618280   397A      5.624658  
     398A      5.629879   399A      5.632802   400A      5.722539  
     401A      5.750353   402A      5.768141   403A      5.776308  
     404A      5.793143   405A      5.814816   406A      5.821090  
     407A      5.833056   408A      5.902057   409A      5.928253  
     410A      5.931745   411A      5.952938   412A      5.968629  
     413A      5.993994   414A      6.018377   415A      6.053404  
     416A      6.106886   417A      6.188820   418A      6.197603  
     419A      6.255634   420A      6.346182   421A      6.348898  
     422A      6.378115   423A      6.423056   424A      6.436908  
     425A      6.468952   426A      6.485399   427A      6.503951  
     428A      6.527274   429A      6.544209   430A      6.559861  
     431A      6.609631   432A      6.612758   433A      6.761968  
     434A      6.900694   435A      6.997077   436A      7.300141  
     437A      7.485030   438A      7.559530   439A      7.593681  
     440A      7.636116   441A      7.692310   442A      7.698456  
     443A      7.807719   444A      7.826686   445A      7.865081  
     446A      7.908148   447A      8.052860   448A      8.217060  
     449A      8.495022   450A      9.585648   451A      9.888435  
     452A      9.913403   453A     13.905721   454A     14.467037  
     455A     14.665136   456A     44.378746   457A     45.374645  
     458A     45.785510  

    Final Occupation by Irrep:
              A 
    DOCC [    13 ]

  @DF-RHF Final Energy:  -118.30810234289896

   => Energetics <=

    Nuclear Repulsion Energy =             82.8172427563989686
    One-Electron Energy =                -321.9886255163949045
    Two-Electron Energy =                 120.8632804170969735
    Total Energy =                       -118.3081023428989624

Computation Completed


Properties will be evaluated at   0.000000,   0.000000,   0.000000 [a0]

Properties computed using the SCF density matrix

  Nuclear Dipole Moment: [e a0]
     X:    94.7306      Y:     0.0364      Z:     1.2897

  Electronic Dipole Moment: [e a0]
     X:   -94.7385      Y:    -0.0392      Z:    -1.2579

  Dipole Moment: [e a0]
     X:    -0.0079      Y:    -0.0028      Z:     0.0318     Total:     0.0329

  Dipole Moment: [D]
     X:    -0.0202      Y:    -0.0071      Z:     0.0809     Total:     0.0837


*** tstop() called on r282 at Thu Sep  9 09:33:20 2021
Module time:
	user time   =      21.76 seconds =       0.36 minutes
	system time =       0.45 seconds =       0.01 minutes
	total time  =         23 seconds =       0.38 minutes
Total time:
	user time   =      85.66 seconds =       1.43 minutes
	system time =       1.92 seconds =       0.03 minutes
	total time  =         88 seconds =       1.47 minutes
  Constructing Basis Sets for SAPT...

   => Loading Basis Set <=

    Name: (JUN-CC-PVTZ AUX)
    Role: RIFIT
    Keyword: DF_BASIS_SAPT
    atoms 1-3, 12-14  entry C          line   132 file /home/r08543048/miniconda3/share/psi4/basis/jun-cc-pvtz-ri.gbs 
    atoms 4-11, 15-22 entry H          line    30 file /home/r08543048/miniconda3/share/psi4/basis/jun-cc-pvtz-ri.gbs 


  //>>>>>>>>>>>>>>>>>>>>>>>>>>>>>>>>>>>//
  //               SAPT0               //
  //<<<<<<<<<<<<<<<<<<<<<<<<<<<<<<<<<<<//


*** tstart() called on r282
*** at Thu Sep  9 09:33:20 2021

        SAPT0  
    Ed Hohenstein
     6 June 2009

      Orbital Information
  --------------------------
    NSO        =       458
    NMO        =       458
    NRI        =      1062
    NOCC A     =        13
    NOCC B     =        13
    FOCC A     =         3
    FOCC B     =         3
    NVIR A     =       445
    NVIR B     =       445

    Elst10,r            =    -0.001397689968 [Eh]
    Exch10              =     0.004790637953 [Eh]
    Exch10 (S^2)        =     0.004781426721 [Eh]

    Iter     Energy [mEh]          dE [mEh]         Residual      Time [s]
       1      -0.30359845       0.303598454       2.231802147             0
       2      -0.37086871       0.067270257       0.395149569             1
       3      -0.37038686      -0.000481853       0.144124228             2
       4      -0.36949371      -0.000893148       0.032892789             3
       5      -0.36959408       0.000100369       0.008173349             3
       6      -0.36962282       0.000028745       0.001515426             4
       7      -0.36961747      -0.000005350       0.000358562             5
       8      -0.36961719      -0.000000279       0.000099237             5
       9      -0.36961747       0.000000279       0.000018479             6
      10      -0.36961747      -0.000000008       0.000004054             7
      11      -0.36961746      -0.000000008       0.000000923             8

    CHF Iterations converged


    Iter     Energy [mEh]          dE [mEh]         Residual      Time [s]
       1      -0.30347674       0.303476735       2.231203541             0
       2      -0.37070930       0.067232565       0.394887949             1
       3      -0.37022726      -0.000482039       0.143999066             2
       4      -0.36933532      -0.000891943       0.032874087             3
       5      -0.36943549       0.000100167       0.008171876             3
       6      -0.36946424       0.000028760       0.001515218             4
       7      -0.36945890      -0.000005344       0.000358773             5
       8      -0.36945862      -0.000000281       0.000099243             5
       9      -0.36945890       0.000000279       0.000018476             6
      10      -0.36945889      -0.000000007       0.000004053             7
      11      -0.36945888      -0.000000008       0.000000922             8

    CHF Iterations converged

    Ind20,r (A<-B)      =    -0.000369617459 [Eh]
    Ind20,r (B<-A)      =    -0.000369458883 [Eh]
    Ind20,r             =    -0.000739076342 [Eh]
    Exch-Ind20,r (A<-B) =     0.000320846097 [Eh]
    Exch-Ind20,r (B<-A) =     0.000320667460 [Eh]
    Exch-Ind20,r        =     0.000641513557 [Eh]
    Disp20              =    -0.006619503362 [Eh]
    Disp20 (SS)         =    -0.003309751681 [Eh]
    Disp20 (OS)         =    -0.003309751681 [Eh]
    Exch-Disp20         =     0.000522608362 [Eh]
    Exch-Disp20 (SS)    =     0.000342607866 [Eh]
    Exch-Disp20 (OS)    =     0.000180000496 [Eh]

    SAPT Results 
  --------------------------------------------------------------------------------------------------------
    Electrostatics                 -1.39768997 [mEh]      -0.87706370 [kcal/mol]      -3.66963451 [kJ/mol]
      Elst10,r                     -1.39768997 [mEh]      -0.87706370 [kcal/mol]      -3.66963451 [kJ/mol]

    Exchange                        4.79063795 [mEh]       3.00617070 [kcal/mol]      12.57781821 [kJ/mol]
      Exch10                        4.79063795 [mEh]       3.00617070 [kcal/mol]      12.57781821 [kJ/mol]
      Exch10(S^2)                   4.78142672 [mEh]       3.00039057 [kcal/mol]      12.55363413 [kJ/mol]

    Induction                      -0.43074096 [mEh]      -0.27029403 [kcal/mol]      -1.13091023 [kJ/mol]
      Ind20,r                      -0.73907634 [mEh]      -0.46377741 [kcal/mol]      -1.94044467 [kJ/mol]
      Exch-Ind20,r                  0.64151356 [mEh]       0.40255583 [kcal/mol]       1.68429361 [kJ/mol]
      delta HF,r (2)               -0.33317817 [mEh]      -0.20907246 [kcal/mol]      -0.87475917 [kJ/mol]

    Dispersion                     -6.09689500 [mEh]      -3.82585937 [kcal/mol]     -16.00739562 [kJ/mol]
      Disp20                       -6.61950336 [mEh]      -4.15380107 [kcal/mol]     -17.37950368 [kJ/mol]
      Exch-Disp20                   0.52260836 [mEh]       0.32794170 [kcal/mol]       1.37210807 [kJ/mol]
      Disp20 (SS)                  -3.30975168 [mEh]      -2.07690054 [kcal/mol]      -8.68975184 [kJ/mol]
      Disp20 (OS)                  -3.30975168 [mEh]      -2.07690054 [kcal/mol]      -8.68975184 [kJ/mol]
      Exch-Disp20 (SS)              0.34260787 [mEh]       0.21498968 [kcal/mol]       0.89951683 [kJ/mol]
      Exch-Disp20 (OS)              0.18000050 [mEh]       0.11295202 [kcal/mol]       0.47259124 [kJ/mol]

  Total HF                          2.96220703 [mEh]       1.85881297 [kcal/mol]       7.77727348 [kJ/mol]
  Total SAPT0                      -3.13468797 [mEh]      -1.96704640 [kcal/mol]      -8.23012214 [kJ/mol]

  Special recipe for scaled SAPT0 (see Manual):
    Electrostatics sSAPT0          -1.39768997 [mEh]      -0.87706370 [kcal/mol]      -3.66963451 [kJ/mol]
    Exchange sSAPT0                 4.79063795 [mEh]       3.00617070 [kcal/mol]      12.57781821 [kJ/mol]
    Induction sSAPT0               -0.42702626 [mEh]      -0.26796302 [kcal/mol]      -1.12115728 [kJ/mol]
    Dispersion sSAPT0              -6.09386882 [mEh]      -3.82396042 [kcal/mol]     -15.99945039 [kJ/mol]
  Total sSAPT0                     -3.12794710 [mEh]      -1.96281644 [kcal/mol]      -8.21242397 [kJ/mol]
  --------------------------------------------------------------------------------------------------------

*** tstop() called on r282 at Thu Sep  9 09:34:30 2021
Module time:
	user time   =      58.67 seconds =       0.98 minutes
	system time =      11.15 seconds =       0.19 minutes
	total time  =         70 seconds =       1.17 minutes
Total time:
	user time   =     144.47 seconds =       2.41 minutes
	system time =      13.07 seconds =       0.22 minutes
	total time  =        158 seconds =       2.63 minutes

    Psi4 stopped on: Thursday, 09 September 2021 09:34AM
    Psi4 wall time for execution: 0:02:37.82

*** Psi4 exiting successfully. Buy a developer a beer!
