
    -----------------------------------------------------------------------
          Psi4: An Open-Source Ab Initio Electronic Structure Package
                               Psi4 1.3.2 release

                         Git: Rev {HEAD} ecbda83 


    R. M. Parrish, L. A. Burns, D. G. A. Smith, A. C. Simmonett,
    A. E. DePrince III, E. G. Hohenstein, U. Bozkaya, A. Yu. Sokolov,
    R. Di Remigio, R. M. Richard, J. F. Gonthier, A. M. James,
    H. R. McAlexander, A. Kumar, M. Saitow, X. Wang, B. P. Pritchard,
    P. Verma, H. F. Schaefer III, K. Patkowski, R. A. King, E. F. Valeev,
    F. A. Evangelista, J. M. Turney, T. D. Crawford, and C. D. Sherrill,
    J. Chem. Theory Comput. 13(7) pp 3185--3197 (2017).
    (doi: 10.1021/acs.jctc.7b00174)


                         Additional Contributions by
    P. Kraus, H. Kruse, M. H. Lechner, M. C. Schieber, R. A. Shaw,
    A. Alenaizan, R. Galvelis, Z. L. Glick, S. Lehtola, and J. P. Misiewicz

    -----------------------------------------------------------------------


    Psi4 started on: Thursday, 09 September 2021 09:34AM

    Process ID: 53708
    Host:       r282
    PSIDATADIR: /home/r08543048/miniconda3/share/psi4
    Memory:     500.0 MiB
    Threads:    1
    
  ==> Input File <==

--------------------------------------------------------------------------
# Any line starting with the # character is a comment line
#! Sample  computation

memory 22 gb

molecule Dimer {
 
0 1                               
 C    1.16247300    1.98798700   -0.12440300
 C    2.19033800    1.16461500    0.10223100
 C    2.35879800   -0.17956600   -0.53196300
 C    2.47776600   -1.28976100    0.51266000
 H    1.09039400    2.94804900    0.36807900
 H    0.37443600    1.71564600   -0.81535800
 H    2.96252000    1.46886700    0.80406400
 H    1.51476000   -0.37330000   -1.19692400
 H    3.26155200   -0.17666800   -1.14910500
 H    3.32304700   -1.10557800    1.17666100
 H    1.57809200   -1.34468400    1.12552500
 H    2.62856900   -2.26038800    0.04028300






 
 --
0 1
 C    -1.14767200   -1.90084000   -0.48419000
 C    -1.40591300   -0.81482200    0.25014100
 C    -2.75441900   -0.18244500    0.38767900
 C    -2.75713300    1.25870300   -0.12377700
 H    -0.14867800   -2.30882200   -0.55594900
 H    -1.93684800   -2.40787200   -1.02580700
 H    -0.58899400   -0.32564700    0.77425300
 H    -3.49219500   -0.77694000   -0.15483100
 H    -3.04981500   -0.18610300    1.44028000
 H    -2.02542900    1.86051800    0.41605800
 H    -2.50110500    1.28942300   -1.18286200
 H    -3.73573200    1.72027600    0.00535700






 
 
 
units angstrom

no_reorient
symmetry c1
}

set globals{
  basis jun-cc-pVTZ
  scf_type DF 
  freeze_core True
}

energy('sapt0')


--------------------------------------------------------------------------

  Memory set to  20.489 GiB by Python driver.

  //>>>>>>>>>>>>>>>>>>>>>>>>>>>>>>>>>>>//
  //              Dimer HF             //
  //<<<<<<<<<<<<<<<<<<<<<<<<<<<<<<<<<<<//


*** tstart() called on r282
*** at Thu Sep  9 09:34:30 2021

   => Loading Basis Set <=

    Name: JUN-CC-PVTZ
    Role: ORBITAL
    Keyword: BASIS
    atoms 1-4, 13-16  entry C          line   217 file /home/r08543048/miniconda3/share/psi4/basis/jun-cc-pvtz.gbs 
    atoms 5-12, 17-24 entry H          line    36 file /home/r08543048/miniconda3/share/psi4/basis/jun-cc-pvtz.gbs 


         ---------------------------------------------------------
                                   SCF
               by Justin Turney, Rob Parrish, Andy Simmonett
                          and Daniel G. A. Smith
                              RHF Reference
                        1 Threads,  20980 MiB Core
         ---------------------------------------------------------

  ==> Geometry <==

    Molecular point group: c1
    Full point group: C1

    Geometry (in Angstrom), charge = 0, multiplicity = 1:

       Center              X                  Y                   Z               Mass       
    ------------   -----------------  -----------------  -----------------  -----------------
         C            1.155876828808     1.985657735300    -0.123785882642    12.000000000000
         C            2.183741828808     1.162285735300     0.102848117358    12.000000000000
         C            2.352201828808    -0.181895264700    -0.531345882642    12.000000000000
         C            2.471169828808    -1.292090264700     0.513277117358    12.000000000000
         H            1.083797828808     2.945719735300     0.368696117358     1.007825032230
         H            0.367839828808     1.713316735300    -0.814740882642     1.007825032230
         H            2.955923828808     1.466537735300     0.804681117358     1.007825032230
         H            1.508163828808    -0.375629264700    -1.196306882642     1.007825032230
         H            3.254955828808    -0.178997264700    -1.148487882642     1.007825032230
         H            3.316450828808    -1.107907264700     1.177278117358     1.007825032230
         H            1.571495828808    -1.347013264700     1.126142117358     1.007825032230
         H            2.621972828808    -2.262717264700     0.040900117358     1.007825032230
         C           -1.154268171192    -1.903169264700    -0.483572882642    12.000000000000
         C           -1.412509171192    -0.817151264700     0.250758117358    12.000000000000
         C           -2.761015171192    -0.184774264700     0.388296117358    12.000000000000
         C           -2.763729171192     1.256373735300    -0.123159882642    12.000000000000
         H           -0.155274171192    -2.311151264700    -0.555331882642     1.007825032230
         H           -1.943444171192    -2.410201264700    -1.025189882642     1.007825032230
         H           -0.595590171192    -0.327976264700     0.774870117358     1.007825032230
         H           -3.498791171192    -0.779269264700    -0.154213882642     1.007825032230
         H           -3.056411171192    -0.188432264700     1.440897117358     1.007825032230
         H           -2.032025171192     1.858188735300     0.416675117358     1.007825032230
         H           -2.507701171192     1.287093735300    -1.182244882642     1.007825032230
         H           -3.742328171192     1.717946735300     0.005974117358     1.007825032230

  Running in c1 symmetry.

  Rotational constants: A =      0.07598  B =      0.03035  C =      0.02318 [cm^-1]
  Rotational constants: A =   2277.68946  B =    909.91909  C =    694.82601 [MHz]
  Nuclear repulsion =  354.972545394270185

  Charge       = 0
  Multiplicity = 1
  Electrons    = 64
  Nalpha       = 32
  Nbeta        = 32

  ==> Algorithm <==

  SCF Algorithm Type is DF.
  DIIS enabled.
  MOM disabled.
  Fractional occupation disabled.
  Guess Type is SAD.
  Energy threshold   = 1.00e-08
  Density threshold  = 1.00e-08
  Integral threshold = 0.00e+00

  ==> Primary Basis <==

  Basis Set: JUN-CC-PVTZ
    Blend: JUN-CC-PVTZ
    Number of shells: 200
    Number of basis function: 536
    Number of Cartesian functions: 600
    Spherical Harmonics?: true
    Max angular momentum: 3

   => Loading Basis Set <=

    Name: (JUN-CC-PVTZ AUX)
    Role: JKFIT
    Keyword: DF_BASIS_SCF
    atoms 1-4, 13-16  entry C          line   152 file /home/r08543048/miniconda3/share/psi4/basis/jun-cc-pvtz-jkfit.gbs 
    atoms 5-12, 17-24 entry H          line    70 file /home/r08543048/miniconda3/share/psi4/basis/jun-cc-pvtz-jkfit.gbs 

  ==> Pre-Iterations <==

   -------------------------------------------------------
    Irrep   Nso     Nmo     Nalpha   Nbeta   Ndocc  Nsocc
   -------------------------------------------------------
     A        536     536       0       0       0       0
   -------------------------------------------------------
    Total     536     536      32      32      32       0
   -------------------------------------------------------

  ==> Integral Setup <==

  ==> DiskDFJK: Density-Fitted J/K Matrices <==

    J tasked:                  Yes
    K tasked:                  Yes
    wK tasked:                  No
    OpenMP threads:              1
    Integrals threads:           1
    Memory [MiB]:            15735
    Algorithm:                Core
    Integral Cache:           SAVE
    Schwarz Cutoff:          1E-12
    Fitting Condition:       1E-10

   => Auxiliary Basis Set <=

  Basis Set: (JUN-CC-PVTZ AUX)
    Blend: JUN-CC-PVTZ-JKFIT
    Number of shells: 392
    Number of basis function: 1240
    Number of Cartesian functions: 1488
    Spherical Harmonics?: true
    Max angular momentum: 4

  Minimum eigenvalue in the overlap matrix is 2.8787488779E-05.
  Using Symmetric Orthogonalization.

  SCF Guess: Superposition of Atomic Densities via on-the-fly atomic UHF.

  ==> Iterations <==

                           Total Energy        Delta E     RMS |[F,P]|

   @DF-RHF iter SAD:  -310.91533469382290   -3.10915e+02   0.00000e+00 
   @DF-RHF iter   1:  -311.98941249289771   -1.07408e+00   1.36879e-03 DIIS
   @DF-RHF iter   2:  -312.26740481129491   -2.77992e-01   6.01727e-04 DIIS
   @DF-RHF iter   3:  -312.32185829325505   -5.44535e-02   1.19652e-04 DIIS
   @DF-RHF iter   4:  -312.32561223075459   -3.75394e-03   4.32649e-05 DIIS
   @DF-RHF iter   5:  -312.32594410123522   -3.31870e-04   8.21473e-06 DIIS
   @DF-RHF iter   6:  -312.32596178915702   -1.76879e-05   1.61292e-06 DIIS
   @DF-RHF iter   7:  -312.32596257815925   -7.89002e-07   4.13448e-07 DIIS
   @DF-RHF iter   8:  -312.32596263677146   -5.86122e-08   1.23220e-07 DIIS
   @DF-RHF iter   9:  -312.32596264245905   -5.68758e-09   5.44209e-08 DIIS
   @DF-RHF iter  10:  -312.32596264375064   -1.29160e-09   2.07892e-08 DIIS
   @DF-RHF iter  11:  -312.32596264392481   -1.74168e-10   6.33628e-09 DIIS
  Energy and wave function converged.


  ==> Post-Iterations <==

    Orbital Energies [Eh]
    ---------------------

    Doubly Occupied:                                                      

       1A    -11.231090     2A    -11.229136     3A    -11.223799  
       4A    -11.223279     5A    -11.216971     6A    -11.216082  
       7A    -11.214618     8A    -11.213901     9A     -1.082059  
      10A     -1.078888    11A     -0.989633    12A     -0.986360  
      13A     -0.856623    14A     -0.854500    15A     -0.757743  
      16A     -0.752985    17A     -0.648403    18A     -0.638152  
      19A     -0.609345    20A     -0.603288    21A     -0.588858  
      22A     -0.581619    23A     -0.536833    24A     -0.532628  
      25A     -0.517450    26A     -0.516225    27A     -0.487239  
      28A     -0.486165    29A     -0.478987    30A     -0.473293  
      31A     -0.358412    32A     -0.355054  

    Virtual:                                                              

      33A      0.050666    34A      0.053205    35A      0.056007  
      36A      0.059412    37A      0.068404    38A      0.071639  
      39A      0.077026    40A      0.083402    41A      0.088127  
      42A      0.098931    43A      0.106150    44A      0.111636  
      45A      0.113329    46A      0.119316    47A      0.126344  
      48A      0.130292    49A      0.134876    50A      0.135970  
      51A      0.144246    52A      0.148645    53A      0.155972  
      54A      0.165109    55A      0.170920    56A      0.179679  
      57A      0.180367    58A      0.186787    59A      0.192049  
      60A      0.193599    61A      0.205286    62A      0.214887  
      63A      0.220319    64A      0.226589    65A      0.231183  
      66A      0.234432    67A      0.262335    68A      0.265610  
      69A      0.275930    70A      0.277046    71A      0.288546  
      72A      0.289818    73A      0.297097    74A      0.302854  
      75A      0.311311    76A      0.316659    77A      0.318370  
      78A      0.324334    79A      0.327223    80A      0.334003  
      81A      0.338133    82A      0.342481    83A      0.346669  
      84A      0.357274    85A      0.360683    86A      0.366650  
      87A      0.371661    88A      0.378090    89A      0.385258  
      90A      0.386833    91A      0.394379    92A      0.399470  
      93A      0.403438    94A      0.413287    95A      0.418531  
      96A      0.424045    97A      0.434099    98A      0.437438  
      99A      0.451927   100A      0.454483   101A      0.458721  
     102A      0.467401   103A      0.471262   104A      0.478864  
     105A      0.483658   106A      0.485364   107A      0.500613  
     108A      0.510993   109A      0.513318   110A      0.518433  
     111A      0.526766   112A      0.530898   113A      0.538367  
     114A      0.541537   115A      0.551105   116A      0.552522  
     117A      0.556241   118A      0.564700   119A      0.573880  
     120A      0.581630   121A      0.586551   122A      0.593248  
     123A      0.606919   124A      0.611246   125A      0.627098  
     126A      0.631886   127A      0.657702   128A      0.667502  
     129A      0.684664   130A      0.691554   131A      0.714080  
     132A      0.722215   133A      0.728815   134A      0.734430  
     135A      0.736074   136A      0.741232   137A      0.753182  
     138A      0.766496   139A      0.779821   140A      0.783075  
     141A      0.791213   142A      0.795840   143A      0.803471  
     144A      0.803696   145A      0.813256   146A      0.815337  
     147A      0.819124   148A      0.832659   149A      0.840389  
     150A      0.842166   151A      0.854055   152A      0.863027  
     153A      0.871427   154A      0.875489   155A      0.880539  
     156A      0.888756   157A      0.892793   158A      0.901405  
     159A      0.919769   160A      0.928452   161A      0.932721  
     162A      0.933346   163A      0.951256   164A      0.962747  
     165A      0.972654   166A      0.976322   167A      0.988667  
     168A      0.998442   169A      1.003297   170A      1.024202  
     171A      1.038252   172A      1.047432   173A      1.049470  
     174A      1.065779   175A      1.070015   176A      1.082434  
     177A      1.096669   178A      1.106572   179A      1.121394  
     180A      1.127004   181A      1.140602   182A      1.152352  
     183A      1.170953   184A      1.179657   185A      1.192296  
     186A      1.209250   187A      1.212931   188A      1.226823  
     189A      1.237284   190A      1.248508   191A      1.266331  
     192A      1.275613   193A      1.284993   194A      1.288573  
     195A      1.297071   196A      1.304227   197A      1.317820  
     198A      1.335363   199A      1.345365   200A      1.359320  
     201A      1.366034   202A      1.369162   203A      1.386113  
     204A      1.389889   205A      1.398186   206A      1.404015  
     207A      1.410224   208A      1.431937   209A      1.441311  
     210A      1.450939   211A      1.478440   212A      1.485110  
     213A      1.490270   214A      1.499784   215A      1.507500  
     216A      1.518987   217A      1.532389   218A      1.537295  
     219A      1.541232   220A      1.551993   221A      1.568340  
     222A      1.575026   223A      1.587629   224A      1.596568  
     225A      1.600524   226A      1.614182   227A      1.627123  
     228A      1.637722   229A      1.643491   230A      1.650719  
     231A      1.659408   232A      1.670364   233A      1.683067  
     234A      1.692762   235A      1.708386   236A      1.716042  
     237A      1.718164   238A      1.731947   239A      1.739101  
     240A      1.749010   241A      1.781279   242A      1.791850  
     243A      1.812591   244A      1.818706   245A      1.831858  
     246A      1.838021   247A      1.846021   248A      1.857308  
     249A      1.867698   250A      1.894411   251A      1.905070  
     252A      1.921599   253A      1.937644   254A      1.943422  
     255A      1.962486   256A      1.986010   257A      1.993148  
     258A      2.010900   259A      2.088234   260A      2.098299  
     261A      2.118746   262A      2.152771   263A      2.252703  
     264A      2.282019   265A      2.642331   266A      2.662046  
     267A      2.727876   268A      2.757494   269A      2.769916  
     270A      2.789365   271A      2.792868   272A      2.804955  
     273A      2.810236   274A      2.821481   275A      2.838887  
     276A      2.855535   277A      2.857097   278A      2.864640  
     279A      2.877320   280A      2.879413   281A      2.902673  
     282A      2.905722   283A      2.923358   284A      2.935923  
     285A      2.950483   286A      2.960578   287A      2.971423  
     288A      2.982046   289A      2.993372   290A      3.005025  
     291A      3.012912   292A      3.021513   293A      3.031835  
     294A      3.066618   295A      3.074526   296A      3.083970  
     297A      3.088256   298A      3.107066   299A      3.114485  
     300A      3.119711   301A      3.132623   302A      3.141740  
     303A      3.146211   304A      3.162475   305A      3.174320  
     306A      3.179349   307A      3.196079   308A      3.200837  
     309A      3.203005   310A      3.215930   311A      3.232725  
     312A      3.237169   313A      3.256150   314A      3.259481  
     315A      3.278058   316A      3.295525   317A      3.303619  
     318A      3.311007   319A      3.314107   320A      3.327190  
     321A      3.338107   322A      3.346262   323A      3.355107  
     324A      3.364722   325A      3.371149   326A      3.384475  
     327A      3.391728   328A      3.405410   329A      3.410321  
     330A      3.417738   331A      3.423200   332A      3.439270  
     333A      3.446474   334A      3.451350   335A      3.457328  
     336A      3.475403   337A      3.479380   338A      3.488511  
     339A      3.494863   340A      3.502826   341A      3.515704  
     342A      3.517475   343A      3.522214   344A      3.533184  
     345A      3.536349   346A      3.551261   347A      3.557453  
     348A      3.563864   349A      3.576130   350A      3.587962  
     351A      3.592350   352A      3.603480   353A      3.612287  
     354A      3.623594   355A      3.641109   356A      3.648278  
     357A      3.670607   358A      3.681253   359A      3.697379  
     360A      3.712784   361A      3.718114   362A      3.728035  
     363A      3.746696   364A      3.749293   365A      3.752081  
     366A      3.774286   367A      3.777547   368A      3.810441  
     369A      3.818645   370A      3.829522   371A      3.835142  
     372A      3.859216   373A      3.864094   374A      3.867062  
     375A      3.876060   376A      3.887633   377A      3.899269  
     378A      3.909874   379A      3.923269   380A      3.939115  
     381A      3.967616   382A      3.984446   383A      3.998098  
     384A      4.005575   385A      4.013164   386A      4.023127  
     387A      4.029018   388A      4.043389   389A      4.066353  
     390A      4.075841   391A      4.094273   392A      4.101606  
     393A      4.128049   394A      4.140503   395A      4.175733  
     396A      4.182373   397A      4.190038   398A      4.194414  
     399A      4.209180   400A      4.219985   401A      4.251298  
     402A      4.257527   403A      4.264490   404A      4.272303  
     405A      4.280191   406A      4.290036   407A      4.314322  
     408A      4.335098   409A      4.338497   410A      4.342590  
     411A      4.346606   412A      4.356385   413A      4.363432  
     414A      4.369259   415A      4.388742   416A      4.396692  
     417A      4.407245   418A      4.415099   419A      4.420877  
     420A      4.431457   421A      4.431836   422A      4.452134  
     423A      4.457429   424A      4.465984   425A      4.472761  
     426A      4.478435   427A      4.492211   428A      4.499633  
     429A      4.507348   430A      4.517071   431A      4.525603  
     432A      4.536193   433A      4.550606   434A      4.574338  
     435A      4.584186   436A      4.588814   437A      4.623980  
     438A      4.630983   439A      4.658248   440A      4.665075  
     441A      4.676504   442A      4.683373   443A      4.704452  
     444A      4.718335   445A      4.740713   446A      4.767461  
     447A      4.780306   448A      4.790007   449A      4.805426  
     450A      4.820225   451A      4.831307   452A      4.855925  
     453A      4.865716   454A      4.894319   455A      4.911540  
     456A      4.919411   457A      4.945126   458A      4.954288  
     459A      4.961291   460A      4.969014   461A      5.006172  
     462A      5.010190   463A      5.074425   464A      5.089150  
     465A      5.102250   466A      5.111681   467A      5.200726  
     468A      5.207100   469A      5.225138   470A      5.234006  
     471A      5.238396   472A      5.241382   473A      5.249055  
     474A      5.263178   475A      5.291395   476A      5.300678  
     477A      5.305821   478A      5.307103   479A      5.315499  
     480A      5.321023   481A      5.369154   482A      5.377479  
     483A      5.406938   484A      5.411159   485A      5.419143  
     486A      5.425517   487A      5.436203   488A      5.449156  
     489A      5.505236   490A      5.509403   491A      5.579534  
     492A      5.588066   493A      5.603613   494A      5.616585  
     495A      5.664601   496A      5.674159   497A      5.709348  
     498A      5.726843   499A      5.752804   500A      5.758477  
     501A      5.763919   502A      5.771960   503A      5.785574  
     504A      5.792415   505A      5.824356   506A      5.832949  
     507A      5.905734   508A      5.911449   509A      5.922596  
     510A      5.926918   511A      5.946023   512A      5.959491  
     513A      6.016283   514A      6.025162   515A      6.167788  
     516A      6.182643   517A      6.402013   518A      6.404720  
     519A      6.482109   520A      6.488469   521A      6.501414  
     522A      6.506544   523A      6.512332   524A      6.534165  
     525A      6.584965   526A      6.609783   527A      6.712287  
     528A      6.716701   529A     12.267017   530A     12.390020  
     531A     13.996609   532A     14.027350   533A     14.569152  
     534A     14.634467   535A     15.330903   536A     15.449841  

    Final Occupation by Irrep:
              A 
    DOCC [    32 ]

  @DF-RHF Final Energy:  -312.32596264392481

   => Energetics <=

    Nuclear Repulsion Energy =            354.9725453942701847
    One-Electron Energy =               -1123.5177843176265924
    Two-Electron Energy =                 456.2192762794316536
    Total Energy =                       -312.3259626439248109

Computation Completed


Properties will be evaluated at   0.000000,   0.000000,   0.000000 [a0]

Properties computed using the SCF density matrix

  Nuclear Dipole Moment: [e a0]
     X:    -0.7978      Y:    -0.2817      Z:     0.0746

  Electronic Dipole Moment: [e a0]
     X:     0.7880      Y:     0.2819      Z:    -0.0310

  Dipole Moment: [e a0]
     X:    -0.0098      Y:     0.0002      Z:     0.0436     Total:     0.0447

  Dipole Moment: [D]
     X:    -0.0248      Y:     0.0006      Z:     0.1109     Total:     0.1137


*** tstop() called on r282 at Thu Sep  9 09:35:50 2021
Module time:
	user time   =      77.74 seconds =       1.30 minutes
	system time =       1.63 seconds =       0.03 minutes
	total time  =         80 seconds =       1.33 minutes
Total time:
	user time   =      77.74 seconds =       1.30 minutes
	system time =       1.63 seconds =       0.03 minutes
	total time  =         80 seconds =       1.33 minutes

  //>>>>>>>>>>>>>>>>>>>>>>>>>>>>>>>>>>>//
  //            Monomer A HF           //
  //<<<<<<<<<<<<<<<<<<<<<<<<<<<<<<<<<<<//


*** tstart() called on r282
*** at Thu Sep  9 09:35:50 2021

   => Loading Basis Set <=

    Name: JUN-CC-PVTZ
    Role: ORBITAL
    Keyword: BASIS
    atoms 1-4, 13-16  entry C          line   217 file /home/r08543048/miniconda3/share/psi4/basis/jun-cc-pvtz.gbs 
    atoms 5-12, 17-24 entry H          line    36 file /home/r08543048/miniconda3/share/psi4/basis/jun-cc-pvtz.gbs 


         ---------------------------------------------------------
                                   SCF
               by Justin Turney, Rob Parrish, Andy Simmonett
                          and Daniel G. A. Smith
                              RHF Reference
                        1 Threads,  20980 MiB Core
         ---------------------------------------------------------

  ==> Geometry <==

    Molecular point group: c1
    Full point group: C1

    Geometry (in Angstrom), charge = 0, multiplicity = 1:

       Center              X                  Y                   Z               Mass       
    ------------   -----------------  -----------------  -----------------  -----------------
         C            1.155876828808     1.985657735300    -0.123785882642    12.000000000000
         C            2.183741828808     1.162285735300     0.102848117358    12.000000000000
         C            2.352201828808    -0.181895264700    -0.531345882642    12.000000000000
         C            2.471169828808    -1.292090264700     0.513277117358    12.000000000000
         H            1.083797828808     2.945719735300     0.368696117358     1.007825032230
         H            0.367839828808     1.713316735300    -0.814740882642     1.007825032230
         H            2.955923828808     1.466537735300     0.804681117358     1.007825032230
         H            1.508163828808    -0.375629264700    -1.196306882642     1.007825032230
         H            3.254955828808    -0.178997264700    -1.148487882642     1.007825032230
         H            3.316450828808    -1.107907264700     1.177278117358     1.007825032230
         H            1.571495828808    -1.347013264700     1.126142117358     1.007825032230
         H            2.621972828808    -2.262717264700     0.040900117358     1.007825032230
      Gh(C)          -1.154268171192    -1.903169264700    -0.483572882642    12.000000000000
      Gh(C)          -1.412509171192    -0.817151264700     0.250758117358    12.000000000000
      Gh(C)          -2.761015171192    -0.184774264700     0.388296117358    12.000000000000
      Gh(C)          -2.763729171192     1.256373735300    -0.123159882642    12.000000000000
      Gh(H)          -0.155274171192    -2.311151264700    -0.555331882642     1.007825032230
      Gh(H)          -1.943444171192    -2.410201264700    -1.025189882642     1.007825032230
      Gh(H)          -0.595590171192    -0.327976264700     0.774870117358     1.007825032230
      Gh(H)          -3.498791171192    -0.779269264700    -0.154213882642     1.007825032230
      Gh(H)          -3.056411171192    -0.188432264700     1.440897117358     1.007825032230
      Gh(H)          -2.032025171192     1.858188735300     0.416675117358     1.007825032230
      Gh(H)          -2.507701171192     1.287093735300    -1.182244882642     1.007825032230
      Gh(H)          -3.742328171192     1.717946735300     0.005974117358     1.007825032230

  Running in c1 symmetry.

  Rotational constants: A =      0.07598  B =      0.03035  C =      0.02318 [cm^-1]
  Rotational constants: A =   2277.68946  B =    909.91909  C =    694.82601 [MHz]
  Nuclear repulsion =  117.403847721651971

  Charge       = 0
  Multiplicity = 1
  Electrons    = 32
  Nalpha       = 16
  Nbeta        = 16

  ==> Algorithm <==

  SCF Algorithm Type is DF.
  DIIS enabled.
  MOM disabled.
  Fractional occupation disabled.
  Guess Type is SAD.
  Energy threshold   = 1.00e-08
  Density threshold  = 1.00e-08
  Integral threshold = 0.00e+00

  ==> Primary Basis <==

  Basis Set: JUN-CC-PVTZ
    Blend: JUN-CC-PVTZ
    Number of shells: 200
    Number of basis function: 536
    Number of Cartesian functions: 600
    Spherical Harmonics?: true
    Max angular momentum: 3

   => Loading Basis Set <=

    Name: (JUN-CC-PVTZ AUX)
    Role: JKFIT
    Keyword: DF_BASIS_SCF
    atoms 1-4, 13-16  entry C          line   152 file /home/r08543048/miniconda3/share/psi4/basis/jun-cc-pvtz-jkfit.gbs 
    atoms 5-12, 17-24 entry H          line    70 file /home/r08543048/miniconda3/share/psi4/basis/jun-cc-pvtz-jkfit.gbs 

  ==> Pre-Iterations <==

   -------------------------------------------------------
    Irrep   Nso     Nmo     Nalpha   Nbeta   Ndocc  Nsocc
   -------------------------------------------------------
     A        536     536       0       0       0       0
   -------------------------------------------------------
    Total     536     536      16      16      16       0
   -------------------------------------------------------

  ==> Integral Setup <==

  ==> DiskDFJK: Density-Fitted J/K Matrices <==

    J tasked:                  Yes
    K tasked:                  Yes
    wK tasked:                  No
    OpenMP threads:              1
    Integrals threads:           1
    Memory [MiB]:            15735
    Algorithm:                Core
    Integral Cache:           LOAD
    Schwarz Cutoff:          1E-12
    Fitting Condition:       1E-10

   => Auxiliary Basis Set <=

  Basis Set: (JUN-CC-PVTZ AUX)
    Blend: JUN-CC-PVTZ-JKFIT
    Number of shells: 392
    Number of basis function: 1240
    Number of Cartesian functions: 1488
    Spherical Harmonics?: true
    Max angular momentum: 4

  Minimum eigenvalue in the overlap matrix is 2.8787488779E-05.
  Using Symmetric Orthogonalization.

  SCF Guess: Superposition of Atomic Densities via on-the-fly atomic UHF.

  ==> Iterations <==

                           Total Energy        Delta E     RMS |[F,P]|

   @DF-RHF iter SAD:  -155.38305778636706   -1.55383e+02   0.00000e+00 
   @DF-RHF iter   1:  -155.99463495736404   -6.11577e-01   9.75419e-04 DIIS
   @DF-RHF iter   2:  -156.13461058475863   -1.39976e-01   4.30936e-04 DIIS
   @DF-RHF iter   3:  -156.16243185499562   -2.78213e-02   8.31602e-05 DIIS
   @DF-RHF iter   4:  -156.16426880739655   -1.83695e-03   3.07895e-05 DIIS
   @DF-RHF iter   5:  -156.16443570368895   -1.66896e-04   5.75836e-06 DIIS
   @DF-RHF iter   6:  -156.16444452114303   -8.81745e-06   1.03813e-06 DIIS
   @DF-RHF iter   7:  -156.16444486955442   -3.48411e-07   2.90680e-07 DIIS
   @DF-RHF iter   8:  -156.16444489681811   -2.72637e-08   8.72073e-08 DIIS
   @DF-RHF iter   9:  -156.16444489967893   -2.86082e-09   3.79343e-08 DIIS
   @DF-RHF iter  10:  -156.16444490026015   -5.81224e-10   1.18674e-08 DIIS
   @DF-RHF iter  11:  -156.16444490032120   -6.10498e-11   2.93120e-09 DIIS
  Energy and wave function converged.


  ==> Post-Iterations <==

    Orbital Energies [Eh]
    ---------------------

    Doubly Occupied:                                                      

       1A    -11.231336     2A    -11.224932     3A    -11.217563  
       4A    -11.214667     5A     -1.080966     6A     -0.988336  
       7A     -0.855799     8A     -0.755997     9A     -0.642690  
      10A     -0.606534    11A     -0.586680    12A     -0.534508  
      13A     -0.517383    14A     -0.487457    15A     -0.477026  
      16A     -0.357203  

    Virtual:                                                              

      17A      0.033062    18A      0.044417    19A      0.053420  
      20A      0.054938    21A      0.066195    22A      0.068350  
      23A      0.073025    24A      0.078956    25A      0.084901  
      26A      0.093832    27A      0.099086    28A      0.106554  
      29A      0.111010    30A      0.117138    31A      0.122381  
      32A      0.124353    33A      0.131359    34A      0.133741  
      35A      0.138252    36A      0.144733    37A      0.148853  
      38A      0.156092    39A      0.160766    40A      0.163689  
      41A      0.169374    42A      0.176302    43A      0.177341  
      44A      0.191523    45A      0.199288    46A      0.202156  
      47A      0.213604    48A      0.221823    49A      0.226856  
      50A      0.235872    51A      0.248151    52A      0.261685  
      53A      0.269915    54A      0.279425    55A      0.283264  
      56A      0.295050    57A      0.298067    58A      0.306934  
      59A      0.308320    60A      0.314495    61A      0.321543  
      62A      0.327594    63A      0.332075    64A      0.336587  
      65A      0.340758    66A      0.349452    67A      0.354851  
      68A      0.362603    69A      0.364552    70A      0.369398  
      71A      0.371815    72A      0.383409    73A      0.392128  
      74A      0.395965    75A      0.397160    76A      0.399538  
      77A      0.403887    78A      0.410838    79A      0.420120  
      80A      0.422138    81A      0.435099    82A      0.445281  
      83A      0.449572    84A      0.452463    85A      0.459949  
      86A      0.469476    87A      0.478417    88A      0.481906  
      89A      0.494988    90A      0.496844    91A      0.505768  
      92A      0.515345    93A      0.522243    94A      0.526641  
      95A      0.529422    96A      0.537903    97A      0.541755  
      98A      0.546597    99A      0.551164   100A      0.560080  
     101A      0.564064   102A      0.570945   103A      0.577217  
     104A      0.589386   105A      0.592768   106A      0.608990  
     107A      0.612453   108A      0.625042   109A      0.632406  
     110A      0.639540   111A      0.652580   112A      0.657907  
     113A      0.668996   114A      0.674652   115A      0.690974  
     116A      0.694880   117A      0.703855   118A      0.707956  
     119A      0.721458   120A      0.738727   121A      0.741955  
     122A      0.751299   123A      0.758989   124A      0.767761  
     125A      0.777067   126A      0.785378   127A      0.791754  
     128A      0.799382   129A      0.811042   130A      0.823943  
     131A      0.830711   132A      0.832522   133A      0.848458  
     134A      0.856015   135A      0.863869   136A      0.878647  
     137A      0.882611   138A      0.893259   139A      0.909886  
     140A      0.921440   141A      0.947626   142A      0.958460  
     143A      0.971189   144A      0.981092   145A      1.016640  
     146A      1.019817   147A      1.039711   148A      1.050004  
     149A      1.065865   150A      1.076391   151A      1.083344  
     152A      1.089233   153A      1.099236   154A      1.126590  
     155A      1.131199   156A      1.150607   157A      1.151972  
     158A      1.157524   159A      1.160512   160A      1.185080  
     161A      1.202766   162A      1.208094   163A      1.219332  
     164A      1.225352   165A      1.229352   166A      1.230858  
     167A      1.246710   168A      1.250204   169A      1.265240  
     170A      1.276655   171A      1.285747   172A      1.295658  
     173A      1.299468   174A      1.305905   175A      1.307578  
     176A      1.315500   177A      1.329345   178A      1.345063  
     179A      1.350776   180A      1.366829   181A      1.372708  
     182A      1.377738   183A      1.382781   184A      1.387023  
     185A      1.398957   186A      1.409838   187A      1.417605  
     188A      1.425225   189A      1.430367   190A      1.439366  
     191A      1.450976   192A      1.461574   193A      1.470549  
     194A      1.476975   195A      1.485217   196A      1.499512  
     197A      1.515840   198A      1.527618   199A      1.534708  
     200A      1.539080   201A      1.547548   202A      1.558143  
     203A      1.561241   204A      1.580272   205A      1.583237  
     206A      1.593314   207A      1.605296   208A      1.610188  
     209A      1.615300   210A      1.625967   211A      1.630071  
     212A      1.643643   213A      1.652004   214A      1.672251  
     215A      1.677136   216A      1.692323   217A      1.700469  
     218A      1.711221   219A      1.717296   220A      1.726129  
     221A      1.741679   222A      1.758839   223A      1.760261  
     224A      1.785442   225A      1.798145   226A      1.803273  
     227A      1.815822   228A      1.827901   229A      1.836938  
     230A      1.865887   231A      1.877547   232A      1.879860  
     233A      1.910242   234A      1.916585   235A      1.957322  
     236A      1.962880   237A      1.979736   238A      1.989082  
     239A      2.014346   240A      2.033559   241A      2.076996  
     242A      2.107283   243A      2.123478   244A      2.140382  
     245A      2.145489   246A      2.163129   247A      2.216387  
     248A      2.238228   249A      2.258525   250A      2.276854  
     251A      2.364600   252A      2.397477   253A      2.426244  
     254A      2.446976   255A      2.522717   256A      2.531200  
     257A      2.557544   258A      2.604026   259A      2.674856  
     260A      2.727255   261A      2.744377   262A      2.783477  
     263A      2.814218   264A      2.835701   265A      2.863836  
     266A      2.870498   267A      2.892800   268A      2.908709  
     269A      2.924710   270A      2.952955   271A      2.966870  
     272A      2.981557   273A      2.998454   274A      3.011227  
     275A      3.050699   276A      3.079569   277A      3.094816  
     278A      3.123957   279A      3.133431   280A      3.161984  
     281A      3.168372   282A      3.194789   283A      3.224404  
     284A      3.236162   285A      3.263635   286A      3.278982  
     287A      3.301702   288A      3.317987   289A      3.333365  
     290A      3.354066   291A      3.375944   292A      3.389885  
     293A      3.400280   294A      3.415244   295A      3.426936  
     296A      3.441309   297A      3.467459   298A      3.481272  
     299A      3.492085   300A      3.501253   301A      3.504997  
     302A      3.513514   303A      3.525879   304A      3.539857  
     305A      3.548584   306A      3.553349   307A      3.572651  
     308A      3.578299   309A      3.583736   310A      3.589719  
     311A      3.599336   312A      3.623634   313A      3.631935  
     314A      3.636871   315A      3.652283   316A      3.675749  
     317A      3.677698   318A      3.699165   319A      3.705969  
     320A      3.712400   321A      3.723005   322A      3.738110  
     323A      3.742658   324A      3.760580   325A      3.773748  
     326A      3.790681   327A      3.795251   328A      3.811424  
     329A      3.818181   330A      3.823520   331A      3.830734  
     332A      3.842739   333A      3.858387   334A      3.863096  
     335A      3.871486   336A      3.889371   337A      3.896554  
     338A      3.898241   339A      3.935307   340A      3.940751  
     341A      3.947618   342A      3.982224   343A      3.991559  
     344A      4.001835   345A      4.019499   346A      4.027149  
     347A      4.043337   348A      4.059099   349A      4.082303  
     350A      4.089340   351A      4.095050   352A      4.112071  
     353A      4.117811   354A      4.127736   355A      4.147673  
     356A      4.156621   357A      4.172607   358A      4.186011  
     359A      4.195743   360A      4.208413   361A      4.226727  
     362A      4.233789   363A      4.247966   364A      4.264853  
     365A      4.274193   366A      4.278053   367A      4.283082  
     368A      4.318961   369A      4.327091   370A      4.338432  
     371A      4.348063   372A      4.362100   373A      4.367532  
     374A      4.373999   375A      4.389475   376A      4.396790  
     377A      4.411586   378A      4.424378   379A      4.430559  
     380A      4.438016   381A      4.460378   382A      4.464934  
     383A      4.471341   384A      4.474722   385A      4.489065  
     386A      4.499301   387A      4.504833   388A      4.511986  
     389A      4.518302   390A      4.522808   391A      4.538177  
     392A      4.553862   393A      4.561124   394A      4.588445  
     395A      4.598164   396A      4.610225   397A      4.625546  
     398A      4.629474   399A      4.637025   400A      4.641269  
     401A      4.659189   402A      4.680749   403A      4.684536  
     404A      4.701973   405A      4.707005   406A      4.720985  
     407A      4.734690   408A      4.762115   409A      4.769397  
     410A      4.774868   411A      4.780502   412A      4.791634  
     413A      4.795159   414A      4.808499   415A      4.819087  
     416A      4.823083   417A      4.833855   418A      4.850669  
     419A      4.859862   420A      4.861870   421A      4.871605  
     422A      4.882257   423A      4.904441   424A      4.910201  
     425A      4.926196   426A      4.934698   427A      4.945698  
     428A      4.949395   429A      4.964158   430A      4.974685  
     431A      4.988248   432A      5.006217   433A      5.009348  
     434A      5.035085   435A      5.040123   436A      5.067716  
     437A      5.076729   438A      5.083105   439A      5.111978  
     440A      5.115269   441A      5.172817   442A      5.183281  
     443A      5.192598   444A      5.210182   445A      5.229215  
     446A      5.239021   447A      5.248139   448A      5.259204  
     449A      5.270749   450A      5.295726   451A      5.301329  
     452A      5.315864   453A      5.323801   454A      5.346833  
     455A      5.380246   456A      5.385540   457A      5.418415  
     458A      5.420160   459A      5.439056   460A      5.445969  
     461A      5.477212   462A      5.494457   463A      5.511996  
     464A      5.576457   465A      5.586887   466A      5.603996  
     467A      5.615738   468A      5.659466   469A      5.670180  
     470A      5.712226   471A      5.727511   472A      5.731986  
     473A      5.756528   474A      5.773545   475A      5.791584  
     476A      5.823846   477A      5.831745   478A      5.838350  
     479A      5.894698   480A      5.909782   481A      5.926740  
     482A      5.955230   483A      5.978987   484A      6.023436  
     485A      6.040601   486A      6.059715   487A      6.072976  
     488A      6.160289   489A      6.175123   490A      6.183466  
     491A      6.257564   492A      6.330458   493A      6.337891  
     494A      6.362041   495A      6.395730   496A      6.411339  
     497A      6.462156   498A      6.488424   499A      6.496956  
     500A      6.503156   501A      6.535705   502A      6.601360  
     503A      6.668793   504A      6.709620   505A      6.733217  
     506A      6.791471   507A      6.864957   508A      6.947422  
     509A      7.104451   510A      7.354146   511A      7.413507  
     512A      7.484925   513A      7.568863   514A      7.610407  
     515A      7.679854   516A      7.714373   517A      7.840546  
     518A      7.894405   519A      7.967965   520A      7.989570  
     521A      8.127174   522A      8.278510   523A      8.430347  
     524A      8.791051   525A      9.426288   526A      9.673779  
     527A      9.901218   528A     10.243859   529A     12.275129  
     530A     14.033105   531A     14.648012   532A     15.330008  
     533A     41.148847   534A     44.704146   535A     45.649557  
     536A     47.341154  

    Final Occupation by Irrep:
              A 
    DOCC [    16 ]

  @DF-RHF Final Energy:  -156.16444490032120

   => Energetics <=

    Nuclear Repulsion Energy =            117.4038477216519709
    One-Electron Energy =                -441.5784291116029294
    Two-Electron Energy =                 168.0101364896297582
    Total Energy =                       -156.1644449003212003

Computation Completed


Properties will be evaluated at   0.000000,   0.000000,   0.000000 [a0]

Properties computed using the SCF density matrix

  Nuclear Dipole Moment: [e a0]
     X:   124.0767      Y:    20.5925      Z:     0.2346

  Electronic Dipole Moment: [e a0]
     X:  -123.9883      Y:   -20.7392      Z:    -0.2541

  Dipole Moment: [e a0]
     X:     0.0884      Y:    -0.1467      Z:    -0.0196     Total:     0.1724

  Dipole Moment: [D]
     X:     0.2246      Y:    -0.3729      Z:    -0.0497     Total:     0.4381


*** tstop() called on r282 at Thu Sep  9 09:36:38 2021
Module time:
	user time   =      47.50 seconds =       0.79 minutes
	system time =       0.77 seconds =       0.01 minutes
	total time  =         48 seconds =       0.80 minutes
Total time:
	user time   =     125.24 seconds =       2.09 minutes
	system time =       2.40 seconds =       0.04 minutes
	total time  =        128 seconds =       2.13 minutes

  //>>>>>>>>>>>>>>>>>>>>>>>>>>>>>>>>>>>//
  //            Monomer B HF           //
  //<<<<<<<<<<<<<<<<<<<<<<<<<<<<<<<<<<<//


*** tstart() called on r282
*** at Thu Sep  9 09:36:38 2021

   => Loading Basis Set <=

    Name: JUN-CC-PVTZ
    Role: ORBITAL
    Keyword: BASIS
    atoms 1-4, 13-16  entry C          line   217 file /home/r08543048/miniconda3/share/psi4/basis/jun-cc-pvtz.gbs 
    atoms 5-12, 17-24 entry H          line    36 file /home/r08543048/miniconda3/share/psi4/basis/jun-cc-pvtz.gbs 


         ---------------------------------------------------------
                                   SCF
               by Justin Turney, Rob Parrish, Andy Simmonett
                          and Daniel G. A. Smith
                              RHF Reference
                        1 Threads,  20980 MiB Core
         ---------------------------------------------------------

  ==> Geometry <==

    Molecular point group: c1
    Full point group: C1

    Geometry (in Angstrom), charge = 0, multiplicity = 1:

       Center              X                  Y                   Z               Mass       
    ------------   -----------------  -----------------  -----------------  -----------------
      Gh(C)           1.155876828808     1.985657735300    -0.123785882642    12.000000000000
      Gh(C)           2.183741828808     1.162285735300     0.102848117358    12.000000000000
      Gh(C)           2.352201828808    -0.181895264700    -0.531345882642    12.000000000000
      Gh(C)           2.471169828808    -1.292090264700     0.513277117358    12.000000000000
      Gh(H)           1.083797828808     2.945719735300     0.368696117358     1.007825032230
      Gh(H)           0.367839828808     1.713316735300    -0.814740882642     1.007825032230
      Gh(H)           2.955923828808     1.466537735300     0.804681117358     1.007825032230
      Gh(H)           1.508163828808    -0.375629264700    -1.196306882642     1.007825032230
      Gh(H)           3.254955828808    -0.178997264700    -1.148487882642     1.007825032230
      Gh(H)           3.316450828808    -1.107907264700     1.177278117358     1.007825032230
      Gh(H)           1.571495828808    -1.347013264700     1.126142117358     1.007825032230
      Gh(H)           2.621972828808    -2.262717264700     0.040900117358     1.007825032230
         C           -1.154268171192    -1.903169264700    -0.483572882642    12.000000000000
         C           -1.412509171192    -0.817151264700     0.250758117358    12.000000000000
         C           -2.761015171192    -0.184774264700     0.388296117358    12.000000000000
         C           -2.763729171192     1.256373735300    -0.123159882642    12.000000000000
         H           -0.155274171192    -2.311151264700    -0.555331882642     1.007825032230
         H           -1.943444171192    -2.410201264700    -1.025189882642     1.007825032230
         H           -0.595590171192    -0.327976264700     0.774870117358     1.007825032230
         H           -3.498791171192    -0.779269264700    -0.154213882642     1.007825032230
         H           -3.056411171192    -0.188432264700     1.440897117358     1.007825032230
         H           -2.032025171192     1.858188735300     0.416675117358     1.007825032230
         H           -2.507701171192     1.287093735300    -1.182244882642     1.007825032230
         H           -3.742328171192     1.717946735300     0.005974117358     1.007825032230

  Running in c1 symmetry.

  Rotational constants: A =      0.07598  B =      0.03035  C =      0.02318 [cm^-1]
  Rotational constants: A =   2277.68946  B =    909.91909  C =    694.82601 [MHz]
  Nuclear repulsion =  117.473661295234180

  Charge       = 0
  Multiplicity = 1
  Electrons    = 32
  Nalpha       = 16
  Nbeta        = 16

  ==> Algorithm <==

  SCF Algorithm Type is DF.
  DIIS enabled.
  MOM disabled.
  Fractional occupation disabled.
  Guess Type is SAD.
  Energy threshold   = 1.00e-08
  Density threshold  = 1.00e-08
  Integral threshold = 0.00e+00

  ==> Primary Basis <==

  Basis Set: JUN-CC-PVTZ
    Blend: JUN-CC-PVTZ
    Number of shells: 200
    Number of basis function: 536
    Number of Cartesian functions: 600
    Spherical Harmonics?: true
    Max angular momentum: 3

   => Loading Basis Set <=

    Name: (JUN-CC-PVTZ AUX)
    Role: JKFIT
    Keyword: DF_BASIS_SCF
    atoms 1-4, 13-16  entry C          line   152 file /home/r08543048/miniconda3/share/psi4/basis/jun-cc-pvtz-jkfit.gbs 
    atoms 5-12, 17-24 entry H          line    70 file /home/r08543048/miniconda3/share/psi4/basis/jun-cc-pvtz-jkfit.gbs 

  ==> Pre-Iterations <==

   -------------------------------------------------------
    Irrep   Nso     Nmo     Nalpha   Nbeta   Ndocc  Nsocc
   -------------------------------------------------------
     A        536     536       0       0       0       0
   -------------------------------------------------------
    Total     536     536      16      16      16       0
   -------------------------------------------------------

  ==> Integral Setup <==

  ==> DiskDFJK: Density-Fitted J/K Matrices <==

    J tasked:                  Yes
    K tasked:                  Yes
    wK tasked:                  No
    OpenMP threads:              1
    Integrals threads:           1
    Memory [MiB]:            15735
    Algorithm:                Core
    Integral Cache:           LOAD
    Schwarz Cutoff:          1E-12
    Fitting Condition:       1E-10

   => Auxiliary Basis Set <=

  Basis Set: (JUN-CC-PVTZ AUX)
    Blend: JUN-CC-PVTZ-JKFIT
    Number of shells: 392
    Number of basis function: 1240
    Number of Cartesian functions: 1488
    Spherical Harmonics?: true
    Max angular momentum: 4

  Minimum eigenvalue in the overlap matrix is 2.8787488779E-05.
  Using Symmetric Orthogonalization.

  SCF Guess: Superposition of Atomic Densities via on-the-fly atomic UHF.

  ==> Iterations <==

                           Total Energy        Delta E     RMS |[F,P]|

   @DF-RHF iter SAD:  -155.38364207179160   -1.55384e+02   0.00000e+00 
   @DF-RHF iter   1:  -155.99467598233403   -6.11034e-01   9.75636e-04 DIIS
   @DF-RHF iter   2:  -156.13448455650339   -1.39809e-01   4.32037e-04 DIIS
   @DF-RHF iter   3:  -156.16243862012470   -2.79541e-02   8.32355e-05 DIIS
   @DF-RHF iter   4:  -156.16427701062509   -1.83839e-03   3.06959e-05 DIIS
   @DF-RHF iter   5:  -156.16444294840639   -1.65938e-04   5.76978e-06 DIIS
   @DF-RHF iter   6:  -156.16445175710044   -8.80869e-06   1.05018e-06 DIIS
   @DF-RHF iter   7:  -156.16445210851163   -3.51411e-07   2.84019e-07 DIIS
   @DF-RHF iter   8:  -156.16445213451058   -2.59990e-08   8.40745e-08 DIIS
   @DF-RHF iter   9:  -156.16445213708923   -2.57864e-09   3.61111e-08 DIIS
   @DF-RHF iter  10:  -156.16445213760971   -5.20487e-10   1.15362e-08 DIIS
   @DF-RHF iter  11:  -156.16445213766772   -5.80087e-11   2.89630e-09 DIIS
  Energy and wave function converged.


  ==> Post-Iterations <==

    Orbital Energies [Eh]
    ---------------------

    Doubly Occupied:                                                      

       1A    -11.231363     2A    -11.224754     3A    -11.217653  
       4A    -11.214575     5A     -1.081051     6A     -0.988123  
       7A     -0.855917     8A     -0.755787     9A     -0.643398  
      10A     -0.606728    11A     -0.585336    12A     -0.535495  
      13A     -0.517398    14A     -0.486929    15A     -0.476885  
      16A     -0.357325  

    Virtual:                                                              

      17A      0.032512    18A      0.045051    19A      0.052460  
      20A      0.055725    21A      0.064800    22A      0.067609  
      23A      0.074936    24A      0.080866    25A      0.085235  
      26A      0.096265    27A      0.103624    28A      0.106967  
      29A      0.109944    30A      0.112668    31A      0.117383  
      32A      0.124256    33A      0.129457    34A      0.136439  
      35A      0.138937    36A      0.144325    37A      0.147875  
      38A      0.152677    39A      0.157432    40A      0.170344  
      41A      0.171596    42A      0.178853    43A      0.181950  
      44A      0.186449    45A      0.193155    46A      0.201561  
      47A      0.209367    48A      0.220220    49A      0.228473  
      50A      0.239504    51A      0.259674    52A      0.266809  
      53A      0.269164    54A      0.276594    55A      0.287022  
      56A      0.293390    57A      0.302816    58A      0.304803  
      59A      0.306552    60A      0.315389    61A      0.318632  
      62A      0.323356    63A      0.324583    64A      0.335721  
      65A      0.339168    66A      0.346411    67A      0.350431  
      68A      0.358238    69A      0.360825    70A      0.375120  
      71A      0.377949    72A      0.379214    73A      0.383519  
      74A      0.394643    75A      0.395915    76A      0.403331  
      77A      0.406106    78A      0.412556    79A      0.421196  
      80A      0.430646    81A      0.433414    82A      0.442168  
      83A      0.445031    84A      0.455008    85A      0.460504  
      86A      0.471426    87A      0.476494    88A      0.487445  
      89A      0.493729    90A      0.504307    91A      0.506146  
      92A      0.508772    93A      0.520460    94A      0.523502  
      95A      0.533674    96A      0.539555    97A      0.547410  
      98A      0.553586    99A      0.560399   100A      0.566559  
     101A      0.571185   102A      0.575278   103A      0.587397  
     104A      0.589949   105A      0.592271   106A      0.610972  
     107A      0.614049   108A      0.624463   109A      0.630713  
     110A      0.638962   111A      0.644138   112A      0.655521  
     113A      0.669722   114A      0.678580   115A      0.685158  
     116A      0.690519   117A      0.697266   118A      0.705930  
     119A      0.718177   120A      0.733246   121A      0.740902  
     122A      0.747536   123A      0.755688   124A      0.757297  
     125A      0.773352   126A      0.783534   127A      0.795675  
     128A      0.799634   129A      0.806431   130A      0.812485  
     131A      0.824486   132A      0.839101   133A      0.846563  
     134A      0.851624   135A      0.859290   136A      0.872367  
     137A      0.885326   138A      0.892723   139A      0.915835  
     140A      0.919172   141A      0.935509   142A      0.952687  
     143A      0.964403   144A      0.983062   145A      1.002459  
     146A      1.028049   147A      1.045542   148A      1.055090  
     149A      1.069647   150A      1.072461   151A      1.097807  
     152A      1.108659   153A      1.117086   154A      1.128906  
     155A      1.134603   156A      1.146540   157A      1.157014  
     158A      1.161147   159A      1.166070   160A      1.180309  
     161A      1.196470   162A      1.206318   163A      1.220048  
     164A      1.223998   165A      1.230351   166A      1.234686  
     167A      1.247293   168A      1.257733   169A      1.267163  
     170A      1.278196   171A      1.283480   172A      1.298047  
     173A      1.305780   174A      1.314122   175A      1.325765  
     176A      1.329521   177A      1.333734   178A      1.343882  
     179A      1.351702   180A      1.353730   181A      1.363169  
     182A      1.368836   183A      1.373660   184A      1.386960  
     185A      1.390035   186A      1.399808   187A      1.414003  
     188A      1.425507   189A      1.430804   190A      1.441849  
     191A      1.443985   192A      1.464776   193A      1.470021  
     194A      1.485244   195A      1.495705   196A      1.501172  
     197A      1.516970   198A      1.522044   199A      1.531904  
     200A      1.541440   201A      1.543024   202A      1.552324  
     203A      1.558728   204A      1.567722   205A      1.575182  
     206A      1.591097   207A      1.596768   208A      1.599903  
     209A      1.610760   210A      1.615022   211A      1.630002  
     212A      1.638734   213A      1.656025   214A      1.659925  
     215A      1.678153   216A      1.686097   217A      1.697732  
     218A      1.708942   219A      1.712177   220A      1.720174  
     221A      1.733796   222A      1.747544   223A      1.756531  
     224A      1.763084   225A      1.800569   226A      1.816247  
     227A      1.829387   228A      1.834289   229A      1.841518  
     230A      1.852767   231A      1.892974   232A      1.911817  
     233A      1.919213   234A      1.931328   235A      1.954719  
     236A      1.967888   237A      1.987938   238A      1.993368  
     239A      1.998956   240A      2.013570   241A      2.084144  
     242A      2.094303   243A      2.120667   244A      2.142154  
     245A      2.154530   246A      2.174267   247A      2.226392  
     248A      2.241697   249A      2.268729   250A      2.304762  
     251A      2.379274   252A      2.391506   253A      2.423457  
     254A      2.452741   255A      2.525393   256A      2.534475  
     257A      2.573879   258A      2.606194   259A      2.658900  
     260A      2.722421   261A      2.775035   262A      2.784215  
     263A      2.797256   264A      2.839230   265A      2.857511  
     266A      2.863009   267A      2.890069   268A      2.902171  
     269A      2.913611   270A      2.930309   271A      2.955809  
     272A      2.987172   273A      2.996758   274A      3.017797  
     275A      3.062591   276A      3.089183   277A      3.099976  
     278A      3.117937   279A      3.127789   280A      3.153619  
     281A      3.172174   282A      3.194528   283A      3.204019  
     284A      3.220800   285A      3.249590   286A      3.284391  
     287A      3.304071   288A      3.317459   289A      3.343690  
     290A      3.353839   291A      3.378299   292A      3.383815  
     293A      3.414698   294A      3.429269   295A      3.432311  
     296A      3.442583   297A      3.454802   298A      3.459076  
     299A      3.475683   300A      3.499683   301A      3.503435  
     302A      3.518914   303A      3.525205   304A      3.531981  
     305A      3.541903   306A      3.555298   307A      3.558498  
     308A      3.578384   309A      3.588370   310A      3.596847  
     311A      3.617907   312A      3.619809   313A      3.626709  
     314A      3.643069   315A      3.649965   316A      3.663297  
     317A      3.666543   318A      3.692950   319A      3.693737  
     320A      3.712893   321A      3.722350   322A      3.729658  
     323A      3.741971   324A      3.756189   325A      3.766862  
     326A      3.794193   327A      3.801167   328A      3.804712  
     329A      3.821837   330A      3.834434   331A      3.837016  
     332A      3.849196   333A      3.853726   334A      3.859279  
     335A      3.867500   336A      3.885750   337A      3.895782  
     338A      3.911131   339A      3.916683   340A      3.943372  
     341A      3.954375   342A      3.973213   343A      3.994647  
     344A      4.004476   345A      4.019796   346A      4.033715  
     347A      4.046642   348A      4.050563   349A      4.064054  
     350A      4.075859   351A      4.101972   352A      4.111664  
     353A      4.114468   354A      4.132202   355A      4.139373  
     356A      4.171638   357A      4.180577   358A      4.183751  
     359A      4.194586   360A      4.208106   361A      4.222903  
     362A      4.233868   363A      4.238131   364A      4.243528  
     365A      4.267293   366A      4.279421   367A      4.292994  
     368A      4.319334   369A      4.327596   370A      4.338586  
     371A      4.347600   372A      4.347782   373A      4.367589  
     374A      4.372273   375A      4.386128   376A      4.393371  
     377A      4.407662   378A      4.427148   379A      4.436185  
     380A      4.450247   381A      4.452691   382A      4.461624  
     383A      4.462884   384A      4.472096   385A      4.485012  
     386A      4.495101   387A      4.506567   388A      4.513126  
     389A      4.524399   390A      4.536444   391A      4.550436  
     392A      4.565013   393A      4.578798   394A      4.590038  
     395A      4.602906   396A      4.607082   397A      4.619928  
     398A      4.631823   399A      4.637924   400A      4.646275  
     401A      4.666209   402A      4.677070   403A      4.683947  
     404A      4.691906   405A      4.705371   406A      4.726476  
     407A      4.735330   408A      4.744789   409A      4.759197  
     410A      4.770713   411A      4.777138   412A      4.796916  
     413A      4.808941   414A      4.811064   415A      4.818732  
     416A      4.823198   417A      4.839584   418A      4.848443  
     419A      4.854423   420A      4.869950   421A      4.885689  
     422A      4.889399   423A      4.905788   424A      4.912675  
     425A      4.940855   426A      4.945161   427A      4.950403  
     428A      4.954842   429A      4.962139   430A      4.966564  
     431A      4.997217   432A      4.999881   433A      5.010036  
     434A      5.019901   435A      5.038836   436A      5.050462  
     437A      5.092314   438A      5.095964   439A      5.101095  
     440A      5.117077   441A      5.158664   442A      5.182907  
     443A      5.195909   444A      5.206639   445A      5.231452  
     446A      5.244288   447A      5.250216   448A      5.264192  
     449A      5.272353   450A      5.296052   451A      5.305366  
     452A      5.307379   453A      5.314078   454A      5.362437  
     455A      5.373544   456A      5.389085   457A      5.407908  
     458A      5.428217   459A      5.439790   460A      5.446303  
     461A      5.469750   462A      5.497238   463A      5.507488  
     464A      5.570386   465A      5.586086   466A      5.595344  
     467A      5.616635   468A      5.667930   469A      5.671685  
     470A      5.710718   471A      5.717644   472A      5.737261  
     473A      5.751133   474A      5.760642   475A      5.784712  
     476A      5.824133   477A      5.827132   478A      5.836148  
     479A      5.896057   480A      5.907968   481A      5.925530  
     482A      5.951460   483A      5.973285   484A      6.016042  
     485A      6.032290   486A      6.071363   487A      6.072278  
     488A      6.157680   489A      6.167562   490A      6.190662  
     491A      6.253386   492A      6.334939   493A      6.362728  
     494A      6.372382   495A      6.398854   496A      6.422906  
     497A      6.468410   498A      6.489414   499A      6.493404  
     500A      6.496735   501A      6.514804   502A      6.586359  
     503A      6.662467   504A      6.715387   505A      6.739979  
     506A      6.796840   507A      6.868168   508A      6.954380  
     509A      7.107319   510A      7.361030   511A      7.408582  
     512A      7.495269   513A      7.583856   514A      7.599737  
     515A      7.694141   516A      7.716286   517A      7.839947  
     518A      7.882806   519A      7.975252   520A      7.985706  
     521A      8.137959   522A      8.271083   523A      8.433711  
     524A      8.798417   525A      9.422111   526A      9.671489  
     527A      9.929964   528A     10.221559   529A     12.390829  
     530A     14.000349   531A     14.562917   532A     15.427057  
     533A     40.870411   534A     44.795453   535A     45.793580  
     536A     47.127482  

    Final Occupation by Irrep:
              A 
    DOCC [    16 ]

  @DF-RHF Final Energy:  -156.16445213766772

   => Energetics <=

    Nuclear Repulsion Energy =            117.4736612952341801
    One-Electron Energy =                -441.7187949372403182
    Two-Electron Energy =                 168.0806815043384006
    Total Energy =                       -156.1644521376677233

Computation Completed


Properties will be evaluated at   0.000000,   0.000000,   0.000000 [a0]

Properties computed using the SCF density matrix

  Nuclear Dipole Moment: [e a0]
     X:  -124.8744      Y:   -20.8742      Z:    -0.1599

  Electronic Dipole Moment: [e a0]
     X:   124.7732      Y:    21.0002      Z:     0.2182

  Dipole Moment: [e a0]
     X:    -0.1012      Y:     0.1260      Z:     0.0582     Total:     0.1718

  Dipole Moment: [D]
     X:    -0.2573      Y:     0.3204      Z:     0.1480     Total:     0.4367


*** tstop() called on r282 at Thu Sep  9 09:37:29 2021
Module time:
	user time   =      50.46 seconds =       0.84 minutes
	system time =       0.75 seconds =       0.01 minutes
	total time  =         51 seconds =       0.85 minutes
Total time:
	user time   =     175.70 seconds =       2.93 minutes
	system time =       3.15 seconds =       0.05 minutes
	total time  =        179 seconds =       2.98 minutes
  Constructing Basis Sets for SAPT...

   => Loading Basis Set <=

    Name: (JUN-CC-PVTZ AUX)
    Role: RIFIT
    Keyword: DF_BASIS_SAPT
    atoms 1-4, 13-16  entry C          line   132 file /home/r08543048/miniconda3/share/psi4/basis/jun-cc-pvtz-ri.gbs 
    atoms 5-12, 17-24 entry H          line    30 file /home/r08543048/miniconda3/share/psi4/basis/jun-cc-pvtz-ri.gbs 


  //>>>>>>>>>>>>>>>>>>>>>>>>>>>>>>>>>>>//
  //               SAPT0               //
  //<<<<<<<<<<<<<<<<<<<<<<<<<<<<<<<<<<<//


*** tstart() called on r282
*** at Thu Sep  9 09:37:30 2021

        SAPT0  
    Ed Hohenstein
     6 June 2009

      Orbital Information
  --------------------------
    NSO        =       536
    NMO        =       536
    NRI        =      1256
    NOCC A     =        16
    NOCC B     =        16
    FOCC A     =         4
    FOCC B     =         4
    NVIR A     =       520
    NVIR B     =       520

    Elst10,r            =    -0.002763316796 [Eh]
    Exch10              =     0.006346188404 [Eh]
    Exch10 (S^2)        =     0.006332159468 [Eh]

    Iter     Energy [mEh]          dE [mEh]         Residual      Time [s]
       1      -0.54508122       0.545081217       3.136605435             2
       2      -0.67651100       0.131429780       0.786549978             3
       3      -0.67811334       0.001602340       0.260339132             4
       4      -0.67552813      -0.002585208       0.072822707             5
       5      -0.67551653      -0.000011601       0.022286708             6
       6      -0.67571389       0.000197365       0.007197942             8
       7      -0.67568945      -0.000024440       0.002957191             9
       8      -0.67567634      -0.000013114       0.000803117            10
       9      -0.67567877       0.000002428       0.000215732            11
      10      -0.67567936       0.000000595       0.000060186            12
      11      -0.67567923      -0.000000137       0.000016494            13
      12      -0.67567919      -0.000000040       0.000003751            15
      13      -0.67567920       0.000000011       0.000000802            16

    CHF Iterations converged


    Iter     Energy [mEh]          dE [mEh]         Residual      Time [s]
       1      -0.53139463       0.531394627       3.037205220             1
       2      -0.64379480       0.112400175       1.042871511             2
       3      -0.65218465       0.008389844       0.285707322             3
       4      -0.64935279      -0.002831852       0.089868569             5
       5      -0.64913230      -0.000220495       0.024707137             6
       6      -0.64936488       0.000232583       0.006093420             7
       7      -0.64932982      -0.000035061       0.002043224             8
       8      -0.64932823      -0.000001593       0.000645952             9
       9      -0.64933077       0.000002543       0.000172679            10
      10      -0.64933085       0.000000079       0.000045328            12
      11      -0.64933070      -0.000000154       0.000011826            13
      12      -0.64933070       0.000000003       0.000003504            14
      13      -0.64933071       0.000000010       0.000000909            15

    CHF Iterations converged

    Ind20,r (A<-B)      =    -0.000675679197 [Eh]
    Ind20,r (B<-A)      =    -0.000649330711 [Eh]
    Ind20,r             =    -0.001325009907 [Eh]
    Exch-Ind20,r (A<-B) =     0.000583221237 [Eh]
    Exch-Ind20,r (B<-A) =     0.000570881950 [Eh]
    Exch-Ind20,r        =     0.001154103187 [Eh]
    Disp20              =    -0.007917870374 [Eh]
    Disp20 (SS)         =    -0.003958935187 [Eh]
    Disp20 (OS)         =    -0.003958935187 [Eh]
    Exch-Disp20         =     0.000734013095 [Eh]
    Exch-Disp20 (SS)    =     0.000485154881 [Eh]
    Exch-Disp20 (OS)    =     0.000248858214 [Eh]

    SAPT Results 
  --------------------------------------------------------------------------------------------------------
    Electrostatics                 -2.76331680 [mEh]      -1.73400747 [kcal/mol]      -7.25508725 [kJ/mol]
      Elst10,r                     -2.76331680 [mEh]      -1.73400747 [kcal/mol]      -7.25508725 [kJ/mol]

    Exchange                        6.34618840 [mEh]       3.98229335 [kcal/mol]      16.66191536 [kJ/mol]
      Exch10                        6.34618840 [mEh]       3.98229335 [kcal/mol]      16.66191536 [kJ/mol]
      Exch10(S^2)                   6.33215947 [mEh]       3.97349006 [kcal/mol]      16.62508239 [kJ/mol]

    Induction                      -0.64847754 [mEh]      -0.40692580 [kcal/mol]      -1.70257756 [kJ/mol]
      Ind20,r                      -1.32500991 [mEh]      -0.83145627 [kcal/mol]      -3.47881303 [kJ/mol]
      Exch-Ind20,r                  1.15410319 [mEh]       0.72421068 [kcal/mol]       3.03009750 [kJ/mol]
      delta HF,r (2)               -0.47757082 [mEh]      -0.29968022 [kcal/mol]      -1.25386202 [kJ/mol]

    Dispersion                     -7.18385728 [mEh]      -4.50793850 [kcal/mol]     -18.86121469 [kJ/mol]
      Disp20                       -7.91787037 [mEh]      -4.96853867 [kcal/mol]     -20.78836580 [kJ/mol]
      Exch-Disp20                   0.73401309 [mEh]       0.46060017 [kcal/mol]       1.92715111 [kJ/mol]
      Disp20 (SS)                  -3.95893519 [mEh]      -2.48426934 [kcal/mol]     -10.39418290 [kJ/mol]
      Disp20 (OS)                  -3.95893519 [mEh]      -2.48426934 [kcal/mol]     -10.39418290 [kJ/mol]
      Exch-Disp20 (SS)              0.48515488 [mEh]       0.30443928 [kcal/mol]       1.27377396 [kJ/mol]
      Exch-Disp20 (OS)              0.24885821 [mEh]       0.15616089 [kcal/mol]       0.65337715 [kJ/mol]

  Total HF                          2.93439406 [mEh]       1.84136008 [kcal/mol]       7.70425055 [kJ/mol]
  Total SAPT0                      -4.24946322 [mEh]      -2.66657843 [kcal/mol]     -11.15696413 [kJ/mol]

  Special recipe for scaled SAPT0 (see Manual):
    Electrostatics sSAPT0          -2.76331680 [mEh]      -1.73400747 [kcal/mol]      -7.25508725 [kJ/mol]
    Exchange sSAPT0                 6.34618840 [mEh]       3.98229335 [kcal/mol]      16.66191536 [kJ/mol]
    Induction sSAPT0               -0.64078977 [mEh]      -0.40210165 [kcal/mol]      -1.68239331 [kJ/mol]
    Dispersion sSAPT0              -7.17896783 [mEh]      -4.50487033 [kcal/mol]     -18.84837745 [kJ/mol]
  Total sSAPT0                     -4.23688599 [mEh]      -2.65868610 [kcal/mol]     -11.12394264 [kJ/mol]
  --------------------------------------------------------------------------------------------------------

*** tstop() called on r282 at Thu Sep  9 09:39:42 2021
Module time:
	user time   =     112.17 seconds =       1.87 minutes
	system time =      19.72 seconds =       0.33 minutes
	total time  =        132 seconds =       2.20 minutes
Total time:
	user time   =     288.03 seconds =       4.80 minutes
	system time =      22.87 seconds =       0.38 minutes
	total time  =        312 seconds =       5.20 minutes

    Psi4 stopped on: Thursday, 09 September 2021 09:39AM
    Psi4 wall time for execution: 0:05:11.27

*** Psi4 exiting successfully. Buy a developer a beer!
