
    -----------------------------------------------------------------------
          Psi4: An Open-Source Ab Initio Electronic Structure Package
                               Psi4 1.3.2 release

                         Git: Rev {HEAD} ecbda83 


    R. M. Parrish, L. A. Burns, D. G. A. Smith, A. C. Simmonett,
    A. E. DePrince III, E. G. Hohenstein, U. Bozkaya, A. Yu. Sokolov,
    R. Di Remigio, R. M. Richard, J. F. Gonthier, A. M. James,
    H. R. McAlexander, A. Kumar, M. Saitow, X. Wang, B. P. Pritchard,
    P. Verma, H. F. Schaefer III, K. Patkowski, R. A. King, E. F. Valeev,
    F. A. Evangelista, J. M. Turney, T. D. Crawford, and C. D. Sherrill,
    J. Chem. Theory Comput. 13(7) pp 3185--3197 (2017).
    (doi: 10.1021/acs.jctc.7b00174)


                         Additional Contributions by
    P. Kraus, H. Kruse, M. H. Lechner, M. C. Schieber, R. A. Shaw,
    A. Alenaizan, R. Galvelis, Z. L. Glick, S. Lehtola, and J. P. Misiewicz

    -----------------------------------------------------------------------


    Psi4 started on: Friday, 10 September 2021 06:29PM

    Process ID: 56973
    Host:       r282
    PSIDATADIR: /home/r08543048/miniconda3/share/psi4
    Memory:     500.0 MiB
    Threads:    1
    
  ==> Input File <==

--------------------------------------------------------------------------
# Any line starting with the # character is a comment line
#! Sample  computation

memory 22 gb

molecule Dimer {
0 1
 C  0.346793    2.564580   -0.219772
 C  1.516699    1.918880   -0.189249
 C  1.770378    0.641839    0.544700
 C  2.272110   -0.468238   -0.379717
 C  2.515746   -1.768359    0.374652
 H -0.511051    2.191244    0.325998
 H  0.223359    3.481182   -0.779909
 H  2.353482    2.328973   -0.748672
 H  2.521854    0.808945    1.323588
 H  0.855541    0.314921    1.046194
 H  1.538037   -0.629588   -1.172125
 H  3.193418   -0.138737   -0.867297
 H  3.254162   -1.624913    1.164838
 H  1.591704   -2.119298    0.835546
 H  2.880938   -2.553131   -0.287585





 --
0 1
 C -1.186067   -2.129815   -0.576305
 C -1.392856   -0.826083   -0.368119
 C -2.319638   -0.265299    0.662958
 C -3.402811    0.608509    0.029921
 H -0.512652   -2.477422   -1.347811
 H -1.688373   -2.877708    0.025029
 H -0.874863   -0.102863   -0.992748
 H -2.773794   -1.082172    1.227533
 H -1.749443    0.335962    1.377640
 H -2.955582    1.425140   -0.538204
 H -4.014572    0.021979   -0.654920

 H -4.054287    1.041407    0.788485





units angstrom

no_reorient
symmetry c1
}

set globals{
  basis jun-cc-pvtz
}

energy('sapt0')


--------------------------------------------------------------------------

  Memory set to  20.489 GiB by Python driver.

  //>>>>>>>>>>>>>>>>>>>>>>>>>>>>>>>>>>>//
  //              Dimer HF             //
  //<<<<<<<<<<<<<<<<<<<<<<<<<<<<<<<<<<<//


*** tstart() called on r282
*** at Fri Sep 10 18:29:58 2021

   => Loading Basis Set <=

    Name: JUN-CC-PVTZ
    Role: ORBITAL
    Keyword: BASIS
    atoms 1-5, 16-19  entry C          line   217 file /home/r08543048/miniconda3/share/psi4/basis/jun-cc-pvtz.gbs 
    atoms 6-15, 20-27 entry H          line    36 file /home/r08543048/miniconda3/share/psi4/basis/jun-cc-pvtz.gbs 


         ---------------------------------------------------------
                                   SCF
               by Justin Turney, Rob Parrish, Andy Simmonett
                          and Daniel G. A. Smith
                              RHF Reference
                        1 Threads,  20980 MiB Core
         ---------------------------------------------------------

  ==> Geometry <==

    Molecular point group: c1
    Full point group: C1

    Geometry (in Angstrom), charge = 0, multiplicity = 1:

       Center              X                  Y                   Z               Mass       
    ------------   -----------------  -----------------  -----------------  -----------------
         C            0.341113036937     2.551553846134    -0.214064774230    12.000000000000
         C            1.511019036937     1.905853846134    -0.183541774230    12.000000000000
         C            1.764698036937     0.628812846134     0.550407225770    12.000000000000
         C            2.266430036937    -0.481264153866    -0.374009774230    12.000000000000
         C            2.510066036937    -1.781385153866     0.380359225770    12.000000000000
         H           -0.516730963063     2.178217846134     0.331705225770     1.007825032230
         H            0.217679036937     3.468155846134    -0.774201774230     1.007825032230
         H            2.347802036937     2.315946846134    -0.742964774230     1.007825032230
         H            2.516174036937     0.795918846134     1.329295225770     1.007825032230
         H            0.849861036937     0.301894846134     1.051901225770     1.007825032230
         H            1.532357036937    -0.642614153866    -1.166417774230     1.007825032230
         H            3.187738036937    -0.151763153866    -0.861589774230     1.007825032230
         H            3.248482036937    -1.637939153866     1.170545225770     1.007825032230
         H            1.586024036937    -2.132324153866     0.841253225770     1.007825032230
         H            2.875258036937    -2.566157153866    -0.281877774230     1.007825032230
         C           -1.191746963063    -2.142841153866    -0.570597774230    12.000000000000
         C           -1.398535963063    -0.839109153866    -0.362411774230    12.000000000000
         C           -2.325317963063    -0.278325153866     0.668665225770    12.000000000000
         C           -3.408490963063     0.595482846134     0.035628225770    12.000000000000
         H           -0.518331963063    -2.490448153866    -1.342103774230     1.007825032230
         H           -1.694052963063    -2.890734153866     0.030736225770     1.007825032230
         H           -0.880542963063    -0.115889153866    -0.987040774230     1.007825032230
         H           -2.779473963063    -1.095198153866     1.233240225770     1.007825032230
         H           -1.755122963063     0.322935846134     1.383347225770     1.007825032230
         H           -2.961261963063     1.412113846134    -0.532496774230     1.007825032230
         H           -4.020251963063     0.008952846134    -0.649212774230     1.007825032230
         H           -4.059966963063     1.028380846134     0.794192225770     1.007825032230

  Running in c1 symmetry.

  Rotational constants: A =      0.05154  B =      0.02871  C =      0.01996 [cm^-1]
  Rotational constants: A =   1545.06895  B =    860.69192  C =    598.48238 [MHz]
  Nuclear repulsion =  439.395568111926366

  Charge       = 0
  Multiplicity = 1
  Electrons    = 72
  Nalpha       = 36
  Nbeta        = 36

  ==> Algorithm <==

  SCF Algorithm Type is DF.
  DIIS enabled.
  MOM disabled.
  Fractional occupation disabled.
  Guess Type is SAD.
  Energy threshold   = 1.00e-08
  Density threshold  = 1.00e-08
  Integral threshold = 0.00e+00

  ==> Primary Basis <==

  Basis Set: JUN-CC-PVTZ
    Blend: JUN-CC-PVTZ
    Number of shells: 225
    Number of basis function: 603
    Number of Cartesian functions: 675
    Spherical Harmonics?: true
    Max angular momentum: 3

   => Loading Basis Set <=

    Name: (JUN-CC-PVTZ AUX)
    Role: JKFIT
    Keyword: DF_BASIS_SCF
    atoms 1-5, 16-19  entry C          line   152 file /home/r08543048/miniconda3/share/psi4/basis/jun-cc-pvtz-jkfit.gbs 
    atoms 6-15, 20-27 entry H          line    70 file /home/r08543048/miniconda3/share/psi4/basis/jun-cc-pvtz-jkfit.gbs 

  ==> Pre-Iterations <==

   -------------------------------------------------------
    Irrep   Nso     Nmo     Nalpha   Nbeta   Ndocc  Nsocc
   -------------------------------------------------------
     A        603     603       0       0       0       0
   -------------------------------------------------------
    Total     603     603      36      36      36       0
   -------------------------------------------------------

  ==> Integral Setup <==

  ==> DiskDFJK: Density-Fitted J/K Matrices <==

    J tasked:                  Yes
    K tasked:                  Yes
    wK tasked:                  No
    OpenMP threads:              1
    Integrals threads:           1
    Memory [MiB]:            15735
    Algorithm:                Core
    Integral Cache:           SAVE
    Schwarz Cutoff:          1E-12
    Fitting Condition:       1E-10

   => Auxiliary Basis Set <=

  Basis Set: (JUN-CC-PVTZ AUX)
    Blend: JUN-CC-PVTZ-JKFIT
    Number of shells: 441
    Number of basis function: 1395
    Number of Cartesian functions: 1674
    Spherical Harmonics?: true
    Max angular momentum: 4

  Minimum eigenvalue in the overlap matrix is 2.1969083050E-05.
  Using Symmetric Orthogonalization.

  SCF Guess: Superposition of Atomic Densities via on-the-fly atomic UHF.

  ==> Iterations <==

                           Total Energy        Delta E     RMS |[F,P]|

   @DF-RHF iter SAD:  -350.02671849584988   -3.50027e+02   0.00000e+00 
   @DF-RHF iter   1:  -350.99166902744173   -9.64951e-01   1.29061e-03 DIIS
   @DF-RHF iter   2:  -351.30649538791488   -3.14826e-01   5.66859e-04 DIIS
   @DF-RHF iter   3:  -351.36792767119431   -6.14323e-02   1.13495e-04 DIIS
   @DF-RHF iter   4:  -351.37220015345559   -4.27248e-03   4.11553e-05 DIIS
   @DF-RHF iter   5:  -351.37257488140926   -3.74728e-04   7.59929e-06 DIIS
   @DF-RHF iter   6:  -351.37259447787244   -1.95965e-05   1.61004e-06 DIIS
   @DF-RHF iter   7:  -351.37259533918439   -8.61312e-07   4.91004e-07 DIIS
   @DF-RHF iter   8:  -351.37259541842457   -7.92402e-08   1.22575e-07 DIIS
   @DF-RHF iter   9:  -351.37259542565158   -7.22702e-09   4.47172e-08 DIIS
   @DF-RHF iter  10:  -351.37259542680175   -1.15017e-09   1.80301e-08 DIIS
   @DF-RHF iter  11:  -351.37259542696148   -1.59730e-10   6.63868e-09 DIIS
  Energy and wave function converged.


  ==> Post-Iterations <==

    Orbital Energies [Eh]
    ---------------------

    Doubly Occupied:                                                      

       1A    -11.232005     2A    -11.229828     3A    -11.225934  
       4A    -11.220161     5A    -11.218010     6A    -11.217210  
       7A    -11.216773     8A    -11.214931     9A    -11.206979  
      10A     -1.089362    11A     -1.081106    12A     -1.021204  
      13A     -0.988665    14A     -0.921096    15A     -0.856620  
      16A     -0.809251    17A     -0.759867    18A     -0.754582  
      19A     -0.654420    20A     -0.639739    21A     -0.617264  
      22A     -0.606501    23A     -0.589695    24A     -0.586990  
      25A     -0.564463    26A     -0.538451    27A     -0.532934  
      28A     -0.518946    29A     -0.508509    30A     -0.488329  
      31A     -0.480419    32A     -0.477636    33A     -0.470770  
      34A     -0.467288    35A     -0.358228    36A     -0.356259  

    Virtual:                                                              

      37A      0.046436    38A      0.050035    39A      0.053843  
      40A      0.058046    41A      0.065303    42A      0.069388  
      43A      0.074381    44A      0.081253    45A      0.084755  
      46A      0.094403    47A      0.099701    48A      0.105445  
      49A      0.110135    50A      0.113808    51A      0.121272  
      52A      0.123092    53A      0.129153    54A      0.132695  
      55A      0.137192    56A      0.144783    57A      0.146698  
      58A      0.153609    59A      0.160850    60A      0.168547  
      61A      0.176384    62A      0.178119    63A      0.181625  
      64A      0.186457    65A      0.191201    66A      0.193380  
      67A      0.200152    68A      0.207251    69A      0.208975  
      70A      0.215020    71A      0.221318    72A      0.225991  
      73A      0.231580    74A      0.242669    75A      0.260279  
      76A      0.271102    77A      0.275203    78A      0.278728  
      79A      0.286163    80A      0.297180    81A      0.298433  
      82A      0.305840    83A      0.308768    84A      0.317272  
      85A      0.320817    86A      0.326462    87A      0.330286  
      88A      0.334084    89A      0.335946    90A      0.342842  
      91A      0.349407    92A      0.350040    93A      0.351148  
      94A      0.356469    95A      0.360005    96A      0.367572  
      97A      0.373438    98A      0.383985    99A      0.385974  
     100A      0.394415   101A      0.401789   102A      0.404428  
     103A      0.407651   104A      0.412657   105A      0.419623  
     106A      0.424439   107A      0.426680   108A      0.431344  
     109A      0.438684   110A      0.447011   111A      0.450699  
     112A      0.457897   113A      0.464073   114A      0.468144  
     115A      0.470337   116A      0.478010   117A      0.487144  
     118A      0.496843   119A      0.500874   120A      0.505864  
     121A      0.516227   122A      0.528366   123A      0.534174  
     124A      0.537057   125A      0.538613   126A      0.547154  
     127A      0.549733   128A      0.554010   129A      0.558040  
     130A      0.565313   131A      0.572961   132A      0.583699  
     133A      0.585394   134A      0.591023   135A      0.595807  
     136A      0.603031   137A      0.616402   138A      0.621059  
     139A      0.630224   140A      0.640915   141A      0.642167  
     142A      0.653809   143A      0.658647   144A      0.680082  
     145A      0.682575   146A      0.702881   147A      0.708084  
     148A      0.718853   149A      0.722138   150A      0.730284  
     151A      0.740541   152A      0.742047   153A      0.758913  
     154A      0.762134   155A      0.774665   156A      0.781593  
     157A      0.788655   158A      0.800617   159A      0.806244  
     160A      0.812589   161A      0.813584   162A      0.817709  
     163A      0.823920   164A      0.832758   165A      0.841429  
     166A      0.842905   167A      0.848578   168A      0.858941  
     169A      0.864216   170A      0.867185   171A      0.877770  
     172A      0.883875   173A      0.885713   174A      0.895485  
     175A      0.901250   176A      0.910462   177A      0.915801  
     178A      0.925001   179A      0.929838   180A      0.936915  
     181A      0.943816   182A      0.951408   183A      0.966392  
     184A      0.982977   185A      0.992240   186A      1.000731  
     187A      1.003370   188A      1.011534   189A      1.021602  
     190A      1.035079   191A      1.050368   192A      1.055074  
     193A      1.061346   194A      1.070421   195A      1.074402  
     196A      1.084827   197A      1.096551   198A      1.110521  
     199A      1.115885   200A      1.130308   201A      1.140484  
     202A      1.155133   203A      1.168563   204A      1.174910  
     205A      1.191315   206A      1.202346   207A      1.216666  
     208A      1.221897   209A      1.230629   210A      1.243711  
     211A      1.250062   212A      1.255955   213A      1.270721  
     214A      1.279297   215A      1.282282   216A      1.298427  
     217A      1.313729   218A      1.315163   219A      1.332760  
     220A      1.338521   221A      1.341743   222A      1.349162  
     223A      1.353255   224A      1.367257   225A      1.371617  
     226A      1.386681   227A      1.391207   228A      1.396556  
     229A      1.410988   230A      1.423958   231A      1.428115  
     232A      1.435687   233A      1.440600   234A      1.451242  
     235A      1.462278   236A      1.470113   237A      1.483721  
     238A      1.495702   239A      1.505458   240A      1.512283  
     241A      1.523637   242A      1.530695   243A      1.540624  
     244A      1.548651   245A      1.558021   246A      1.565991  
     247A      1.570279   248A      1.578769   249A      1.585626  
     250A      1.590229   251A      1.604801   252A      1.613536  
     253A      1.619254   254A      1.632292   255A      1.646074  
     256A      1.650368   257A      1.663226   258A      1.667447  
     259A      1.680740   260A      1.689825   261A      1.696560  
     262A      1.700882   263A      1.711362   264A      1.726296  
     265A      1.734407   266A      1.738947   267A      1.753604  
     268A      1.766358   269A      1.769774   270A      1.774393  
     271A      1.804960   272A      1.807281   273A      1.821630  
     274A      1.830783   275A      1.855010   276A      1.861427  
     277A      1.866343   278A      1.878131   279A      1.896393  
     280A      1.902227   281A      1.920090   282A      1.934932  
     283A      1.946741   284A      1.962114   285A      1.971111  
     286A      1.976727   287A      1.995021   288A      2.011752  
     289A      2.032265   290A      2.045811   291A      2.093763  
     292A      2.106664   293A      2.122811   294A      2.162410  
     295A      2.177359   296A      2.270504   297A      2.290159  
     298A      2.677485   299A      2.706655   300A      2.763611  
     301A      2.772860   302A      2.786770   303A      2.787495  
     304A      2.799769   305A      2.807676   306A      2.824124  
     307A      2.831033   308A      2.841207   309A      2.846255  
     310A      2.857882   311A      2.863281   312A      2.875641  
     313A      2.886547   314A      2.899031   315A      2.906374  
     316A      2.908738   317A      2.917185   318A      2.934474  
     319A      2.948050   320A      2.965255   321A      2.974813  
     322A      2.985786   323A      2.989730   324A      3.003657  
     325A      3.006568   326A      3.020296   327A      3.035515  
     328A      3.042057   329A      3.059091   330A      3.067263  
     331A      3.089186   332A      3.099267   333A      3.101244  
     334A      3.111477   335A      3.119090   336A      3.129661  
     337A      3.142728   338A      3.150229   339A      3.157542  
     340A      3.162734   341A      3.176721   342A      3.181476  
     343A      3.195697   344A      3.200745   345A      3.214761  
     346A      3.221078   347A      3.228311   348A      3.237321  
     349A      3.238871   350A      3.241221   351A      3.262233  
     352A      3.268454   353A      3.288776   354A      3.293685  
     355A      3.305152   356A      3.312946   357A      3.322561  
     358A      3.338230   359A      3.343460   360A      3.350637  
     361A      3.362762   362A      3.372018   363A      3.379835  
     364A      3.385337   365A      3.394321   366A      3.400289  
     367A      3.405451   368A      3.416838   369A      3.419045  
     370A      3.425099   371A      3.435452   372A      3.443938  
     373A      3.457027   374A      3.465434   375A      3.475149  
     376A      3.479923   377A      3.491966   378A      3.494758  
     379A      3.498453   380A      3.506473   381A      3.509301  
     382A      3.526418   383A      3.528886   384A      3.540522  
     385A      3.541969   386A      3.550628   387A      3.564135  
     388A      3.569290   389A      3.573697   390A      3.577006  
     391A      3.583390   392A      3.596730   393A      3.603237  
     394A      3.613677   395A      3.618805   396A      3.630182  
     397A      3.639733   398A      3.648412   399A      3.660236  
     400A      3.667979   401A      3.676396   402A      3.697754  
     403A      3.702398   404A      3.719913   405A      3.723501  
     406A      3.740269   407A      3.751171   408A      3.758383  
     409A      3.769080   410A      3.773431   411A      3.789612  
     412A      3.800429   413A      3.823136   414A      3.829579  
     415A      3.841813   416A      3.855271   417A      3.868760  
     418A      3.873917   419A      3.879336   420A      3.884599  
     421A      3.901837   422A      3.908626   423A      3.929016  
     424A      3.934947   425A      3.950088   426A      3.965231  
     427A      3.979520   428A      3.990151   429A      3.992127  
     430A      4.006008   431A      4.016658   432A      4.030773  
     433A      4.040656   434A      4.046871   435A      4.050345  
     436A      4.062609   437A      4.075983   438A      4.102931  
     439A      4.122232   440A      4.126653   441A      4.136994  
     442A      4.167027   443A      4.177053   444A      4.193816  
     445A      4.196523   446A      4.208663   447A      4.218276  
     448A      4.227760   449A      4.232332   450A      4.247534  
     451A      4.258306   452A      4.272408   453A      4.276046  
     454A      4.294362   455A      4.302819   456A      4.313983  
     457A      4.324779   458A      4.341247   459A      4.343288  
     460A      4.349852   461A      4.356307   462A      4.360206  
     463A      4.365683   464A      4.377051   465A      4.381731  
     466A      4.388190   467A      4.397007   468A      4.407237  
     469A      4.412864   470A      4.425114   471A      4.428835  
     472A      4.443955   473A      4.448875   474A      4.460476  
     475A      4.467046   476A      4.481074   477A      4.489938  
     478A      4.492072   479A      4.496248   480A      4.512203  
     481A      4.514973   482A      4.529500   483A      4.533854  
     484A      4.540054   485A      4.554833   486A      4.564188  
     487A      4.579544   488A      4.585628   489A      4.590351  
     490A      4.619388   491A      4.633844   492A      4.642778  
     493A      4.660805   494A      4.678752   495A      4.684314  
     496A      4.704036   497A      4.721010   498A      4.746513  
     499A      4.748436   500A      4.757166   501A      4.783588  
     502A      4.785175   503A      4.802317   504A      4.816637  
     505A      4.824267   506A      4.838142   507A      4.855591  
     508A      4.866806   509A      4.889057   510A      4.901453  
     511A      4.926192   512A      4.936470   513A      4.956160  
     514A      4.970950   515A      4.975514   516A      4.999019  
     517A      5.012989   518A      5.033796   519A      5.045886  
     520A      5.074399   521A      5.089528   522A      5.112051  
     523A      5.134426   524A      5.162305   525A      5.191495  
     526A      5.200746   527A      5.207132   528A      5.225155  
     529A      5.237944   530A      5.254846   531A      5.257110  
     532A      5.260390   533A      5.286286   534A      5.291485  
     535A      5.299295   536A      5.305053   537A      5.308522  
     538A      5.310671   539A      5.347593   540A      5.374986  
     541A      5.381673   542A      5.398735   543A      5.405684  
     544A      5.422444   545A      5.430469   546A      5.441897  
     547A      5.451592   548A      5.472664   549A      5.487813  
     550A      5.512271   551A      5.527981   552A      5.569532  
     553A      5.588492   554A      5.614316   555A      5.621494  
     556A      5.638506   557A      5.655375   558A      5.667700  
     559A      5.718155   560A      5.726391   561A      5.749889  
     562A      5.759664   563A      5.766385   564A      5.782706  
     565A      5.787717   566A      5.810211   567A      5.825420  
     568A      5.844720   569A      5.881386   570A      5.924044  
     571A      5.927375   572A      5.933703   573A      5.942456  
     574A      5.957245   575A      5.960950   576A      5.984123  
     577A      6.022885   578A      6.042860   579A      6.145473  
     580A      6.193621   581A      6.234307   582A      6.409500  
     583A      6.415555   584A      6.488754   585A      6.489233  
     586A      6.518544   587A      6.521545   588A      6.528563  
     589A      6.547636   590A      6.597417   591A      6.602615  
     592A      6.643875   593A      6.715754   594A      6.729947  
     595A     12.408639   596A     12.603108   597A     13.811841  
     598A     14.061892   599A     14.440385   600A     14.561234  
     601A     14.634967   602A     15.383183   603A     15.468982  

    Final Occupation by Irrep:
              A 
    DOCC [    36 ]

  @DF-RHF Final Energy:  -351.37259542696148

   => Energetics <=

    Nuclear Repulsion Energy =            439.3955681119263659
    One-Electron Energy =               -1344.0954717500453626
    Two-Electron Energy =                 553.3273082111575150
    Total Energy =                       -351.3725954269614249

Computation Completed


Properties will be evaluated at   0.000000,   0.000000,   0.000000 [a0]

Properties computed using the SCF density matrix

  Nuclear Dipole Moment: [e a0]
     X:    -0.7728      Y:    -1.7723      Z:     0.7765

  Electronic Dipole Moment: [e a0]
     X:     0.7995      Y:     1.7433      Z:    -0.6895

  Dipole Moment: [e a0]
     X:     0.0267      Y:    -0.0290      Z:     0.0870     Total:     0.0956

  Dipole Moment: [D]
     X:     0.0679      Y:    -0.0738      Z:     0.2212     Total:     0.2429


*** tstop() called on r282 at Fri Sep 10 18:32:09 2021
Module time:
	user time   =     128.45 seconds =       2.14 minutes
	system time =       2.34 seconds =       0.04 minutes
	total time  =        131 seconds =       2.18 minutes
Total time:
	user time   =     128.45 seconds =       2.14 minutes
	system time =       2.34 seconds =       0.04 minutes
	total time  =        131 seconds =       2.18 minutes

  //>>>>>>>>>>>>>>>>>>>>>>>>>>>>>>>>>>>//
  //            Monomer A HF           //
  //<<<<<<<<<<<<<<<<<<<<<<<<<<<<<<<<<<<//


*** tstart() called on r282
*** at Fri Sep 10 18:32:09 2021

   => Loading Basis Set <=

    Name: JUN-CC-PVTZ
    Role: ORBITAL
    Keyword: BASIS
    atoms 1-5, 16-19  entry C          line   217 file /home/r08543048/miniconda3/share/psi4/basis/jun-cc-pvtz.gbs 
    atoms 6-15, 20-27 entry H          line    36 file /home/r08543048/miniconda3/share/psi4/basis/jun-cc-pvtz.gbs 


         ---------------------------------------------------------
                                   SCF
               by Justin Turney, Rob Parrish, Andy Simmonett
                          and Daniel G. A. Smith
                              RHF Reference
                        1 Threads,  20980 MiB Core
         ---------------------------------------------------------

  ==> Geometry <==

    Molecular point group: c1
    Full point group: C1

    Geometry (in Angstrom), charge = 0, multiplicity = 1:

       Center              X                  Y                   Z               Mass       
    ------------   -----------------  -----------------  -----------------  -----------------
         C            0.341113036937     2.551553846134    -0.214064774230    12.000000000000
         C            1.511019036937     1.905853846134    -0.183541774230    12.000000000000
         C            1.764698036937     0.628812846134     0.550407225770    12.000000000000
         C            2.266430036937    -0.481264153866    -0.374009774230    12.000000000000
         C            2.510066036937    -1.781385153866     0.380359225770    12.000000000000
         H           -0.516730963063     2.178217846134     0.331705225770     1.007825032230
         H            0.217679036937     3.468155846134    -0.774201774230     1.007825032230
         H            2.347802036937     2.315946846134    -0.742964774230     1.007825032230
         H            2.516174036937     0.795918846134     1.329295225770     1.007825032230
         H            0.849861036937     0.301894846134     1.051901225770     1.007825032230
         H            1.532357036937    -0.642614153866    -1.166417774230     1.007825032230
         H            3.187738036937    -0.151763153866    -0.861589774230     1.007825032230
         H            3.248482036937    -1.637939153866     1.170545225770     1.007825032230
         H            1.586024036937    -2.132324153866     0.841253225770     1.007825032230
         H            2.875258036937    -2.566157153866    -0.281877774230     1.007825032230
      Gh(C)          -1.191746963063    -2.142841153866    -0.570597774230    12.000000000000
      Gh(C)          -1.398535963063    -0.839109153866    -0.362411774230    12.000000000000
      Gh(C)          -2.325317963063    -0.278325153866     0.668665225770    12.000000000000
      Gh(C)          -3.408490963063     0.595482846134     0.035628225770    12.000000000000
      Gh(H)          -0.518331963063    -2.490448153866    -1.342103774230     1.007825032230
      Gh(H)          -1.694052963063    -2.890734153866     0.030736225770     1.007825032230
      Gh(H)          -0.880542963063    -0.115889153866    -0.987040774230     1.007825032230
      Gh(H)          -2.779473963063    -1.095198153866     1.233240225770     1.007825032230
      Gh(H)          -1.755122963063     0.322935846134     1.383347225770     1.007825032230
      Gh(H)          -2.961261963063     1.412113846134    -0.532496774230     1.007825032230
      Gh(H)          -4.020251963063     0.008952846134    -0.649212774230     1.007825032230
      Gh(H)          -4.059966963063     1.028380846134     0.794192225770     1.007825032230

  Running in c1 symmetry.

  Rotational constants: A =      0.05154  B =      0.02871  C =      0.01996 [cm^-1]
  Rotational constants: A =   1545.06895  B =    860.69192  C =    598.48238 [MHz]
  Nuclear repulsion =  170.446394030369305

  Charge       = 0
  Multiplicity = 1
  Electrons    = 40
  Nalpha       = 20
  Nbeta        = 20

  ==> Algorithm <==

  SCF Algorithm Type is DF.
  DIIS enabled.
  MOM disabled.
  Fractional occupation disabled.
  Guess Type is SAD.
  Energy threshold   = 1.00e-08
  Density threshold  = 1.00e-08
  Integral threshold = 0.00e+00

  ==> Primary Basis <==

  Basis Set: JUN-CC-PVTZ
    Blend: JUN-CC-PVTZ
    Number of shells: 225
    Number of basis function: 603
    Number of Cartesian functions: 675
    Spherical Harmonics?: true
    Max angular momentum: 3

   => Loading Basis Set <=

    Name: (JUN-CC-PVTZ AUX)
    Role: JKFIT
    Keyword: DF_BASIS_SCF
    atoms 1-5, 16-19  entry C          line   152 file /home/r08543048/miniconda3/share/psi4/basis/jun-cc-pvtz-jkfit.gbs 
    atoms 6-15, 20-27 entry H          line    70 file /home/r08543048/miniconda3/share/psi4/basis/jun-cc-pvtz-jkfit.gbs 

  ==> Pre-Iterations <==

   -------------------------------------------------------
    Irrep   Nso     Nmo     Nalpha   Nbeta   Ndocc  Nsocc
   -------------------------------------------------------
     A        603     603       0       0       0       0
   -------------------------------------------------------
    Total     603     603      20      20      20       0
   -------------------------------------------------------

  ==> Integral Setup <==

  ==> DiskDFJK: Density-Fitted J/K Matrices <==

    J tasked:                  Yes
    K tasked:                  Yes
    wK tasked:                  No
    OpenMP threads:              1
    Integrals threads:           1
    Memory [MiB]:            15735
    Algorithm:                Core
    Integral Cache:           LOAD
    Schwarz Cutoff:          1E-12
    Fitting Condition:       1E-10

   => Auxiliary Basis Set <=

  Basis Set: (JUN-CC-PVTZ AUX)
    Blend: JUN-CC-PVTZ-JKFIT
    Number of shells: 441
    Number of basis function: 1395
    Number of Cartesian functions: 1674
    Spherical Harmonics?: true
    Max angular momentum: 4

  Minimum eigenvalue in the overlap matrix is 2.1969083050E-05.
  Using Symmetric Orthogonalization.

  SCF Guess: Superposition of Atomic Densities via on-the-fly atomic UHF.

  ==> Iterations <==

                           Total Energy        Delta E     RMS |[F,P]|

   @DF-RHF iter SAD:  -194.45481748334603   -1.94455e+02   0.00000e+00 
   @DF-RHF iter   1:  -194.99833300908622   -5.43516e-01   9.68015e-04 DIIS
   @DF-RHF iter   2:  -195.17542984809694   -1.77097e-01   4.24265e-04 DIIS
   @DF-RHF iter   3:  -195.20979684376175   -3.43670e-02   8.16989e-05 DIIS
   @DF-RHF iter   4:  -195.21213460391149   -2.33776e-03   2.72627e-05 DIIS
   @DF-RHF iter   5:  -195.21230171027369   -1.67106e-04   5.71446e-06 DIIS
   @DF-RHF iter   6:  -195.21231220065738   -1.04904e-05   1.29273e-06 DIIS
   @DF-RHF iter   7:  -195.21231270092107   -5.00264e-07   3.66953e-07 DIIS
   @DF-RHF iter   8:  -195.21231274485419   -4.39331e-08   8.37533e-08 DIIS
   @DF-RHF iter   9:  -195.21231274818479   -3.33060e-09   2.93290e-08 DIIS
   @DF-RHF iter  10:  -195.21231274866091   -4.76120e-10   9.98717e-09 DIIS
  Energy and wave function converged.


  ==> Post-Iterations <==

    Orbital Energies [Eh]
    ---------------------

    Doubly Occupied:                                                      

       1A    -11.230933     2A    -11.222127     3A    -11.219443  
       4A    -11.217187     5A    -11.211646     6A     -1.089633  
       7A     -1.022289     8A     -0.922718     9A     -0.811364  
      10A     -0.757133    11A     -0.650518    12A     -0.617400  
      13A     -0.590625    14A     -0.566797    15A     -0.538267  
      16A     -0.510772    17A     -0.482658    18A     -0.473837  
      19A     -0.469887    20A     -0.356012  

    Virtual:                                                              

      21A      0.030136    22A      0.043799    23A      0.050398  
      24A      0.055104    25A      0.062542    26A      0.066666  
      27A      0.071491    28A      0.076598    29A      0.081360  
      30A      0.093798    31A      0.095683    32A      0.096621  
      33A      0.106906    34A      0.109058    35A      0.111585  
      36A      0.120460    37A      0.125564    38A      0.129616  
      39A      0.133159    40A      0.139620    41A      0.142333  
      42A      0.151606    43A      0.153948    44A      0.154827  
      45A      0.162227    46A      0.166518    47A      0.173533  
      48A      0.174813    49A      0.182842    50A      0.189885  
      51A      0.196372    52A      0.201129    53A      0.205085  
      54A      0.209137    55A      0.217037    56A      0.220638  
      57A      0.229741    58A      0.243187    59A      0.255723  
      60A      0.265022    61A      0.270761    62A      0.277323  
      63A      0.289490    64A      0.294650    65A      0.298107  
      66A      0.307584    67A      0.309755    68A      0.315844  
      69A      0.316769    70A      0.323171    71A      0.328684  
      72A      0.337311    73A      0.343062    74A      0.345298  
      75A      0.350458    76A      0.354219    77A      0.355249  
      78A      0.365652    79A      0.369932    80A      0.375226  
      81A      0.377867    82A      0.385761    83A      0.390933  
      84A      0.394544    85A      0.398587    86A      0.403418  
      87A      0.408470    88A      0.413811    89A      0.418887  
      90A      0.419834    91A      0.428106    92A      0.438074  
      93A      0.440397    94A      0.441027    95A      0.449255  
      96A      0.452050    97A      0.463640    98A      0.474185  
      99A      0.475671   100A      0.489757   101A      0.494794  
     102A      0.500903   103A      0.509436   104A      0.514908  
     105A      0.520011   106A      0.533052   107A      0.538504  
     108A      0.542431   109A      0.545114   110A      0.554361  
     111A      0.559384   112A      0.562661   113A      0.570361  
     114A      0.572945   115A      0.581314   116A      0.586114  
     117A      0.596962   118A      0.604773   119A      0.607727  
     120A      0.611579   121A      0.614929   122A      0.623415  
     123A      0.632101   124A      0.636567   125A      0.645688  
     126A      0.649786   127A      0.660721   128A      0.672776  
     129A      0.676129   130A      0.678764   131A      0.687924  
     132A      0.693441   133A      0.700352   134A      0.718216  
     135A      0.725847   136A      0.730546   137A      0.745137  
     138A      0.752491   139A      0.762486   140A      0.769928  
     141A      0.778692   142A      0.784406   143A      0.791026  
     144A      0.806462   145A      0.823125   146A      0.824281  
     147A      0.836846   148A      0.844836   149A      0.846816  
     150A      0.858610   151A      0.863787   152A      0.871601  
     153A      0.873743   154A      0.878569   155A      0.894836  
     156A      0.901845   157A      0.903810   158A      0.925468  
     159A      0.932819   160A      0.942951   161A      0.951251  
     162A      0.964715   163A      0.985163   164A      1.001681  
     165A      1.011355   166A      1.036654   167A      1.043300  
     168A      1.055181   169A      1.069014   170A      1.075179  
     171A      1.083472   172A      1.096900   173A      1.106183  
     174A      1.125148   175A      1.128178   176A      1.143673  
     177A      1.147232   178A      1.158131   179A      1.163515  
     180A      1.172200   181A      1.191870   182A      1.193577  
     183A      1.201329   184A      1.206330   185A      1.221156  
     186A      1.225965   187A      1.238171   188A      1.238941  
     189A      1.248695   190A      1.253088   191A      1.270173  
     192A      1.279060   193A      1.283159   194A      1.296316  
     195A      1.303023   196A      1.313585   197A      1.319131  
     198A      1.324830   199A      1.333638   200A      1.344406  
     201A      1.350218   202A      1.359923   203A      1.367567  
     204A      1.370689   205A      1.380655   206A      1.383121  
     207A      1.391045   208A      1.402073   209A      1.403675  
     210A      1.413657   211A      1.424031   212A      1.427731  
     213A      1.437305   214A      1.455652   215A      1.459012  
     216A      1.466771   217A      1.481636   218A      1.496189  
     219A      1.500548   220A      1.504782   221A      1.514555  
     222A      1.517991   223A      1.533848   224A      1.536360  
     225A      1.544995   226A      1.553254   227A      1.559114  
     228A      1.560344   229A      1.575502   230A      1.582762  
     231A      1.592205   232A      1.593750   233A      1.605815  
     234A      1.610991   235A      1.614654   236A      1.628424  
     237A      1.629970   238A      1.636859   239A      1.647916  
     240A      1.654009   241A      1.660889   242A      1.675780  
     243A      1.691938   244A      1.696824   245A      1.710823  
     246A      1.719948   247A      1.726849   248A      1.739134  
     249A      1.749671   250A      1.761204   251A      1.770758  
     252A      1.781109   253A      1.799083   254A      1.808321  
     255A      1.820702   256A      1.838042   257A      1.841703  
     258A      1.870306   259A      1.871469   260A      1.894634  
     261A      1.905190   262A      1.913854   263A      1.935825  
     264A      1.941878   265A      1.964800   266A      1.978917  
     267A      1.984301   268A      1.991775   269A      1.997827  
     270A      2.029950   271A      2.042390   272A      2.047507  
     273A      2.076513   274A      2.101596   275A      2.125305  
     276A      2.140750   277A      2.164493   278A      2.165569  
     279A      2.176651   280A      2.229365   281A      2.263637  
     282A      2.294805   283A      2.302258   284A      2.377610  
     285A      2.392136   286A      2.438011   287A      2.453960  
     288A      2.513086   289A      2.550445   290A      2.572653  
     291A      2.616785   292A      2.696826   293A      2.746777  
     294A      2.773540   295A      2.784264   296A      2.819062  
     297A      2.827582   298A      2.853329   299A      2.863832  
     300A      2.870916   301A      2.879064   302A      2.897167  
     303A      2.919200   304A      2.927615   305A      2.934287  
     306A      2.973256   307A      2.993670   308A      3.010206  
     309A      3.014439   310A      3.036842   311A      3.057375  
     312A      3.094414   313A      3.101849   314A      3.136268  
     315A      3.150777   316A      3.167468   317A      3.176020  
     318A      3.188409   319A      3.203110   320A      3.219637  
     321A      3.234556   322A      3.247421   323A      3.261380  
     324A      3.287775   325A      3.294645   326A      3.327229  
     327A      3.350552   328A      3.367854   329A      3.380036  
     330A      3.381727   331A      3.396186   332A      3.400586  
     333A      3.403826   334A      3.430106   335A      3.444524  
     336A      3.459315   337A      3.474685   338A      3.486007  
     339A      3.489828   340A      3.501472   341A      3.510443  
     342A      3.526331   343A      3.532596   344A      3.547910  
     345A      3.552480   346A      3.558130   347A      3.567887  
     348A      3.574340   349A      3.583542   350A      3.588599  
     351A      3.596835   352A      3.604923   353A      3.608268  
     354A      3.608306   355A      3.617963   356A      3.630120  
     357A      3.638828   358A      3.648535   359A      3.660243  
     360A      3.678805   361A      3.684763   362A      3.690140  
     363A      3.698382   364A      3.710359   365A      3.731870  
     366A      3.738086   367A      3.762028   368A      3.769734  
     369A      3.773555   370A      3.788819   371A      3.804065  
     372A      3.811020   373A      3.815195   374A      3.825585  
     375A      3.840052   376A      3.840736   377A      3.850268  
     378A      3.857350   379A      3.869392   380A      3.884259  
     381A      3.899223   382A      3.915064   383A      3.919405  
     384A      3.940194   385A      3.944353   386A      3.969157  
     387A      3.972685   388A      3.974795   389A      3.991835  
     390A      4.005849   391A      4.012334   392A      4.028907  
     393A      4.035108   394A      4.043823   395A      4.054836  
     396A      4.076036   397A      4.090848   398A      4.102928  
     399A      4.109551   400A      4.113903   401A      4.142873  
     402A      4.145613   403A      4.161318   404A      4.175177  
     405A      4.186361   406A      4.192048   407A      4.201140  
     408A      4.205655   409A      4.220267   410A      4.232724  
     411A      4.242794   412A      4.261058   413A      4.270151  
     414A      4.278705   415A      4.286303   416A      4.295933  
     417A      4.319616   418A      4.331385   419A      4.341379  
     420A      4.343848   421A      4.350573   422A      4.362484  
     423A      4.374130   424A      4.379039   425A      4.385846  
     426A      4.398682   427A      4.402942   428A      4.420551  
     429A      4.428962   430A      4.438411   431A      4.450502  
     432A      4.464436   433A      4.469392   434A      4.479092  
     435A      4.486675   436A      4.490541   437A      4.499115  
     438A      4.509393   439A      4.515588   440A      4.524516  
     441A      4.527269   442A      4.541041   443A      4.546558  
     444A      4.565127   445A      4.567902   446A      4.581226  
     447A      4.588614   448A      4.608045   449A      4.620437  
     450A      4.626456   451A      4.627340   452A      4.643582  
     453A      4.660287   454A      4.665880   455A      4.686855  
     456A      4.694177   457A      4.698846   458A      4.704120  
     459A      4.726573   460A      4.732092   461A      4.737880  
     462A      4.747733   463A      4.752423   464A      4.765196  
     465A      4.782643   466A      4.786534   467A      4.797312  
     468A      4.810963   469A      4.820376   470A      4.825762  
     471A      4.834346   472A      4.844122   473A      4.852479  
     474A      4.852839   475A      4.862523   476A      4.877893  
     477A      4.885135   478A      4.895828   479A      4.904905  
     480A      4.908487   481A      4.930897   482A      4.936534  
     483A      4.944793   484A      4.956510   485A      4.983572  
     486A      4.993751   487A      4.999864   488A      5.011254  
     489A      5.021908   490A      5.037799   491A      5.047649  
     492A      5.055417   493A      5.070580   494A      5.080141  
     495A      5.103998   496A      5.109978   497A      5.132199  
     498A      5.162095   499A      5.176635   500A      5.187514  
     501A      5.199165   502A      5.205999   503A      5.226931  
     504A      5.240061   505A      5.258051   506A      5.263953  
     507A      5.280253   508A      5.288161   509A      5.302018  
     510A      5.311850   511A      5.323184   512A      5.349981  
     513A      5.354014   514A      5.381550   515A      5.394163  
     516A      5.413940   517A      5.429669   518A      5.443373  
     519A      5.453002   520A      5.475273   521A      5.489152  
     522A      5.498150   523A      5.504882   524A      5.530335  
     525A      5.568330   526A      5.578179   527A      5.617804  
     528A      5.631879   529A      5.641782   530A      5.653275  
     531A      5.674222   532A      5.713266   533A      5.726907  
     534A      5.738289   535A      5.761507   536A      5.781955  
     537A      5.802214   538A      5.827582   539A      5.833516  
     540A      5.846378   541A      5.882423   542A      5.904161  
     543A      5.937898   544A      5.941417   545A      5.957526  
     546A      5.979374   547A      5.983643   548A      6.030492  
     549A      6.035821   550A      6.066016   551A      6.106331  
     552A      6.144727   553A      6.167211   554A      6.203768  
     555A      6.232007   556A      6.275432   557A      6.329679  
     558A      6.358857   559A      6.389683   560A      6.402261  
     561A      6.421962   562A      6.465489   563A      6.493617  
     564A      6.506676   565A      6.527349   566A      6.545093  
     567A      6.599246   568A      6.640722   569A      6.676205  
     570A      6.716685   571A      6.755955   572A      6.799404  
     573A      6.858227   574A      6.962973   575A      7.124246  
     576A      7.373016   577A      7.417575   578A      7.486270  
     579A      7.578569   580A      7.602111   581A      7.691868  
     582A      7.716354   583A      7.837965   584A      7.888476  
     585A      7.978367   586A      7.988810   587A      8.138660  
     588A      8.297026   589A      8.452244   590A      8.813230  
     591A      9.482731   592A      9.703232   593A      9.889015  
     594A     10.241147   595A     12.413981   596A     13.815954  
     597A     14.449137   598A     14.623968   599A     15.425723  
     600A     41.579796   601A     44.779236   602A     45.672875  
     603A     47.340712  

    Final Occupation by Irrep:
              A 
    DOCC [    20 ]

  @DF-RHF Final Energy:  -195.21231274866091

   => Energetics <=

    Nuclear Repulsion Energy =            170.4463940303693050
    One-Electron Energy =                -599.3949221332832167
    Two-Electron Energy =                 233.7362153542529768
    Total Energy =                       -195.2123127486609064

Computation Completed


Properties will be evaluated at   0.000000,   0.000000,   0.000000 [a0]

Properties computed using the SCF density matrix

  Nuclear Dipole Moment: [e a0]
     X:   128.8880      Y:    35.6606      Z:     3.5008

  Electronic Dipole Moment: [e a0]
     X:  -128.7757      Y:   -35.8019      Z:    -3.4861

  Dipole Moment: [e a0]
     X:     0.1123      Y:    -0.1413      Z:     0.0147     Total:     0.1811

  Dipole Moment: [D]
     X:     0.2854      Y:    -0.3591      Z:     0.0375     Total:     0.4602


*** tstop() called on r282 at Fri Sep 10 18:33:15 2021
Module time:
	user time   =      65.20 seconds =       1.09 minutes
	system time =       1.08 seconds =       0.02 minutes
	total time  =         66 seconds =       1.10 minutes
Total time:
	user time   =     193.65 seconds =       3.23 minutes
	system time =       3.42 seconds =       0.06 minutes
	total time  =        197 seconds =       3.28 minutes

  //>>>>>>>>>>>>>>>>>>>>>>>>>>>>>>>>>>>//
  //            Monomer B HF           //
  //<<<<<<<<<<<<<<<<<<<<<<<<<<<<<<<<<<<//


*** tstart() called on r282
*** at Fri Sep 10 18:33:15 2021

   => Loading Basis Set <=

    Name: JUN-CC-PVTZ
    Role: ORBITAL
    Keyword: BASIS
    atoms 1-5, 16-19  entry C          line   217 file /home/r08543048/miniconda3/share/psi4/basis/jun-cc-pvtz.gbs 
    atoms 6-15, 20-27 entry H          line    36 file /home/r08543048/miniconda3/share/psi4/basis/jun-cc-pvtz.gbs 


         ---------------------------------------------------------
                                   SCF
               by Justin Turney, Rob Parrish, Andy Simmonett
                          and Daniel G. A. Smith
                              RHF Reference
                        1 Threads,  20980 MiB Core
         ---------------------------------------------------------

  ==> Geometry <==

    Molecular point group: c1
    Full point group: C1

    Geometry (in Angstrom), charge = 0, multiplicity = 1:

       Center              X                  Y                   Z               Mass       
    ------------   -----------------  -----------------  -----------------  -----------------
      Gh(C)           0.341113036937     2.551553846134    -0.214064774230    12.000000000000
      Gh(C)           1.511019036937     1.905853846134    -0.183541774230    12.000000000000
      Gh(C)           1.764698036937     0.628812846134     0.550407225770    12.000000000000
      Gh(C)           2.266430036937    -0.481264153866    -0.374009774230    12.000000000000
      Gh(C)           2.510066036937    -1.781385153866     0.380359225770    12.000000000000
      Gh(H)          -0.516730963063     2.178217846134     0.331705225770     1.007825032230
      Gh(H)           0.217679036937     3.468155846134    -0.774201774230     1.007825032230
      Gh(H)           2.347802036937     2.315946846134    -0.742964774230     1.007825032230
      Gh(H)           2.516174036937     0.795918846134     1.329295225770     1.007825032230
      Gh(H)           0.849861036937     0.301894846134     1.051901225770     1.007825032230
      Gh(H)           1.532357036937    -0.642614153866    -1.166417774230     1.007825032230
      Gh(H)           3.187738036937    -0.151763153866    -0.861589774230     1.007825032230
      Gh(H)           3.248482036937    -1.637939153866     1.170545225770     1.007825032230
      Gh(H)           1.586024036937    -2.132324153866     0.841253225770     1.007825032230
      Gh(H)           2.875258036937    -2.566157153866    -0.281877774230     1.007825032230
         C           -1.191746963063    -2.142841153866    -0.570597774230    12.000000000000
         C           -1.398535963063    -0.839109153866    -0.362411774230    12.000000000000
         C           -2.325317963063    -0.278325153866     0.668665225770    12.000000000000
         C           -3.408490963063     0.595482846134     0.035628225770    12.000000000000
         H           -0.518331963063    -2.490448153866    -1.342103774230     1.007825032230
         H           -1.694052963063    -2.890734153866     0.030736225770     1.007825032230
         H           -0.880542963063    -0.115889153866    -0.987040774230     1.007825032230
         H           -2.779473963063    -1.095198153866     1.233240225770     1.007825032230
         H           -1.755122963063     0.322935846134     1.383347225770     1.007825032230
         H           -2.961261963063     1.412113846134    -0.532496774230     1.007825032230
         H           -4.020251963063     0.008952846134    -0.649212774230     1.007825032230
         H           -4.059966963063     1.028380846134     0.794192225770     1.007825032230

  Running in c1 symmetry.

  Rotational constants: A =      0.05154  B =      0.02871  C =      0.01996 [cm^-1]
  Rotational constants: A =   1545.06895  B =    860.69192  C =    598.48238 [MHz]
  Nuclear repulsion =  117.454345439948057

  Charge       = 0
  Multiplicity = 1
  Electrons    = 32
  Nalpha       = 16
  Nbeta        = 16

  ==> Algorithm <==

  SCF Algorithm Type is DF.
  DIIS enabled.
  MOM disabled.
  Fractional occupation disabled.
  Guess Type is SAD.
  Energy threshold   = 1.00e-08
  Density threshold  = 1.00e-08
  Integral threshold = 0.00e+00

  ==> Primary Basis <==

  Basis Set: JUN-CC-PVTZ
    Blend: JUN-CC-PVTZ
    Number of shells: 225
    Number of basis function: 603
    Number of Cartesian functions: 675
    Spherical Harmonics?: true
    Max angular momentum: 3

   => Loading Basis Set <=

    Name: (JUN-CC-PVTZ AUX)
    Role: JKFIT
    Keyword: DF_BASIS_SCF
    atoms 1-5, 16-19  entry C          line   152 file /home/r08543048/miniconda3/share/psi4/basis/jun-cc-pvtz-jkfit.gbs 
    atoms 6-15, 20-27 entry H          line    70 file /home/r08543048/miniconda3/share/psi4/basis/jun-cc-pvtz-jkfit.gbs 

  ==> Pre-Iterations <==

   -------------------------------------------------------
    Irrep   Nso     Nmo     Nalpha   Nbeta   Ndocc  Nsocc
   -------------------------------------------------------
     A        603     603       0       0       0       0
   -------------------------------------------------------
    Total     603     603      16      16      16       0
   -------------------------------------------------------

  ==> Integral Setup <==

  ==> DiskDFJK: Density-Fitted J/K Matrices <==

    J tasked:                  Yes
    K tasked:                  Yes
    wK tasked:                  No
    OpenMP threads:              1
    Integrals threads:           1
    Memory [MiB]:            15735
    Algorithm:                Core
    Integral Cache:           LOAD
    Schwarz Cutoff:          1E-12
    Fitting Condition:       1E-10

   => Auxiliary Basis Set <=

  Basis Set: (JUN-CC-PVTZ AUX)
    Blend: JUN-CC-PVTZ-JKFIT
    Number of shells: 441
    Number of basis function: 1395
    Number of Cartesian functions: 1674
    Spherical Harmonics?: true
    Max angular momentum: 4

  Minimum eigenvalue in the overlap matrix is 2.1969083050E-05.
  Using Symmetric Orthogonalization.

  SCF Guess: Superposition of Atomic Densities via on-the-fly atomic UHF.

  ==> Iterations <==

                           Total Energy        Delta E     RMS |[F,P]|

   @DF-RHF iter SAD:  -155.38388581913011   -1.55384e+02   0.00000e+00 
   @DF-RHF iter   1:  -155.99457801999057   -6.10692e-01   8.67312e-04 DIIS
   @DF-RHF iter   2:  -156.13450039538930   -1.39922e-01   3.83950e-04 DIIS
   @DF-RHF iter   3:  -156.16244442456832   -2.79440e-02   7.40536e-05 DIIS
   @DF-RHF iter   4:  -156.16428486292381   -1.84044e-03   2.74131e-05 DIIS
   @DF-RHF iter   5:  -156.16445237277244   -1.67510e-04   5.12544e-06 DIIS
   @DF-RHF iter   6:  -156.16446120727696   -8.83450e-06   9.29816e-07 DIIS
   @DF-RHF iter   7:  -156.16446155890776   -3.51631e-07   2.56173e-07 DIIS
   @DF-RHF iter   8:  -156.16446158578373   -2.68760e-08   7.64418e-08 DIIS
   @DF-RHF iter   9:  -156.16446158853674   -2.75301e-09   3.30728e-08 DIIS
   @DF-RHF iter  10:  -156.16446158909275   -5.56014e-10   1.04196e-08 DIIS
   @DF-RHF iter  11:  -156.16446158915559   -6.28404e-11   2.59481e-09 DIIS
  Energy and wave function converged.


  ==> Post-Iterations <==

    Orbital Energies [Eh]
    ---------------------

    Doubly Occupied:                                                      

       1A    -11.231419     2A    -11.224823     3A    -11.217702  
       4A    -11.214570     5A     -1.081055     6A     -0.988198  
       7A     -0.855754     8A     -0.756056     9A     -0.642816  
      10A     -0.606882    11A     -0.586081    12A     -0.535025  
      13A     -0.517201    14A     -0.486900    15A     -0.477129  
      16A     -0.357293  

    Virtual:                                                              

      17A      0.030256    18A      0.041071    19A      0.048265  
      20A      0.051718    21A      0.061717    22A      0.065501  
      23A      0.072198    24A      0.076484    25A      0.080029  
      26A      0.092375    27A      0.097839    28A      0.104638  
      29A      0.105891    30A      0.108246    31A      0.112203  
      32A      0.119218    33A      0.119800    34A      0.128987  
      35A      0.132285    36A      0.136570    37A      0.140617  
      38A      0.145991    39A      0.148822    40A      0.154794  
      41A      0.164093    42A      0.165760    43A      0.170029  
      44A      0.175842    45A      0.180246    46A      0.184610  
      47A      0.190843    48A      0.192833    49A      0.200858  
      50A      0.206351    51A      0.214058    52A      0.218906  
      53A      0.229812    54A      0.247613    55A      0.261764  
      56A      0.262725    57A      0.274275    58A      0.288916  
      59A      0.289479    60A      0.292503    61A      0.296593  
      62A      0.299587    63A      0.307502    64A      0.315414  
      65A      0.316439    66A      0.319843    67A      0.329299  
      68A      0.330365    69A      0.342165    70A      0.343944  
      71A      0.347923    72A      0.354659    73A      0.359133  
      74A      0.365382    75A      0.370319    76A      0.372125  
      77A      0.374582    78A      0.384484    79A      0.392474  
      80A      0.394202    81A      0.396280    82A      0.400126  
      83A      0.403818    84A      0.414173    85A      0.414472  
      86A      0.416219    87A      0.428885    88A      0.438834  
      89A      0.444365    90A      0.447099    91A      0.450587  
      92A      0.457098    93A      0.463733    94A      0.475388  
      95A      0.480356    96A      0.485745    97A      0.498873  
      98A      0.507748    99A      0.515490   100A      0.517754  
     101A      0.523486   102A      0.531129   103A      0.540761  
     104A      0.544624   105A      0.549351   106A      0.556102  
     107A      0.563566   108A      0.570709   109A      0.576694  
     110A      0.578591   111A      0.588333   112A      0.594902  
     113A      0.599710   114A      0.603926   115A      0.613001  
     116A      0.622382   117A      0.631019   118A      0.634541  
     119A      0.639064   120A      0.651294   121A      0.655624  
     122A      0.657234   123A      0.664962   124A      0.673012  
     125A      0.680060   126A      0.684819   127A      0.694469  
     128A      0.702399   129A      0.712729   130A      0.716179  
     131A      0.721480   132A      0.732049   133A      0.737160  
     134A      0.748835   135A      0.755594   136A      0.758044  
     137A      0.764277   138A      0.773746   139A      0.792126  
     140A      0.796810   141A      0.812084   142A      0.816931  
     143A      0.824298   144A      0.831960   145A      0.838041  
     146A      0.846697   147A      0.857229   148A      0.861254  
     149A      0.874134   150A      0.888681   151A      0.898322  
     152A      0.907882   153A      0.915363   154A      0.927458  
     155A      0.930667   156A      0.951014   157A      0.970849  
     158A      0.996141   159A      1.009494   160A      1.026828  
     161A      1.037517   162A      1.049834   163A      1.059912  
     164A      1.080355   165A      1.092853   166A      1.097004  
     167A      1.108149   168A      1.116048   169A      1.122847  
     170A      1.139573   171A      1.147118   172A      1.162688  
     173A      1.164523   174A      1.174046   175A      1.193614  
     176A      1.196241   177A      1.215793   178A      1.221261  
     179A      1.228542   180A      1.235115   181A      1.243729  
     182A      1.254427   183A      1.261685   184A      1.272069  
     185A      1.280348   186A      1.289869   187A      1.291873  
     188A      1.298537   189A      1.300578   190A      1.307516  
     191A      1.323801   192A      1.327539   193A      1.333066  
     194A      1.340952   195A      1.349894   196A      1.358856  
     197A      1.364227   198A      1.371273   199A      1.380144  
     200A      1.386184   201A      1.389843   202A      1.390643  
     203A      1.400003   204A      1.405951   205A      1.418048  
     206A      1.421847   207A      1.423574   208A      1.436064  
     209A      1.442336   210A      1.445796   211A      1.459332  
     212A      1.468068   213A      1.474928   214A      1.483943  
     215A      1.485866   216A      1.503659   217A      1.517659  
     218A      1.522123   219A      1.529771   220A      1.541252  
     221A      1.548524   222A      1.564209   223A      1.568130  
     224A      1.573693   225A      1.574968   226A      1.580303  
     227A      1.589826   228A      1.600768   229A      1.608986  
     230A      1.612575   231A      1.623744   232A      1.637087  
     233A      1.643187   234A      1.649555   235A      1.663459  
     236A      1.669281   237A      1.673567   238A      1.689244  
     239A      1.697977   240A      1.706846   241A      1.719622  
     242A      1.729383   243A      1.730896   244A      1.740152  
     245A      1.755570   246A      1.762961   247A      1.774926  
     248A      1.784391   249A      1.804625   250A      1.814115  
     251A      1.818563   252A      1.831607   253A      1.841412  
     254A      1.854818   255A      1.879242   256A      1.882090  
     257A      1.907957   258A      1.919310   259A      1.925935  
     260A      1.944387   261A      1.954688   262A      1.973946  
     263A      1.985161   264A      1.999171   265A      2.020108  
     266A      2.031878   267A      2.066009   268A      2.098691  
     269A      2.116822   270A      2.123012   271A      2.155248  
     272A      2.163250   273A      2.183978   274A      2.212788  
     275A      2.229901   276A      2.262763   277A      2.285037  
     278A      2.298214   279A      2.354284   280A      2.370664  
     281A      2.405195   282A      2.420719   283A      2.446661  
     284A      2.469431   285A      2.486543   286A      2.557143  
     287A      2.581485   288A      2.618539   289A      2.648226  
     290A      2.665228   291A      2.741820   292A      2.765451  
     293A      2.798294   294A      2.810886   295A      2.831661  
     296A      2.855371   297A      2.874659   298A      2.880767  
     299A      2.894692   300A      2.918899   301A      2.946002  
     302A      2.963005   303A      2.993799   304A      3.004933  
     305A      3.026587   306A      3.036158   307A      3.091119  
     308A      3.096005   309A      3.098647   310A      3.124830  
     311A      3.142091   312A      3.152499   313A      3.167533  
     314A      3.209744   315A      3.223643   316A      3.250986  
     317A      3.254457   318A      3.292319   319A      3.314584  
     320A      3.334718   321A      3.351038   322A      3.356167  
     323A      3.393914   324A      3.410488   325A      3.416987  
     326A      3.430397   327A      3.438985   328A      3.453072  
     329A      3.468706   330A      3.480095   331A      3.488909  
     332A      3.496253   333A      3.506017   334A      3.520248  
     335A      3.527907   336A      3.535307   337A      3.547240  
     338A      3.558669   339A      3.571114   340A      3.571475  
     341A      3.576796   342A      3.588929   343A      3.593957  
     344A      3.603474   345A      3.610685   346A      3.635304  
     347A      3.641180   348A      3.652718   349A      3.659600  
     350A      3.674994   351A      3.689719   352A      3.701447  
     353A      3.705667   354A      3.720993   355A      3.728111  
     356A      3.748722   357A      3.752190   358A      3.768224  
     359A      3.771945   360A      3.788466   361A      3.800483  
     362A      3.816671   363A      3.829853   364A      3.832613  
     365A      3.837358   366A      3.840907   367A      3.856962  
     368A      3.867484   369A      3.872238   370A      3.884455  
     371A      3.889912   372A      3.894695   373A      3.911155  
     374A      3.917052   375A      3.926376   376A      3.938264  
     377A      3.947554   378A      3.964644   379A      3.973896  
     380A      3.986052   381A      4.002977   382A      4.012843  
     383A      4.043806   384A      4.045870   385A      4.059957  
     386A      4.069692   387A      4.089335   388A      4.094933  
     389A      4.106462   390A      4.117806   391A      4.131276  
     392A      4.143252   393A      4.169767   394A      4.173733  
     395A      4.184368   396A      4.196846   397A      4.203142  
     398A      4.205531   399A      4.210974   400A      4.226478  
     401A      4.242385   402A      4.248398   403A      4.257062  
     404A      4.266102   405A      4.279015   406A      4.286718  
     407A      4.298419   408A      4.317845   409A      4.328026  
     410A      4.340920   411A      4.348690   412A      4.356202  
     413A      4.367864   414A      4.371897   415A      4.376294  
     416A      4.407853   417A      4.412299   418A      4.423209  
     419A      4.435491   420A      4.445507   421A      4.455606  
     422A      4.461954   423A      4.467068   424A      4.471861  
     425A      4.477639   426A      4.481820   427A      4.498569  
     428A      4.505074   429A      4.519082   430A      4.520803  
     431A      4.534115   432A      4.548657   433A      4.554466  
     434A      4.569247   435A      4.585469   436A      4.597687  
     437A      4.608961   438A      4.612169   439A      4.619220  
     440A      4.632153   441A      4.637078   442A      4.645326  
     443A      4.659346   444A      4.674374   445A      4.675936  
     446A      4.690014   447A      4.697229   448A      4.707112  
     449A      4.720329   450A      4.723804   451A      4.740477  
     452A      4.744681   453A      4.759828   454A      4.764704  
     455A      4.776566   456A      4.781979   457A      4.795423  
     458A      4.803568   459A      4.813586   460A      4.814539  
     461A      4.826269   462A      4.837581   463A      4.859305  
     464A      4.861359   465A      4.868523   466A      4.887518  
     467A      4.889897   468A      4.896520   469A      4.905159  
     470A      4.916014   471A      4.923701   472A      4.926989  
     473A      4.945214   474A      4.956190   475A      4.965366  
     476A      4.968245   477A      4.973313   478A      4.986484  
     479A      4.995250   480A      5.007965   481A      5.013435  
     482A      5.017965   483A      5.040267   484A      5.058844  
     485A      5.079872   486A      5.090857   487A      5.099660  
     488A      5.102972   489A      5.111719   490A      5.141632  
     491A      5.157292   492A      5.172808   493A      5.187538  
     494A      5.209310   495A      5.211290   496A      5.217039  
     497A      5.241826   498A      5.246383   499A      5.258302  
     500A      5.261638   501A      5.291086   502A      5.305874  
     503A      5.308582   504A      5.314911   505A      5.337501  
     506A      5.357096   507A      5.380797   508A      5.397295  
     509A      5.410680   510A      5.414777   511A      5.432837  
     512A      5.444326   513A      5.461162   514A      5.471297  
     515A      5.491876   516A      5.514541   517A      5.563226  
     518A      5.574050   519A      5.588715   520A      5.614648  
     521A      5.649359   522A      5.668834   523A      5.670040  
     524A      5.681437   525A      5.702533   526A      5.725864  
     527A      5.736373   528A      5.751552   529A      5.759827  
     530A      5.783212   531A      5.792643   532A      5.825013  
     533A      5.858080   534A      5.874242   535A      5.925814  
     536A      5.931350   537A      5.949055   538A      5.965589  
     539A      5.996684   540A      6.005645   541A      6.030409  
     542A      6.062290   543A      6.064518   544A      6.079953  
     545A      6.123321   546A      6.188888   547A      6.212330  
     548A      6.243068   549A      6.287538   550A      6.316415  
     551A      6.364564   552A      6.366942   553A      6.407510  
     554A      6.414750   555A      6.454048   556A      6.473302  
     557A      6.490751   558A      6.517844   559A      6.522302  
     560A      6.535526   561A      6.600060   562A      6.674428  
     563A      6.701429   564A      6.727762   565A      6.755155  
     566A      6.801902   567A      6.830315   568A      6.947500  
     569A      7.022164   570A      7.116697   571A      7.330295  
     572A      7.413382   573A      7.478987   574A      7.545896  
     575A      7.585341   576A      7.654586   577A      7.696379  
     578A      7.712340   579A      7.755182   580A      7.827057  
     581A      7.882586   582A      7.911643   583A      7.989258  
     584A      8.058646   585A      8.161885   586A      8.308791  
     587A      8.379081   588A      8.623074   589A      8.871668  
     590A      9.455642   591A      9.653039   592A      9.772946  
     593A      9.913126   594A     10.233345   595A     12.609243  
     596A     14.061639   597A     14.553807   598A     15.426375  
     599A     41.223350   600A     44.097395   601A     45.655319  
     602A     45.944584   603A     47.327370  

    Final Occupation by Irrep:
              A 
    DOCC [    16 ]

  @DF-RHF Final Energy:  -156.16446158915559

   => Energetics <=

    Nuclear Repulsion Energy =            117.4543454399480567
    One-Electron Energy =                -441.6798082634144293
    Two-Electron Energy =                 168.0610012343107940
    Total Energy =                       -156.1644615891555929

Computation Completed


Properties will be evaluated at   0.000000,   0.000000,   0.000000 [a0]

Properties computed using the SCF density matrix

  Nuclear Dipole Moment: [e a0]
     X:  -129.6608      Y:   -37.4329      Z:    -2.7243

  Electronic Dipole Moment: [e a0]
     X:   129.5834      Y:    37.5659      Z:     2.7996

  Dipole Moment: [e a0]
     X:    -0.0775      Y:     0.1330      Z:     0.0753     Total:     0.1713

  Dipole Moment: [D]
     X:    -0.1969      Y:     0.3380      Z:     0.1915     Total:     0.4355


*** tstop() called on r282 at Fri Sep 10 18:34:34 2021
Module time:
	user time   =      78.04 seconds =       1.30 minutes
	system time =       1.01 seconds =       0.02 minutes
	total time  =         79 seconds =       1.32 minutes
Total time:
	user time   =     271.70 seconds =       4.53 minutes
	system time =       4.43 seconds =       0.07 minutes
	total time  =        276 seconds =       4.60 minutes
  Constructing Basis Sets for SAPT...

   => Loading Basis Set <=

    Name: (JUN-CC-PVTZ AUX)
    Role: RIFIT
    Keyword: DF_BASIS_SAPT
    atoms 1-5, 16-19  entry C          line   132 file /home/r08543048/miniconda3/share/psi4/basis/jun-cc-pvtz-ri.gbs 
    atoms 6-15, 20-27 entry H          line    30 file /home/r08543048/miniconda3/share/psi4/basis/jun-cc-pvtz-ri.gbs 


  //>>>>>>>>>>>>>>>>>>>>>>>>>>>>>>>>>>>//
  //               SAPT0               //
  //<<<<<<<<<<<<<<<<<<<<<<<<<<<<<<<<<<<//


*** tstart() called on r282
*** at Fri Sep 10 18:34:35 2021

        SAPT0  
    Ed Hohenstein
     6 June 2009

      Orbital Information
  --------------------------
    NSO        =       603
    NMO        =       603
    NRI        =      1413
    NOCC A     =        20
    NOCC B     =        16
    FOCC A     =         0
    FOCC B     =         0
    NVIR A     =       583
    NVIR B     =       587

    Elst10,r            =    -0.003509883009 [Eh]
    Exch10              =     0.008633824656 [Eh]
    Exch10 (S^2)        =     0.008605832005 [Eh]

    Iter     Energy [mEh]          dE [mEh]         Residual      Time [s]
       1      -0.75030151       0.750301513       3.992615861             2
       2      -0.90234122       0.152039710       1.510985300             4
       3      -0.92330170       0.020960480       0.423051939             6
       4      -0.91933965      -0.003962057       0.164372669             8
       5      -0.91823987      -0.001099775       0.058611395             9
       6      -0.91857969       0.000339815       0.020953309            11
       7      -0.91872919       0.000149504       0.005516899            13
       8      -0.91868745      -0.000041739       0.001678092            15
       9      -0.91868195      -0.000005496       0.000393556            17
      10      -0.91868448       0.000002520       0.000096752            18
      11      -0.91868452       0.000000045       0.000022885            20
      12      -0.91868440      -0.000000124       0.000004758            22
      13      -0.91868441       0.000000012       0.000001269            24
      14      -0.91868441       0.000000003       0.000000371            25

    CHF Iterations converged


    Iter     Energy [mEh]          dE [mEh]         Residual      Time [s]
       1      -1.16021504       1.160215037       4.663376734             2
       2      -1.47859720       0.318382161       1.214961041             4
       3      -1.48172283       0.003125634       0.412263740             5
       4      -1.47583463      -0.005888206       0.114055744             7
       5      -1.47583699       0.000002368       0.034690839             9
       6      -1.47620248       0.000365484       0.009102332            11
       7      -1.47622488       0.000022405       0.002544161            12
       8      -1.47619997      -0.000024910       0.000582463            14
       9      -1.47620335       0.000003376       0.000157679            16
      10      -1.47620369       0.000000342       0.000052124            17
      11      -1.47620347      -0.000000218       0.000015493            19
      12      -1.47620346      -0.000000015       0.000004400            21
      13      -1.47620348       0.000000020       0.000001075            22
      14      -1.47620348      -0.000000002       0.000000276            24

    CHF Iterations converged

    Ind20,r (A<-B)      =    -0.000918684411 [Eh]
    Ind20,r (B<-A)      =    -0.001476203476 [Eh]
    Ind20,r             =    -0.002394887887 [Eh]
    Exch-Ind20,r (A<-B) =     0.000762798752 [Eh]
    Exch-Ind20,r (B<-A) =     0.001395426422 [Eh]
    Exch-Ind20,r        =     0.002158225175 [Eh]
    Disp20              =    -0.010518280686 [Eh]
    Disp20 (SS)         =    -0.005259140343 [Eh]
    Disp20 (OS)         =    -0.005259140343 [Eh]
    Exch-Disp20         =     0.001091443935 [Eh]
    Exch-Disp20 (SS)    =     0.000705139168 [Eh]
    Exch-Disp20 (OS)    =     0.000386304766 [Eh]

    SAPT Results 
  --------------------------------------------------------------------------------------------------------
    Electrostatics                 -3.50988301 [mEh]      -2.20248484 [kcal/mol]      -9.21519657 [kJ/mol]
      Elst10,r                     -3.50988301 [mEh]      -2.20248484 [kcal/mol]      -9.21519657 [kJ/mol]

    Exchange                        8.63382466 [mEh]       5.41780677 [kcal/mol]      22.66810351 [kJ/mol]
      Exch10                        8.63382466 [mEh]       5.41780677 [kcal/mol]      22.66810351 [kJ/mol]
      Exch10(S^2)                   8.60583201 [mEh]       5.40024111 [kcal/mol]      22.59460882 [kJ/mol]

    Induction                      -0.94503079 [mEh]      -0.59301577 [kcal/mol]      -2.48117800 [kJ/mol]
      Ind20,r                      -2.39488789 [mEh]      -1.50281484 [kcal/mol]      -6.28777728 [kJ/mol]
      Exch-Ind20,r                  2.15822517 [mEh]       1.35430674 [kcal/mol]       5.66641942 [kJ/mol]
      delta HF,r (2)               -0.70836808 [mEh]      -0.44450768 [kcal/mol]      -1.85982014 [kJ/mol]

    Dispersion                     -9.42683675 [mEh]      -5.91542937 [kcal/mol]     -24.75015648 [kJ/mol]
      Disp20                      -10.51828069 [mEh]      -6.60032078 [kcal/mol]     -27.61574214 [kJ/mol]
      Exch-Disp20                   1.09144393 [mEh]       0.68489141 [kcal/mol]       2.86558566 [kJ/mol]
      Disp20 (SS)                  -5.25914034 [mEh]      -3.30016039 [kcal/mol]     -13.80787107 [kJ/mol]
      Disp20 (OS)                  -5.25914034 [mEh]      -3.30016039 [kcal/mol]     -13.80787107 [kJ/mol]
      Exch-Disp20 (SS)              0.70513917 [mEh]       0.44248151 [kcal/mol]       1.85134263 [kJ/mol]
      Exch-Disp20 (OS)              0.38630477 [mEh]       0.24240990 [kcal/mol]       1.01424302 [kJ/mol]

  Total HF                          4.17891086 [mEh]       2.62230615 [kcal/mol]      10.97172894 [kJ/mol]
  Total SAPT0                      -5.24792590 [mEh]      -3.29312322 [kcal/mol]     -13.77842754 [kJ/mol]

  Special recipe for scaled SAPT0 (see Manual):
    Electrostatics sSAPT0          -3.50988301 [mEh]      -2.20248484 [kcal/mol]      -9.21519657 [kJ/mol]
    Exchange sSAPT0                 8.63382466 [mEh]       5.41780677 [kcal/mol]      22.66810351 [kJ/mol]
    Induction sSAPT0               -0.92390169 [mEh]      -0.57975706 [kcal/mol]      -2.42570355 [kJ/mol]
    Dispersion sSAPT0              -9.41615148 [mEh]      -5.90872426 [kcal/mol]     -24.72210229 [kJ/mol]
  Total sSAPT0                     -5.21611152 [mEh]      -3.27315939 [kcal/mol]     -13.69489890 [kJ/mol]
  --------------------------------------------------------------------------------------------------------

*** tstop() called on r282 at Fri Sep 10 18:38:25 2021
Module time:
	user time   =     199.46 seconds =       3.32 minutes
	system time =      30.24 seconds =       0.50 minutes
	total time  =        230 seconds =       3.83 minutes
Total time:
	user time   =     471.35 seconds =       7.86 minutes
	system time =      34.67 seconds =       0.58 minutes
	total time  =        507 seconds =       8.45 minutes

    Psi4 stopped on: Friday, 10 September 2021 06:38PM
    Psi4 wall time for execution: 0:08:26.61

*** Psi4 exiting successfully. Buy a developer a beer!
