
    -----------------------------------------------------------------------
          Psi4: An Open-Source Ab Initio Electronic Structure Package
                               Psi4 1.3.2 release

                         Git: Rev {HEAD} ecbda83 


    R. M. Parrish, L. A. Burns, D. G. A. Smith, A. C. Simmonett,
    A. E. DePrince III, E. G. Hohenstein, U. Bozkaya, A. Yu. Sokolov,
    R. Di Remigio, R. M. Richard, J. F. Gonthier, A. M. James,
    H. R. McAlexander, A. Kumar, M. Saitow, X. Wang, B. P. Pritchard,
    P. Verma, H. F. Schaefer III, K. Patkowski, R. A. King, E. F. Valeev,
    F. A. Evangelista, J. M. Turney, T. D. Crawford, and C. D. Sherrill,
    J. Chem. Theory Comput. 13(7) pp 3185--3197 (2017).
    (doi: 10.1021/acs.jctc.7b00174)


                         Additional Contributions by
    P. Kraus, H. Kruse, M. H. Lechner, M. C. Schieber, R. A. Shaw,
    A. Alenaizan, R. Galvelis, Z. L. Glick, S. Lehtola, and J. P. Misiewicz

    -----------------------------------------------------------------------


    Psi4 started on: Thursday, 09 September 2021 12:01PM

    Process ID: 53953
    Host:       r282
    PSIDATADIR: /home/r08543048/miniconda3/share/psi4
    Memory:     500.0 MiB
    Threads:    1
    
  ==> Input File <==

--------------------------------------------------------------------------
# Any line starting with the # character is a comment line
#! Sample  computation

memory 22 gb

molecule Dimer {
 
0 1                               
 C    -2.53245500   -1.52880600   -1.22291800
 C    -2.67901000   -0.23705100   -0.91403700
 C    -2.20015600    0.39398200    0.35348800
 C    -1.19624000    1.51917700    0.09719700
 C    -0.72064700    2.16389300    1.39276000
 H    -2.05624300   -2.21540200   -0.53369600
 H    -2.88635400   -1.92746300   -2.16348700
 H    -3.16027800    0.42195400   -1.63164300
 H    -3.05176300    0.80649300    0.90464900
 H    -1.74577800   -0.36850000    0.99217400
 H    -0.34527400    1.12117000   -0.46011500
 H    -1.66056400    2.27350700   -0.54347600
 H    -1.55769900    2.60162700    1.93858800
 H    -0.25197500    1.42461500    2.04444200
 H     0.00644200    2.95426500    1.20534600








 
 --
0 1
 C     2.53314400    1.52800500   -1.22339100
 C     2.67998300    0.23663900   -0.91302700
 C     2.19966000   -0.39346900    0.35439100
 C     1.19638200   -1.51913500    0.09765500
 C     0.71959400   -2.16332000    1.39303500
 H     2.05562200    2.21503500   -0.53550500
 H     2.88811700    1.92590100   -2.16387500
 H     3.16260400   -0.42282000   -1.62931200
 H     3.05064800   -0.80544100    0.90691400
 H     1.74433000    0.36939300    0.99193000
 H     0.34582900   -1.12183400   -0.46080000
 H     1.66171000   -2.27361600   -0.54212800
 H     1.55618800   -2.60039900    1.94008900
 H     0.24984900   -1.42388300    2.04377200
 H    -0.00694600   -2.95409900    1.20521900








 
 
 
units angstrom

no_reorient
symmetry c1
}

set globals{
  basis jun-cc-pVTZ
  scf_type DF 
  freeze_core True
}

energy('sapt0')


--------------------------------------------------------------------------

  Memory set to  20.489 GiB by Python driver.

  //>>>>>>>>>>>>>>>>>>>>>>>>>>>>>>>>>>>//
  //              Dimer HF             //
  //<<<<<<<<<<<<<<<<<<<<<<<<<<<<<<<<<<<//


*** tstart() called on r282
*** at Thu Sep  9 12:01:49 2021

   => Loading Basis Set <=

    Name: JUN-CC-PVTZ
    Role: ORBITAL
    Keyword: BASIS
    atoms 1-5, 16-20  entry C          line   217 file /home/r08543048/miniconda3/share/psi4/basis/jun-cc-pvtz.gbs 
    atoms 6-15, 21-30 entry H          line    36 file /home/r08543048/miniconda3/share/psi4/basis/jun-cc-pvtz.gbs 


         ---------------------------------------------------------
                                   SCF
               by Justin Turney, Rob Parrish, Andy Simmonett
                          and Daniel G. A. Smith
                              RHF Reference
                        1 Threads,  20980 MiB Core
         ---------------------------------------------------------

  ==> Geometry <==

    Molecular point group: c1
    Full point group: C1

    Geometry (in Angstrom), charge = 0, multiplicity = 1:

       Center              X                  Y                   Z               Mass       
    ------------   -----------------  -----------------  -----------------  -----------------
         C           -2.532465794994    -1.528802339349    -1.198077059530    12.000000000000
         C           -2.679020794994    -0.237047339349    -0.889196059530    12.000000000000
         C           -2.200166794994     0.393985660651     0.378328940470    12.000000000000
         C           -1.196250794994     1.519180660651     0.122037940470    12.000000000000
         C           -0.720657794994     2.163896660651     1.417600940470    12.000000000000
         H           -2.056253794994    -2.215398339349    -0.508855059530     1.007825032230
         H           -2.886364794994    -1.927459339349    -2.138646059530     1.007825032230
         H           -3.160288794994     0.421957660651    -1.606802059530     1.007825032230
         H           -3.051773794994     0.806496660651     0.929489940470     1.007825032230
         H           -1.745788794994    -0.368496339349     1.017014940470     1.007825032230
         H           -0.345284794994     1.121173660651    -0.435274059530     1.007825032230
         H           -1.660574794994     2.273510660651    -0.518635059530     1.007825032230
         H           -1.557709794994     2.601630660651     1.963428940470     1.007825032230
         H           -0.251985794994     1.424618660651     2.069282940470     1.007825032230
         H            0.006431205006     2.954268660651     1.230186940470     1.007825032230
         C            2.533133205006     1.528008660651    -1.198550059530    12.000000000000
         C            2.679972205006     0.236642660651    -0.888186059530    12.000000000000
         C            2.199649205006    -0.393465339349     0.379231940470    12.000000000000
         C            1.196371205006    -1.519131339349     0.122495940470    12.000000000000
         C            0.719583205006    -2.163316339349     1.417875940470    12.000000000000
         H            2.055611205006     2.215038660651    -0.510664059530     1.007825032230
         H            2.888106205006     1.925904660651    -2.139034059530     1.007825032230
         H            3.162593205006    -0.422816339349    -1.604471059530     1.007825032230
         H            3.050637205006    -0.805437339349     0.931754940470     1.007825032230
         H            1.744319205006     0.369396660651     1.016770940470     1.007825032230
         H            0.345818205006    -1.121830339349    -0.435959059530     1.007825032230
         H            1.661699205006    -2.273612339349    -0.517287059530     1.007825032230
         H            1.556177205006    -2.600395339349     1.964929940470     1.007825032230
         H            0.249838205006    -1.423879339349     2.068612940470     1.007825032230
         H           -0.006956794994    -2.954095339349     1.230059940470     1.007825032230

  Running in c1 symmetry.

  Rotational constants: A =      0.03822  B =      0.02358  C =      0.01945 [cm^-1]
  Rotational constants: A =   1145.91336  B =    706.77399  C =    582.99869 [MHz]
  Nuclear repulsion =  529.337563753501172

  Charge       = 0
  Multiplicity = 1
  Electrons    = 80
  Nalpha       = 40
  Nbeta        = 40

  ==> Algorithm <==

  SCF Algorithm Type is DF.
  DIIS enabled.
  MOM disabled.
  Fractional occupation disabled.
  Guess Type is SAD.
  Energy threshold   = 1.00e-08
  Density threshold  = 1.00e-08
  Integral threshold = 0.00e+00

  ==> Primary Basis <==

  Basis Set: JUN-CC-PVTZ
    Blend: JUN-CC-PVTZ
    Number of shells: 250
    Number of basis function: 670
    Number of Cartesian functions: 750
    Spherical Harmonics?: true
    Max angular momentum: 3

   => Loading Basis Set <=

    Name: (JUN-CC-PVTZ AUX)
    Role: JKFIT
    Keyword: DF_BASIS_SCF
    atoms 1-5, 16-20  entry C          line   152 file /home/r08543048/miniconda3/share/psi4/basis/jun-cc-pvtz-jkfit.gbs 
    atoms 6-15, 21-30 entry H          line    70 file /home/r08543048/miniconda3/share/psi4/basis/jun-cc-pvtz-jkfit.gbs 

  ==> Pre-Iterations <==

   -------------------------------------------------------
    Irrep   Nso     Nmo     Nalpha   Nbeta   Ndocc  Nsocc
   -------------------------------------------------------
     A        670     670       0       0       0       0
   -------------------------------------------------------
    Total     670     670      40      40      40       0
   -------------------------------------------------------

  ==> Integral Setup <==

  ==> DiskDFJK: Density-Fitted J/K Matrices <==

    J tasked:                  Yes
    K tasked:                  Yes
    wK tasked:                  No
    OpenMP threads:              1
    Integrals threads:           1
    Memory [MiB]:            15735
    Algorithm:                Core
    Integral Cache:           SAVE
    Schwarz Cutoff:          1E-12
    Fitting Condition:       1E-10

   => Auxiliary Basis Set <=

  Basis Set: (JUN-CC-PVTZ AUX)
    Blend: JUN-CC-PVTZ-JKFIT
    Number of shells: 490
    Number of basis function: 1550
    Number of Cartesian functions: 1860
    Spherical Harmonics?: true
    Max angular momentum: 4

  Minimum eigenvalue in the overlap matrix is 2.7091087018E-05.
  Using Symmetric Orthogonalization.

  SCF Guess: Superposition of Atomic Densities via on-the-fly atomic UHF.

  ==> Iterations <==

                           Total Energy        Delta E     RMS |[F,P]|

   @DF-RHF iter SAD:  -389.12605212159252   -3.89126e+02   0.00000e+00 
   @DF-RHF iter   1:  -389.99544559709784   -8.69393e-01   1.22313e-03 DIIS
   @DF-RHF iter   2:  -390.34607499206209   -3.50629e-01   5.38783e-04 DIIS
   @DF-RHF iter   3:  -390.41471520213156   -6.86402e-02   1.07683e-04 DIIS
   @DF-RHF iter   4:  -390.41954111817262   -4.82592e-03   3.53319e-05 DIIS
   @DF-RHF iter   5:  -390.41989514431538   -3.54026e-04   7.38482e-06 DIIS
   @DF-RHF iter   6:  -390.41991600720888   -2.08629e-05   1.93758e-06 DIIS
   @DF-RHF iter   7:  -390.41991734515773   -1.33795e-06   4.61383e-07 DIIS
   @DF-RHF iter   8:  -390.41991743828601   -9.31283e-08   1.18641e-07 DIIS
   @DF-RHF iter   9:  -390.41991744595919   -7.67318e-09   4.77470e-08 DIIS
   @DF-RHF iter  10:  -390.41991744737635   -1.41716e-09   1.70462e-08 DIIS
   @DF-RHF iter  11:  -390.41991744759798   -2.21632e-10   4.97254e-09 DIIS
  Energy and wave function converged.


  ==> Post-Iterations <==

    Orbital Energies [Eh]
    ---------------------

    Doubly Occupied:                                                      

       1A    -11.230518     2A    -11.230516     3A    -11.221483  
       4A    -11.221478     5A    -11.217670     6A    -11.217663  
       7A    -11.216854     8A    -11.216851     9A    -11.212850  
      10A    -11.212845    11A     -1.091441    12A     -1.087632  
      13A     -1.022985    14A     -1.021799    15A     -0.923417  
      16A     -0.922719    17A     -0.814088    18A     -0.809533  
      19A     -0.758244    20A     -0.756093    21A     -0.659551  
      22A     -0.643432    23A     -0.621206    24A     -0.612521  
      25A     -0.591959    26A     -0.588580    27A     -0.571143  
      28A     -0.564609    29A     -0.541099    30A     -0.536559  
      31A     -0.513375    32A     -0.508760    33A     -0.484085  
      34A     -0.483235    35A     -0.476246    36A     -0.472857  
      37A     -0.470420    38A     -0.464237    39A     -0.358152  
      40A     -0.353525  

    Virtual:                                                              

      41A      0.046039    42A      0.050195    43A      0.052215  
      44A      0.058395    45A      0.066722    46A      0.067171  
      47A      0.071507    48A      0.072809    49A      0.083588  
      50A      0.091081    51A      0.096770    52A      0.104056  
      53A      0.104771    54A      0.110241    55A      0.117666  
      56A      0.118321    57A      0.125503    58A      0.130761  
      59A      0.137588    60A      0.140951    61A      0.143916  
      62A      0.147331    63A      0.152947    64A      0.155072  
      65A      0.158243    66A      0.171745    67A      0.175894  
      68A      0.179833    69A      0.181850    70A      0.185170  
      71A      0.190620    72A      0.191752    73A      0.197489  
      74A      0.201829    75A      0.202565    76A      0.204965  
      77A      0.210255    78A      0.218406    79A      0.218724  
      80A      0.227734    81A      0.228561    82A      0.245186  
      83A      0.251223    84A      0.263807    85A      0.266751  
      86A      0.277338    87A      0.277529    88A      0.292967  
      89A      0.296369    90A      0.310219    91A      0.313713  
      92A      0.313921    93A      0.319000    94A      0.321818  
      95A      0.330366    96A      0.334547    97A      0.336437  
      98A      0.336659    99A      0.341682   100A      0.350023  
     101A      0.352671   102A      0.355204   103A      0.357706  
     104A      0.366938   105A      0.369801   106A      0.373691  
     107A      0.377435   108A      0.383164   109A      0.388934  
     110A      0.391816   111A      0.406928   112A      0.408043  
     113A      0.412075   114A      0.413320   115A      0.417474  
     116A      0.418275   117A      0.427150   118A      0.429982  
     119A      0.436258   120A      0.447300   121A      0.453534  
     122A      0.453565   123A      0.454832   124A      0.458730  
     125A      0.463413   126A      0.474111   127A      0.477544  
     128A      0.492455   129A      0.493387   130A      0.501200  
     131A      0.501918   132A      0.517818   133A      0.520882  
     134A      0.521655   135A      0.523989   136A      0.534578  
     137A      0.543579   138A      0.547597   139A      0.551617  
     140A      0.553483   141A      0.559772   142A      0.565036  
     143A      0.571146   144A      0.573065   145A      0.578510  
     146A      0.585573   147A      0.591556   148A      0.595107  
     149A      0.603278   150A      0.607621   151A      0.610467  
     152A      0.613567   153A      0.617430   154A      0.628576  
     155A      0.634235   156A      0.645911   157A      0.648375  
     158A      0.663135   159A      0.672064   160A      0.677196  
     161A      0.693857   162A      0.709265   163A      0.709618  
     164A      0.713400   165A      0.729120   166A      0.732879  
     167A      0.736298   168A      0.754591   169A      0.763222  
     170A      0.763638   171A      0.777366   172A      0.777600  
     173A      0.793596   174A      0.795704   175A      0.798763  
     176A      0.814627   177A      0.819689   178A      0.821815  
     179A      0.824794   180A      0.833821   181A      0.835343  
     182A      0.839694   183A      0.850238   184A      0.855534  
     185A      0.856794   186A      0.863106   187A      0.867085  
     188A      0.877421   189A      0.887150   190A      0.889966  
     191A      0.897341   192A      0.898893   193A      0.902901  
     194A      0.914293   195A      0.927513   196A      0.928701  
     197A      0.933901   198A      0.942973   199A      0.947184  
     200A      0.949490   201A      0.960609   202A      0.965479  
     203A      0.982403   204A      0.983779   205A      0.987972  
     206A      0.990759   207A      1.023327   208A      1.024861  
     209A      1.032406   210A      1.053834   211A      1.055672  
     212A      1.058451   213A      1.063294   214A      1.066744  
     215A      1.066967   216A      1.085698   217A      1.096661  
     218A      1.101815   219A      1.104391   220A      1.127066  
     221A      1.136591   222A      1.146038   223A      1.151541  
     224A      1.155830   225A      1.164385   226A      1.176417  
     227A      1.184544   228A      1.191975   229A      1.197166  
     230A      1.218442   231A      1.236458   232A      1.242569  
     233A      1.253483   234A      1.260790   235A      1.269458  
     236A      1.272305   237A      1.280222   238A      1.293360  
     239A      1.297651   240A      1.321285   241A      1.324455  
     242A      1.326875   243A      1.333159   244A      1.340555  
     245A      1.345938   246A      1.353730   247A      1.361583  
     248A      1.367407   249A      1.373664   250A      1.385635  
     251A      1.396451   252A      1.403575   253A      1.411419  
     254A      1.413003   255A      1.431844   256A      1.433629  
     257A      1.445698   258A      1.456709   259A      1.457519  
     260A      1.461014   261A      1.472917   262A      1.477816  
     263A      1.499243   264A      1.512552   265A      1.515011  
     266A      1.525326   267A      1.541157   268A      1.552360  
     269A      1.552903   270A      1.563682   271A      1.567567  
     272A      1.568817   273A      1.589011   274A      1.591697  
     275A      1.595652   276A      1.602955   277A      1.612820  
     278A      1.615874   279A      1.617595   280A      1.622424  
     281A      1.629975   282A      1.635783   283A      1.647137  
     284A      1.655195   285A      1.672371   286A      1.681210  
     287A      1.685308   288A      1.690673   289A      1.691293  
     290A      1.705079   291A      1.711758   292A      1.721483  
     293A      1.739042   294A      1.750145   295A      1.759177  
     296A      1.764227   297A      1.774664   298A      1.783725  
     299A      1.796052   300A      1.798897   301A      1.815904  
     302A      1.817828   303A      1.825130   304A      1.825471  
     305A      1.853493   306A      1.880298   307A      1.898934  
     308A      1.903273   309A      1.907270   310A      1.907926  
     311A      1.924250   312A      1.951143   313A      1.953054  
     314A      1.966542   315A      1.987362   316A      1.999061  
     317A      2.006046   318A      2.007625   319A      2.014981  
     320A      2.043182   321A      2.052436   322A      2.056198  
     323A      2.110355   324A      2.131074   325A      2.151135  
     326A      2.154499   327A      2.196114   328A      2.210359  
     329A      2.284540   330A      2.291770   331A      2.667746  
     332A      2.696094   333A      2.759773   334A      2.772401  
     335A      2.775503   336A      2.788921   337A      2.804292  
     338A      2.809105   339A      2.824325   340A      2.827680  
     341A      2.837691   342A      2.850466   343A      2.856257  
     344A      2.865079   345A      2.867223   346A      2.868663  
     347A      2.880008   348A      2.890919   349A      2.901413  
     350A      2.908449   351A      2.913590   352A      2.933446  
     353A      2.934439   354A      2.958052   355A      2.968423  
     356A      2.974100   357A      2.986449   358A      2.993858  
     359A      3.003447   360A      3.013176   361A      3.022198  
     362A      3.033905   363A      3.038326   364A      3.051289  
     365A      3.066872   366A      3.076879   367A      3.087566  
     368A      3.089895   369A      3.100220   370A      3.117354  
     371A      3.133839   372A      3.147089   373A      3.147838  
     374A      3.159175   375A      3.163289   376A      3.176572  
     377A      3.177950   378A      3.181790   379A      3.195472  
     380A      3.200421   381A      3.211993   382A      3.215921  
     383A      3.217452   384A      3.234053   385A      3.245940  
     386A      3.248362   387A      3.262403   388A      3.274705  
     389A      3.275985   390A      3.277246   391A      3.283912  
     392A      3.301264   393A      3.309472   394A      3.310077  
     395A      3.328710   396A      3.337774   397A      3.346685  
     398A      3.350456   399A      3.356350   400A      3.358142  
     401A      3.379066   402A      3.379304   403A      3.388898  
     404A      3.402406   405A      3.403458   406A      3.404220  
     407A      3.409671   408A      3.419400   409A      3.423825  
     410A      3.426695   411A      3.445198   412A      3.452459  
     413A      3.457208   414A      3.461690   415A      3.473743  
     416A      3.484908   417A      3.489853   418A      3.501467  
     419A      3.507133   420A      3.512571   421A      3.515590  
     422A      3.519686   423A      3.524376   424A      3.532923  
     425A      3.538482   426A      3.554582   427A      3.557717  
     428A      3.568364   429A      3.569281   430A      3.573085  
     431A      3.582279   432A      3.586460   433A      3.591449  
     434A      3.593790   435A      3.603225   436A      3.609329  
     437A      3.617937   438A      3.621246   439A      3.632137  
     440A      3.632935   441A      3.649825   442A      3.658768  
     443A      3.674964   444A      3.679247   445A      3.683076  
     446A      3.713158   447A      3.717292   448A      3.739625  
     449A      3.753781   450A      3.755160   451A      3.767321  
     452A      3.773287   453A      3.779502   454A      3.783574  
     455A      3.792197   456A      3.811307   457A      3.818429  
     458A      3.819152   459A      3.833800   460A      3.849888  
     461A      3.852634   462A      3.855703   463A      3.866992  
     464A      3.867128   465A      3.889983   466A      3.905708  
     467A      3.907444   468A      3.930792   469A      3.945514  
     470A      3.958593   471A      3.959048   472A      3.973561  
     473A      3.976352   474A      3.989480   475A      3.994103  
     476A      3.999364   477A      4.006540   478A      4.034272  
     479A      4.035313   480A      4.046526   481A      4.048798  
     482A      4.053045   483A      4.060718   484A      4.088723  
     485A      4.100550   486A      4.107923   487A      4.119060  
     488A      4.160359   489A      4.167990   490A      4.170151  
     491A      4.187804   492A      4.192581   493A      4.193938  
     494A      4.216170   495A      4.219918   496A      4.231953  
     497A      4.233969   498A      4.241661   499A      4.249707  
     500A      4.272159   501A      4.276697   502A      4.280284  
     503A      4.288991   504A      4.290558   505A      4.304594  
     506A      4.313101   507A      4.331652   508A      4.349486  
     509A      4.354785   510A      4.363468   511A      4.366741  
     512A      4.373045   513A      4.375136   514A      4.382035  
     515A      4.395368   516A      4.397487   517A      4.406184  
     518A      4.408244   519A      4.411920   520A      4.418826  
     521A      4.438174   522A      4.444456   523A      4.455425  
     524A      4.469810   525A      4.470141   526A      4.474158  
     527A      4.479297   528A      4.486963   529A      4.498269  
     530A      4.499305   531A      4.510248   532A      4.521095  
     533A      4.535661   534A      4.537867   535A      4.543374  
     536A      4.556228   537A      4.557679   538A      4.571617  
     539A      4.576950   540A      4.592372   541A      4.600127  
     542A      4.611170   543A      4.629695   544A      4.645890  
     545A      4.654964   546A      4.656022   547A      4.665593  
     548A      4.687498   549A      4.691411   550A      4.706716  
     551A      4.716487   552A      4.731401   553A      4.747164  
     554A      4.752985   555A      4.771635   556A      4.784144  
     557A      4.790822   558A      4.792514   559A      4.806942  
     560A      4.828596   561A      4.839226   562A      4.841746  
     563A      4.886136   564A      4.889805   565A      4.901742  
     566A      4.909718   567A      4.911617   568A      4.932436  
     569A      4.964590   570A      4.974983   571A      5.005721  
     572A      5.012137   573A      5.024574   574A      5.038117  
     575A      5.040080   576A      5.046285   577A      5.077297  
     578A      5.087221   579A      5.133503   580A      5.141836  
     581A      5.163147   582A      5.164057   583A      5.184801  
     584A      5.192545   585A      5.195083   586A      5.218188  
     587A      5.231089   588A      5.252560   589A      5.261396  
     590A      5.267530   591A      5.291985   592A      5.295392  
     593A      5.295564   594A      5.310540   595A      5.311653  
     596A      5.326040   597A      5.341475   598A      5.360637  
     599A      5.368602   600A      5.383980   601A      5.397512  
     602A      5.408107   603A      5.434735   604A      5.437393  
     605A      5.453957   606A      5.460197   607A      5.468630  
     608A      5.475566   609A      5.488609   610A      5.509827  
     611A      5.522928   612A      5.527048   613A      5.574711  
     614A      5.579305   615A      5.606431   616A      5.619250  
     617A      5.638043   618A      5.641961   619A      5.654090  
     620A      5.665923   621A      5.710636   622A      5.730847  
     623A      5.754120   624A      5.776479   625A      5.784322  
     626A      5.794369   627A      5.802091   628A      5.822018  
     629A      5.847647   630A      5.851418   631A      5.881943  
     632A      5.883803   633A      5.922123   634A      5.943114  
     635A      5.947590   636A      5.953669   637A      5.956100  
     638A      5.957887   639A      6.006689   640A      6.006982  
     641A      6.029112   642A      6.042148   643A      6.148987  
     644A      6.156408   645A      6.239327   646A      6.240987  
     647A      6.410430   648A      6.412589   649A      6.488908  
     650A      6.503089   651A      6.525140   652A      6.537342  
     653A      6.556003   654A      6.571024   655A      6.595743  
     656A      6.644433   657A      6.654741   658A      6.693785  
     659A      6.724043   660A      6.724418   661A     12.336770  
     662A     12.359368   663A     13.793889   664A     14.079591  
     665A     14.426961   666A     14.588868   667A     14.662844  
     668A     14.669199   669A     15.394090   670A     15.400436  

    Final Occupation by Irrep:
              A 
    DOCC [    40 ]

  @DF-RHF Final Energy:  -390.41991744759798

   => Energetics <=

    Nuclear Repulsion Energy =            529.3375637535011720
    One-Electron Energy =               -1575.6705021169107113
    Two-Electron Energy =                 655.9130209158115576
    Total Energy =                       -390.4199174475979817

Computation Completed


Properties will be evaluated at   0.000000,   0.000000,   0.000000 [a0]

Properties computed using the SCF density matrix

  Nuclear Dipole Moment: [e a0]
     X:    -0.0016      Y:     0.0005      Z:     3.7554

  Electronic Dipole Moment: [e a0]
     X:     0.0015      Y:    -0.0005      Z:    -3.6533

  Dipole Moment: [e a0]
     X:    -0.0001      Y:     0.0000      Z:     0.1021     Total:     0.1021

  Dipole Moment: [D]
     X:    -0.0003      Y:     0.0000      Z:     0.2596     Total:     0.2596


*** tstop() called on r282 at Thu Sep  9 12:05:06 2021
Module time:
	user time   =     194.11 seconds =       3.24 minutes
	system time =       3.15 seconds =       0.05 minutes
	total time  =        197 seconds =       3.28 minutes
Total time:
	user time   =     194.11 seconds =       3.24 minutes
	system time =       3.15 seconds =       0.05 minutes
	total time  =        197 seconds =       3.28 minutes

  //>>>>>>>>>>>>>>>>>>>>>>>>>>>>>>>>>>>//
  //            Monomer A HF           //
  //<<<<<<<<<<<<<<<<<<<<<<<<<<<<<<<<<<<//


*** tstart() called on r282
*** at Thu Sep  9 12:05:06 2021

   => Loading Basis Set <=

    Name: JUN-CC-PVTZ
    Role: ORBITAL
    Keyword: BASIS
    atoms 1-5, 16-20  entry C          line   217 file /home/r08543048/miniconda3/share/psi4/basis/jun-cc-pvtz.gbs 
    atoms 6-15, 21-30 entry H          line    36 file /home/r08543048/miniconda3/share/psi4/basis/jun-cc-pvtz.gbs 


         ---------------------------------------------------------
                                   SCF
               by Justin Turney, Rob Parrish, Andy Simmonett
                          and Daniel G. A. Smith
                              RHF Reference
                        1 Threads,  20980 MiB Core
         ---------------------------------------------------------

  ==> Geometry <==

    Molecular point group: c1
    Full point group: C1

    Geometry (in Angstrom), charge = 0, multiplicity = 1:

       Center              X                  Y                   Z               Mass       
    ------------   -----------------  -----------------  -----------------  -----------------
         C           -2.532465794994    -1.528802339349    -1.198077059530    12.000000000000
         C           -2.679020794994    -0.237047339349    -0.889196059530    12.000000000000
         C           -2.200166794994     0.393985660651     0.378328940470    12.000000000000
         C           -1.196250794994     1.519180660651     0.122037940470    12.000000000000
         C           -0.720657794994     2.163896660651     1.417600940470    12.000000000000
         H           -2.056253794994    -2.215398339349    -0.508855059530     1.007825032230
         H           -2.886364794994    -1.927459339349    -2.138646059530     1.007825032230
         H           -3.160288794994     0.421957660651    -1.606802059530     1.007825032230
         H           -3.051773794994     0.806496660651     0.929489940470     1.007825032230
         H           -1.745788794994    -0.368496339349     1.017014940470     1.007825032230
         H           -0.345284794994     1.121173660651    -0.435274059530     1.007825032230
         H           -1.660574794994     2.273510660651    -0.518635059530     1.007825032230
         H           -1.557709794994     2.601630660651     1.963428940470     1.007825032230
         H           -0.251985794994     1.424618660651     2.069282940470     1.007825032230
         H            0.006431205006     2.954268660651     1.230186940470     1.007825032230
      Gh(C)           2.533133205006     1.528008660651    -1.198550059530    12.000000000000
      Gh(C)           2.679972205006     0.236642660651    -0.888186059530    12.000000000000
      Gh(C)           2.199649205006    -0.393465339349     0.379231940470    12.000000000000
      Gh(C)           1.196371205006    -1.519131339349     0.122495940470    12.000000000000
      Gh(C)           0.719583205006    -2.163316339349     1.417875940470    12.000000000000
      Gh(H)           2.055611205006     2.215038660651    -0.510664059530     1.007825032230
      Gh(H)           2.888106205006     1.925904660651    -2.139034059530     1.007825032230
      Gh(H)           3.162593205006    -0.422816339349    -1.604471059530     1.007825032230
      Gh(H)           3.050637205006    -0.805437339349     0.931754940470     1.007825032230
      Gh(H)           1.744319205006     0.369396660651     1.016770940470     1.007825032230
      Gh(H)           0.345818205006    -1.121830339349    -0.435959059530     1.007825032230
      Gh(H)           1.661699205006    -2.273612339349    -0.517287059530     1.007825032230
      Gh(H)           1.556177205006    -2.600395339349     1.964929940470     1.007825032230
      Gh(H)           0.249838205006    -1.423879339349     2.068612940470     1.007825032230
      Gh(H)          -0.006956794994    -2.954095339349     1.230059940470     1.007825032230

  Running in c1 symmetry.

  Rotational constants: A =      0.03822  B =      0.02358  C =      0.01945 [cm^-1]
  Rotational constants: A =   1145.91336  B =    706.77399  C =    582.99869 [MHz]
  Nuclear repulsion =  170.467758320745389

  Charge       = 0
  Multiplicity = 1
  Electrons    = 40
  Nalpha       = 20
  Nbeta        = 20

  ==> Algorithm <==

  SCF Algorithm Type is DF.
  DIIS enabled.
  MOM disabled.
  Fractional occupation disabled.
  Guess Type is SAD.
  Energy threshold   = 1.00e-08
  Density threshold  = 1.00e-08
  Integral threshold = 0.00e+00

  ==> Primary Basis <==

  Basis Set: JUN-CC-PVTZ
    Blend: JUN-CC-PVTZ
    Number of shells: 250
    Number of basis function: 670
    Number of Cartesian functions: 750
    Spherical Harmonics?: true
    Max angular momentum: 3

   => Loading Basis Set <=

    Name: (JUN-CC-PVTZ AUX)
    Role: JKFIT
    Keyword: DF_BASIS_SCF
    atoms 1-5, 16-20  entry C          line   152 file /home/r08543048/miniconda3/share/psi4/basis/jun-cc-pvtz-jkfit.gbs 
    atoms 6-15, 21-30 entry H          line    70 file /home/r08543048/miniconda3/share/psi4/basis/jun-cc-pvtz-jkfit.gbs 

  ==> Pre-Iterations <==

   -------------------------------------------------------
    Irrep   Nso     Nmo     Nalpha   Nbeta   Ndocc  Nsocc
   -------------------------------------------------------
     A        670     670       0       0       0       0
   -------------------------------------------------------
    Total     670     670      20      20      20       0
   -------------------------------------------------------

  ==> Integral Setup <==

  ==> DiskDFJK: Density-Fitted J/K Matrices <==

    J tasked:                  Yes
    K tasked:                  Yes
    wK tasked:                  No
    OpenMP threads:              1
    Integrals threads:           1
    Memory [MiB]:            15735
    Algorithm:                Core
    Integral Cache:           LOAD
    Schwarz Cutoff:          1E-12
    Fitting Condition:       1E-10

   => Auxiliary Basis Set <=

  Basis Set: (JUN-CC-PVTZ AUX)
    Blend: JUN-CC-PVTZ-JKFIT
    Number of shells: 490
    Number of basis function: 1550
    Number of Cartesian functions: 1860
    Spherical Harmonics?: true
    Max angular momentum: 4

  Minimum eigenvalue in the overlap matrix is 2.7091087018E-05.
  Using Symmetric Orthogonalization.

  SCF Guess: Superposition of Atomic Densities via on-the-fly atomic UHF.

  ==> Iterations <==

                           Total Energy        Delta E     RMS |[F,P]|

   @DF-RHF iter SAD:  -194.45267886970049   -1.94453e+02   0.00000e+00 
   @DF-RHF iter   1:  -194.99846348685097   -5.45785e-01   8.71120e-04 DIIS
   @DF-RHF iter   2:  -195.17541356706536   -1.76950e-01   3.82264e-04 DIIS
   @DF-RHF iter   3:  -195.20985494336711   -3.44414e-02   7.35618e-05 DIIS
   @DF-RHF iter   4:  -195.21219350631011   -2.33856e-03   2.45597e-05 DIIS
   @DF-RHF iter   5:  -195.21236090421283   -1.67398e-04   5.13266e-06 DIIS
   @DF-RHF iter   6:  -195.21237137359572   -1.04694e-05   1.16461e-06 DIIS
   @DF-RHF iter   7:  -195.21237187169157   -4.98096e-07   3.28203e-07 DIIS
   @DF-RHF iter   8:  -195.21237191501191   -4.33203e-08   7.40665e-08 DIIS
   @DF-RHF iter   9:  -195.21237191820813   -3.19622e-09   2.55047e-08 DIIS
   @DF-RHF iter  10:  -195.21237191864901   -4.40878e-10   8.73226e-09 DIIS
  Energy and wave function converged.


  ==> Post-Iterations <==

    Orbital Energies [Eh]
    ---------------------

    Doubly Occupied:                                                      

       1A    -11.230794     2A    -11.222150     3A    -11.219654  
       4A    -11.217143     5A    -11.211717     6A     -1.089562  
       7A     -1.022130     8A     -0.922542     9A     -0.811784  
      10A     -0.757032    11A     -0.650703    12A     -0.616766  
      13A     -0.590024    14A     -0.567050    15A     -0.537827  
      16A     -0.510867    17A     -0.483464    18A     -0.473176  
      19A     -0.469912    20A     -0.356150  

    Virtual:                                                              

      21A      0.029922    22A      0.040503    23A      0.047491  
      24A      0.053457    25A      0.063076    26A      0.065242  
      27A      0.068385    28A      0.069278    29A      0.080263  
      30A      0.087918    31A      0.091219    32A      0.098088  
      33A      0.103786    34A      0.108687    35A      0.109239  
      36A      0.112807    37A      0.116536    38A      0.120225  
      39A      0.131326    40A      0.136118    41A      0.138952  
      42A      0.143850    43A      0.146152    44A      0.149547  
      45A      0.153882    46A      0.157095    47A      0.162432  
      48A      0.166119    49A      0.175094    50A      0.176556  
      51A      0.181431    52A      0.182607    53A      0.189202  
      54A      0.193987    55A      0.195861    56A      0.199122  
      57A      0.203044    58A      0.206049    59A      0.211437  
      60A      0.217835    61A      0.226335    62A      0.241802  
      63A      0.248291    64A      0.259089    65A      0.267137  
      66A      0.276964    67A      0.285356    68A      0.288288  
      69A      0.305457    70A      0.308816    71A      0.311688  
      72A      0.314399    73A      0.319882    74A      0.321479  
      75A      0.328690    76A      0.330117    77A      0.336949  
      78A      0.341189    79A      0.343533    80A      0.350971  
      81A      0.356445    82A      0.360303    83A      0.362606  
      84A      0.367144    85A      0.370977    86A      0.377006  
      87A      0.382867    88A      0.389105    89A      0.392165  
      90A      0.397725    91A      0.399356    92A      0.405384  
      93A      0.407057    94A      0.413558    95A      0.417218  
      96A      0.423684    97A      0.427954    98A      0.434848  
      99A      0.442899   100A      0.445149   101A      0.446706  
     102A      0.450661   103A      0.457155   104A      0.463973  
     105A      0.473788   106A      0.478069   107A      0.480523  
     108A      0.490378   109A      0.496977   110A      0.507171  
     111A      0.515693   112A      0.523209   113A      0.526930  
     114A      0.534856   115A      0.535530   116A      0.541291  
     117A      0.543026   118A      0.553098   119A      0.557605  
     120A      0.563245   121A      0.572657   122A      0.572864  
     123A      0.580923   124A      0.586755   125A      0.589375  
     126A      0.597946   127A      0.602996   128A      0.607577  
     129A      0.615073   130A      0.616429   131A      0.625804  
     132A      0.627585   133A      0.630390   134A      0.641920  
     135A      0.647783   136A      0.652372   137A      0.660763  
     138A      0.665636   139A      0.675488   140A      0.682492  
     141A      0.689595   142A      0.693873   143A      0.700757  
     144A      0.702819   145A      0.713678   146A      0.722483  
     147A      0.729579   148A      0.740214   149A      0.748252  
     150A      0.751563   151A      0.753169   152A      0.766701  
     153A      0.774465   154A      0.784954   155A      0.786301  
     156A      0.803031   157A      0.808295   158A      0.815180  
     159A      0.821942   160A      0.835391   161A      0.836509  
     162A      0.844703   163A      0.848817   164A      0.865168  
     165A      0.870794   166A      0.872497   167A      0.885706  
     168A      0.888478   169A      0.898591   170A      0.904861  
     171A      0.913450   172A      0.928938   173A      0.935281  
     174A      0.940970   175A      0.952851   176A      0.962758  
     177A      0.973825   178A      0.984138   179A      1.014183  
     180A      1.029348   181A      1.042528   182A      1.043711  
     183A      1.059503   184A      1.074509   185A      1.083740  
     186A      1.094626   187A      1.106937   188A      1.118254  
     189A      1.129224   190A      1.132833   191A      1.135902  
     192A      1.149677   193A      1.156917   194A      1.169173  
     195A      1.178811   196A      1.186136   197A      1.190448  
     198A      1.190837   199A      1.202194   200A      1.213781  
     201A      1.224029   202A      1.228550   203A      1.244257  
     204A      1.250618   205A      1.254123   206A      1.259790  
     207A      1.261790   208A      1.273394   209A      1.288474  
     210A      1.297223   211A      1.301270   212A      1.310021  
     213A      1.317435   214A      1.320952   215A      1.326394  
     216A      1.335514   217A      1.344801   218A      1.345922  
     219A      1.355249   220A      1.357524   221A      1.366642  
     222A      1.377097   223A      1.379841   224A      1.384639  
     225A      1.393048   226A      1.400083   227A      1.402508  
     228A      1.413916   229A      1.420588   230A      1.425674  
     231A      1.433690   232A      1.437703   233A      1.444316  
     234A      1.449622   235A      1.468045   236A      1.471203  
     237A      1.473775   238A      1.483188   239A      1.496958  
     240A      1.503971   241A      1.512378   242A      1.514173  
     243A      1.526966   244A      1.528415   245A      1.541362  
     246A      1.550394   247A      1.559217   248A      1.561479  
     249A      1.569146   250A      1.575991   251A      1.583773  
     252A      1.591300   253A      1.604444   254A      1.609203  
     255A      1.610569   256A      1.616406   257A      1.623560  
     258A      1.630640   259A      1.635443   260A      1.640508  
     261A      1.658780   262A      1.663213   263A      1.669722  
     264A      1.681262   265A      1.686911   266A      1.698551  
     267A      1.706732   268A      1.711225   269A      1.717393  
     270A      1.723816   271A      1.734894   272A      1.745383  
     273A      1.757947   274A      1.768074   275A      1.771528  
     276A      1.782827   277A      1.792038   278A      1.805168  
     279A      1.814548   280A      1.818037   281A      1.839824  
     282A      1.857760   283A      1.861643   284A      1.874631  
     285A      1.883170   286A      1.892669   287A      1.903596  
     288A      1.916417   289A      1.951298   290A      1.961149  
     291A      1.970555   292A      1.975424   293A      1.981995  
     294A      2.008858   295A      2.021925   296A      2.031432  
     297A      2.041571   298A      2.049105   299A      2.077141  
     300A      2.092461   301A      2.121948   302A      2.124749  
     303A      2.148011   304A      2.172160   305A      2.177514  
     306A      2.193253   307A      2.232938   308A      2.238553  
     309A      2.279390   310A      2.286557   311A      2.311347  
     312A      2.350993   313A      2.372197   314A      2.412909  
     315A      2.435237   316A      2.455737   317A      2.484089  
     318A      2.500825   319A      2.560969   320A      2.589147  
     321A      2.638661   322A      2.661792   323A      2.683361  
     324A      2.705941   325A      2.766342   326A      2.786978  
     327A      2.789647   328A      2.819586   329A      2.837157  
     330A      2.851831   331A      2.866655   332A      2.877747  
     333A      2.894425   334A      2.919227   335A      2.929757  
     336A      2.955083   337A      2.967241   338A      2.980061  
     339A      3.004997   340A      3.016393   341A      3.034052  
     342A      3.049529   343A      3.060875   344A      3.095469  
     345A      3.105512   346A      3.146699   347A      3.163976  
     348A      3.173759   349A      3.182456   350A      3.200129  
     351A      3.224349   352A      3.235282   353A      3.248550  
     354A      3.251823   355A      3.282036   356A      3.291649  
     357A      3.302951   358A      3.330243   359A      3.350042  
     360A      3.357481   361A      3.379194   362A      3.400028  
     363A      3.402482   364A      3.407585   365A      3.409437  
     366A      3.429165   367A      3.450636   368A      3.455511  
     369A      3.469006   370A      3.484964   371A      3.487618  
     372A      3.496969   373A      3.506377   374A      3.511495  
     375A      3.525053   376A      3.535616   377A      3.539845  
     378A      3.551713   379A      3.560382   380A      3.563341  
     381A      3.568477   382A      3.577010   383A      3.589455  
     384A      3.598938   385A      3.603756   386A      3.606717  
     387A      3.608247   388A      3.629061   389A      3.638276  
     390A      3.639601   391A      3.654889   392A      3.668666  
     393A      3.673267   394A      3.688158   395A      3.700848  
     396A      3.712279   397A      3.719045   398A      3.729363  
     399A      3.737438   400A      3.757990   401A      3.761853  
     402A      3.769943   403A      3.771841   404A      3.783202  
     405A      3.791511   406A      3.798852   407A      3.814498  
     408A      3.824241   409A      3.834625   410A      3.849616  
     411A      3.855151   412A      3.861840   413A      3.873443  
     414A      3.878523   415A      3.887705   416A      3.898629  
     417A      3.907039   418A      3.912638   419A      3.917489  
     420A      3.938583   421A      3.952411   422A      3.965779  
     423A      3.970615   424A      3.977746   425A      3.984154  
     426A      3.989188   427A      3.997003   428A      4.015168  
     429A      4.021957   430A      4.041287   431A      4.046148  
     432A      4.052712   433A      4.068517   434A      4.083079  
     435A      4.085595   436A      4.107142   437A      4.114994  
     438A      4.129632   439A      4.146404   440A      4.161577  
     441A      4.169643   442A      4.180432   443A      4.187869  
     444A      4.191074   445A      4.200640   446A      4.204308  
     447A      4.217664   448A      4.227720   449A      4.234798  
     450A      4.241954   451A      4.250430   452A      4.261893  
     453A      4.267308   454A      4.280188   455A      4.286061  
     456A      4.298257   457A      4.314648   458A      4.318937  
     459A      4.336096   460A      4.354082   461A      4.363473  
     462A      4.366808   463A      4.370078   464A      4.374612  
     465A      4.390684   466A      4.393182   467A      4.402274  
     468A      4.410395   469A      4.422596   470A      4.439019  
     471A      4.445132   472A      4.455431   473A      4.461827  
     474A      4.467137   475A      4.477048   476A      4.485850  
     477A      4.487053   478A      4.494905   479A      4.504480  
     480A      4.514502   481A      4.523953   482A      4.534222  
     483A      4.536267   484A      4.552748   485A      4.568257  
     486A      4.577082   487A      4.582935   488A      4.587299  
     489A      4.606570   490A      4.614690   491A      4.625164  
     492A      4.629679   493A      4.635957   494A      4.640796  
     495A      4.652529   496A      4.656755   497A      4.667339  
     498A      4.684862   499A      4.687416   500A      4.692962  
     501A      4.701712   502A      4.706605   503A      4.718423  
     504A      4.737246   505A      4.741279   506A      4.750609  
     507A      4.759712   508A      4.770472   509A      4.776195  
     510A      4.779592   511A      4.785893   512A      4.793825  
     513A      4.798319   514A      4.808965   515A      4.824570  
     516A      4.842453   517A      4.844050   518A      4.854753  
     519A      4.868589   520A      4.875034   521A      4.875977  
     522A      4.890581   523A      4.896261   524A      4.908721  
     525A      4.911310   526A      4.916056   527A      4.932824  
     528A      4.945034   529A      4.949053   530A      4.953427  
     531A      4.958584   532A      4.975890   533A      4.988175  
     534A      4.993882   535A      5.003574   536A      5.012305  
     537A      5.026006   538A      5.034978   539A      5.037714  
     540A      5.050772   541A      5.062776   542A      5.067071  
     543A      5.087583   544A      5.095047   545A      5.109762  
     546A      5.141687   547A      5.148313   548A      5.160539  
     549A      5.166114   550A      5.175879   551A      5.189409  
     552A      5.195545   553A      5.207839   554A      5.223641  
     555A      5.234255   556A      5.244933   557A      5.258635  
     558A      5.268980   559A      5.292027   560A      5.306807  
     561A      5.312905   562A      5.330316   563A      5.344831  
     564A      5.351224   565A      5.363884   566A      5.379880  
     567A      5.394214   568A      5.405267   569A      5.436525  
     570A      5.443703   571A      5.455365   572A      5.460889  
     573A      5.470741   574A      5.480614   575A      5.490828  
     576A      5.506636   577A      5.527169   578A      5.564904  
     579A      5.574464   580A      5.582470   581A      5.612686  
     582A      5.644334   583A      5.646988   584A      5.661288  
     585A      5.669215   586A      5.696786   587A      5.707273  
     588A      5.720168   589A      5.739986   590A      5.774675  
     591A      5.778857   592A      5.800505   593A      5.812767  
     594A      5.846597   595A      5.862483   596A      5.880657  
     597A      5.883973   598A      5.939015   599A      5.945668  
     600A      5.956300   601A      5.968404   602A      5.998412  
     603A      6.002828   604A      6.010040   605A      6.036761  
     606A      6.048613   607A      6.066789   608A      6.080821  
     609A      6.134094   610A      6.152531   611A      6.218650  
     612A      6.238296   613A      6.255593   614A      6.283945  
     615A      6.331157   616A      6.368136   617A      6.384372  
     618A      6.411905   619A      6.422384   620A      6.450986  
     621A      6.496002   622A      6.501982   623A      6.529508  
     624A      6.543801   625A      6.557070   626A      6.622292  
     627A      6.661260   628A      6.672614   629A      6.698976  
     630A      6.719337   631A      6.755815   632A      6.789898  
     633A      6.825069   634A      6.942360   635A      7.046437  
     636A      7.123506   637A      7.327179   638A      7.414017  
     639A      7.480560   640A      7.549900   641A      7.594004  
     642A      7.656388   643A      7.710664   644A      7.720839  
     645A      7.757453   646A      7.834454   647A      7.885561  
     648A      7.910578   649A      7.989317   650A      8.068604  
     651A      8.169051   652A      8.315921   653A      8.399920  
     654A      8.636303   655A      8.871363   656A      9.445316  
     657A      9.676092   658A      9.776193   659A      9.945896  
     660A     10.226786   661A     12.350640   662A     13.941021  
     663A     14.514162   664A     14.665342   665A     15.389964  
     666A     41.100249   667A     44.361888   668A     45.720986  
     669A     46.041363   670A     47.269305  

    Final Occupation by Irrep:
              A 
    DOCC [    20 ]

  @DF-RHF Final Energy:  -195.21237191864901

   => Energetics <=

    Nuclear Repulsion Energy =            170.4677583207453893
    One-Electron Energy =                -599.4393713828542332
    Two-Electron Energy =                 233.7592411434598603
    Total Energy =                       -195.2123719186490121

Computation Completed


Properties will be evaluated at   0.000000,   0.000000,   0.000000 [a0]

Properties computed using the SCF density matrix

  Nuclear Dipole Moment: [e a0]
     X:  -137.3471      Y:    39.6079      Z:     1.8621

  Electronic Dipole Moment: [e a0]
     X:   137.3886      Y:   -39.4512      Z:    -1.7849

  Dipole Moment: [e a0]
     X:     0.0415      Y:     0.1567      Z:     0.0771     Total:     0.1795

  Dipole Moment: [D]
     X:     0.1054      Y:     0.3983      Z:     0.1961     Total:     0.4563


*** tstop() called on r282 at Thu Sep  9 12:06:59 2021
Module time:
	user time   =     111.67 seconds =       1.86 minutes
	system time =       1.36 seconds =       0.02 minutes
	total time  =        113 seconds =       1.88 minutes
Total time:
	user time   =     305.79 seconds =       5.10 minutes
	system time =       4.51 seconds =       0.08 minutes
	total time  =        310 seconds =       5.17 minutes

  //>>>>>>>>>>>>>>>>>>>>>>>>>>>>>>>>>>>//
  //            Monomer B HF           //
  //<<<<<<<<<<<<<<<<<<<<<<<<<<<<<<<<<<<//


*** tstart() called on r282
*** at Thu Sep  9 12:06:59 2021

   => Loading Basis Set <=

    Name: JUN-CC-PVTZ
    Role: ORBITAL
    Keyword: BASIS
    atoms 1-5, 16-20  entry C          line   217 file /home/r08543048/miniconda3/share/psi4/basis/jun-cc-pvtz.gbs 
    atoms 6-15, 21-30 entry H          line    36 file /home/r08543048/miniconda3/share/psi4/basis/jun-cc-pvtz.gbs 


         ---------------------------------------------------------
                                   SCF
               by Justin Turney, Rob Parrish, Andy Simmonett
                          and Daniel G. A. Smith
                              RHF Reference
                        1 Threads,  20980 MiB Core
         ---------------------------------------------------------

  ==> Geometry <==

    Molecular point group: c1
    Full point group: C1

    Geometry (in Angstrom), charge = 0, multiplicity = 1:

       Center              X                  Y                   Z               Mass       
    ------------   -----------------  -----------------  -----------------  -----------------
      Gh(C)          -2.532465794994    -1.528802339349    -1.198077059530    12.000000000000
      Gh(C)          -2.679020794994    -0.237047339349    -0.889196059530    12.000000000000
      Gh(C)          -2.200166794994     0.393985660651     0.378328940470    12.000000000000
      Gh(C)          -1.196250794994     1.519180660651     0.122037940470    12.000000000000
      Gh(C)          -0.720657794994     2.163896660651     1.417600940470    12.000000000000
      Gh(H)          -2.056253794994    -2.215398339349    -0.508855059530     1.007825032230
      Gh(H)          -2.886364794994    -1.927459339349    -2.138646059530     1.007825032230
      Gh(H)          -3.160288794994     0.421957660651    -1.606802059530     1.007825032230
      Gh(H)          -3.051773794994     0.806496660651     0.929489940470     1.007825032230
      Gh(H)          -1.745788794994    -0.368496339349     1.017014940470     1.007825032230
      Gh(H)          -0.345284794994     1.121173660651    -0.435274059530     1.007825032230
      Gh(H)          -1.660574794994     2.273510660651    -0.518635059530     1.007825032230
      Gh(H)          -1.557709794994     2.601630660651     1.963428940470     1.007825032230
      Gh(H)          -0.251985794994     1.424618660651     2.069282940470     1.007825032230
      Gh(H)           0.006431205006     2.954268660651     1.230186940470     1.007825032230
         C            2.533133205006     1.528008660651    -1.198550059530    12.000000000000
         C            2.679972205006     0.236642660651    -0.888186059530    12.000000000000
         C            2.199649205006    -0.393465339349     0.379231940470    12.000000000000
         C            1.196371205006    -1.519131339349     0.122495940470    12.000000000000
         C            0.719583205006    -2.163316339349     1.417875940470    12.000000000000
         H            2.055611205006     2.215038660651    -0.510664059530     1.007825032230
         H            2.888106205006     1.925904660651    -2.139034059530     1.007825032230
         H            3.162593205006    -0.422816339349    -1.604471059530     1.007825032230
         H            3.050637205006    -0.805437339349     0.931754940470     1.007825032230
         H            1.744319205006     0.369396660651     1.016770940470     1.007825032230
         H            0.345818205006    -1.121830339349    -0.435959059530     1.007825032230
         H            1.661699205006    -2.273612339349    -0.517287059530     1.007825032230
         H            1.556177205006    -2.600395339349     1.964929940470     1.007825032230
         H            0.249838205006    -1.423879339349     2.068612940470     1.007825032230
         H           -0.006956794994    -2.954095339349     1.230059940470     1.007825032230

  Running in c1 symmetry.

  Rotational constants: A =      0.03822  B =      0.02358  C =      0.01945 [cm^-1]
  Rotational constants: A =   1145.91336  B =    706.77399  C =    582.99869 [MHz]
  Nuclear repulsion =  170.468172603311359

  Charge       = 0
  Multiplicity = 1
  Electrons    = 40
  Nalpha       = 20
  Nbeta        = 20

  ==> Algorithm <==

  SCF Algorithm Type is DF.
  DIIS enabled.
  MOM disabled.
  Fractional occupation disabled.
  Guess Type is SAD.
  Energy threshold   = 1.00e-08
  Density threshold  = 1.00e-08
  Integral threshold = 0.00e+00

  ==> Primary Basis <==

  Basis Set: JUN-CC-PVTZ
    Blend: JUN-CC-PVTZ
    Number of shells: 250
    Number of basis function: 670
    Number of Cartesian functions: 750
    Spherical Harmonics?: true
    Max angular momentum: 3

   => Loading Basis Set <=

    Name: (JUN-CC-PVTZ AUX)
    Role: JKFIT
    Keyword: DF_BASIS_SCF
    atoms 1-5, 16-20  entry C          line   152 file /home/r08543048/miniconda3/share/psi4/basis/jun-cc-pvtz-jkfit.gbs 
    atoms 6-15, 21-30 entry H          line    70 file /home/r08543048/miniconda3/share/psi4/basis/jun-cc-pvtz-jkfit.gbs 

  ==> Pre-Iterations <==

   -------------------------------------------------------
    Irrep   Nso     Nmo     Nalpha   Nbeta   Ndocc  Nsocc
   -------------------------------------------------------
     A        670     670       0       0       0       0
   -------------------------------------------------------
    Total     670     670      20      20      20       0
   -------------------------------------------------------

  ==> Integral Setup <==

  ==> DiskDFJK: Density-Fitted J/K Matrices <==

    J tasked:                  Yes
    K tasked:                  Yes
    wK tasked:                  No
    OpenMP threads:              1
    Integrals threads:           1
    Memory [MiB]:            15735
    Algorithm:                Core
    Integral Cache:           LOAD
    Schwarz Cutoff:          1E-12
    Fitting Condition:       1E-10

   => Auxiliary Basis Set <=

  Basis Set: (JUN-CC-PVTZ AUX)
    Blend: JUN-CC-PVTZ-JKFIT
    Number of shells: 490
    Number of basis function: 1550
    Number of Cartesian functions: 1860
    Spherical Harmonics?: true
    Max angular momentum: 4

  Minimum eigenvalue in the overlap matrix is 2.7091087018E-05.
  Using Symmetric Orthogonalization.

  SCF Guess: Superposition of Atomic Densities via on-the-fly atomic UHF.

  ==> Iterations <==

                           Total Energy        Delta E     RMS |[F,P]|

   @DF-RHF iter SAD:  -194.45268878157151   -1.94453e+02   0.00000e+00 
   @DF-RHF iter   1:  -194.99846251311476   -5.45774e-01   8.71123e-04 DIIS
   @DF-RHF iter   2:  -195.17541250442827   -1.76950e-01   3.82271e-04 DIIS
   @DF-RHF iter   3:  -195.20985504059431   -3.44425e-02   7.35633e-05 DIIS
   @DF-RHF iter   4:  -195.21219365089948   -2.33861e-03   2.45613e-05 DIIS
   @DF-RHF iter   5:  -195.21236106895495   -1.67418e-04   5.13255e-06 DIIS
   @DF-RHF iter   6:  -195.21237153839792   -1.04694e-05   1.16467e-06 DIIS
   @DF-RHF iter   7:  -195.21237203650003   -4.98102e-07   3.28189e-07 DIIS
   @DF-RHF iter   8:  -195.21237207982250   -4.33225e-08   7.40499e-08 DIIS
   @DF-RHF iter   9:  -195.21237208301181   -3.18931e-09   2.54923e-08 DIIS
   @DF-RHF iter  10:  -195.21237208345460   -4.42782e-10   8.72857e-09 DIIS
  Energy and wave function converged.


  ==> Post-Iterations <==

    Orbital Energies [Eh]
    ---------------------

    Doubly Occupied:                                                      

       1A    -11.230794     2A    -11.222150     3A    -11.219656  
       4A    -11.217143     5A    -11.211717     6A     -1.089563  
       7A     -1.022128     8A     -0.922545     9A     -0.811783  
      10A     -0.757029    11A     -0.650709    12A     -0.616762  
      13A     -0.590016    14A     -0.567053    15A     -0.537833  
      16A     -0.510864    17A     -0.483471    18A     -0.473174  
      19A     -0.469910    20A     -0.356149  

    Virtual:                                                              

      21A      0.029919    22A      0.040504    23A      0.047490  
      24A      0.053458    25A      0.063077    26A      0.065242  
      27A      0.068384    28A      0.069279    29A      0.080264  
      30A      0.087920    31A      0.091215    32A      0.098089  
      33A      0.103789    34A      0.108687    35A      0.109228  
      36A      0.112807    37A      0.116537    38A      0.120224  
      39A      0.131327    40A      0.136116    41A      0.138956  
      42A      0.143843    43A      0.146149    44A      0.149545  
      45A      0.153882    46A      0.157105    47A      0.162427  
      48A      0.166110    49A      0.175101    50A      0.176560  
      51A      0.181447    52A      0.182620    53A      0.189204  
      54A      0.193985    55A      0.195847    56A      0.199122  
      57A      0.203049    58A      0.206046    59A      0.211412  
      60A      0.217844    61A      0.226320    62A      0.241809  
      63A      0.248278    64A      0.259095    65A      0.267123  
      66A      0.276947    67A      0.285354    68A      0.288293  
      69A      0.305447    70A      0.308844    71A      0.311669  
      72A      0.314412    73A      0.319857    74A      0.321491  
      75A      0.328699    76A      0.330101    77A      0.336944  
      78A      0.341183    79A      0.343525    80A      0.350999  
      81A      0.356442    82A      0.360317    83A      0.362607  
      84A      0.367119    85A      0.370980    86A      0.377015  
      87A      0.382909    88A      0.389094    89A      0.392152  
      90A      0.397720    91A      0.399394    92A      0.405373  
      93A      0.407089    94A      0.413593    95A      0.417202  
      96A      0.423683    97A      0.427917    98A      0.434850  
      99A      0.442859   100A      0.445144   101A      0.446706  
     102A      0.450657   103A      0.457146   104A      0.463975  
     105A      0.473874   106A      0.478075   107A      0.480543  
     108A      0.490402   109A      0.496937   110A      0.507143  
     111A      0.515653   112A      0.523221   113A      0.526906  
     114A      0.534871   115A      0.535502   116A      0.541251  
     117A      0.543021   118A      0.553123   119A      0.557628  
     120A      0.563202   121A      0.572665   122A      0.572846  
     123A      0.580916   124A      0.586789   125A      0.589399  
     126A      0.597971   127A      0.602998   128A      0.607510  
     129A      0.615095   130A      0.616439   131A      0.625755  
     132A      0.627566   133A      0.630320   134A      0.641865  
     135A      0.647875   136A      0.652316   137A      0.660777  
     138A      0.665669   139A      0.675458   140A      0.682482  
     141A      0.689578   142A      0.693815   143A      0.700747  
     144A      0.702889   145A      0.713677   146A      0.722552  
     147A      0.729593   148A      0.740134   149A      0.748250  
     150A      0.751566   151A      0.753161   152A      0.766703  
     153A      0.774452   154A      0.784978   155A      0.786370  
     156A      0.803012   157A      0.808330   158A      0.815175  
     159A      0.821876   160A      0.835440   161A      0.836457  
     162A      0.844722   163A      0.848824   164A      0.865197  
     165A      0.870770   166A      0.872514   167A      0.885690  
     168A      0.888465   169A      0.898608   170A      0.904873  
     171A      0.913453   172A      0.928893   173A      0.935344  
     174A      0.941018   175A      0.952831   176A      0.962772  
     177A      0.973846   178A      0.984106   179A      1.014147  
     180A      1.029312   181A      1.042606   182A      1.043695  
     183A      1.059609   184A      1.074569   185A      1.083775  
     186A      1.094653   187A      1.106879   188A      1.118224  
     189A      1.129188   190A      1.132844   191A      1.135853  
     192A      1.149643   193A      1.156843   194A      1.169143  
     195A      1.178893   196A      1.186047   197A      1.190504  
     198A      1.190846   199A      1.202115   200A      1.213765  
     201A      1.224057   202A      1.228507   203A      1.244374  
     204A      1.250500   205A      1.254083   206A      1.259824  
     207A      1.261755   208A      1.273386   209A      1.288438  
     210A      1.297254   211A      1.301218   212A      1.309967  
     213A      1.317358   214A      1.321001   215A      1.326438  
     216A      1.335407   217A      1.344839   218A      1.345842  
     219A      1.355306   220A      1.357562   221A      1.366653  
     222A      1.377095   223A      1.379878   224A      1.384742  
     225A      1.392980   226A      1.400053   227A      1.402461  
     228A      1.413943   229A      1.420574   230A      1.425697  
     231A      1.433727   232A      1.437669   233A      1.444368  
     234A      1.449659   235A      1.468047   236A      1.471143  
     237A      1.473763   238A      1.483198   239A      1.496950  
     240A      1.503956   241A      1.512354   242A      1.514135  
     243A      1.526955   244A      1.528289   245A      1.541431  
     246A      1.550412   247A      1.559188   248A      1.561469  
     249A      1.569179   250A      1.576015   251A      1.583810  
     252A      1.591296   253A      1.604434   254A      1.609170  
     255A      1.610574   256A      1.616307   257A      1.623611  
     258A      1.630658   259A      1.635486   260A      1.640488  
     261A      1.658796   262A      1.663204   263A      1.669772  
     264A      1.681144   265A      1.686907   266A      1.698568  
     267A      1.706896   268A      1.711169   269A      1.717437  
     270A      1.723888   271A      1.734943   272A      1.745244  
     273A      1.757963   274A      1.768060   275A      1.771566  
     276A      1.782769   277A      1.792031   278A      1.805275  
     279A      1.814427   280A      1.818139   281A      1.839947  
     282A      1.857756   283A      1.861653   284A      1.874633  
     285A      1.883177   286A      1.892603   287A      1.903640  
     288A      1.916389   289A      1.951312   290A      1.961121  
     291A      1.970530   292A      1.975419   293A      1.982037  
     294A      2.008779   295A      2.021994   296A      2.031563  
     297A      2.041524   298A      2.049037   299A      2.077047  
     300A      2.092558   301A      2.121922   302A      2.124717  
     303A      2.147987   304A      2.172101   305A      2.177557  
     306A      2.193188   307A      2.232934   308A      2.238595  
     309A      2.279404   310A      2.286508   311A      2.311380  
     312A      2.351031   313A      2.372147   314A      2.412929  
     315A      2.435257   316A      2.455660   317A      2.484068  
     318A      2.500854   319A      2.560920   320A      2.589101  
     321A      2.638625   322A      2.661771   323A      2.683441  
     324A      2.705876   325A      2.766330   326A      2.786999  
     327A      2.789634   328A      2.819626   329A      2.837141  
     330A      2.851798   331A      2.866681   332A      2.877734  
     333A      2.894357   334A      2.919240   335A      2.929800  
     336A      2.955018   337A      2.967234   338A      2.980066  
     339A      3.004985   340A      3.016384   341A      3.034026  
     342A      3.049450   343A      3.060867   344A      3.095377  
     345A      3.105496   346A      3.146747   347A      3.163961  
     348A      3.173709   349A      3.182420   350A      3.200118  
     351A      3.224390   352A      3.235271   353A      3.248544  
     354A      3.251763   355A      3.282025   356A      3.291605  
     357A      3.302953   358A      3.330223   359A      3.349991  
     360A      3.357470   361A      3.379207   362A      3.400056  
     363A      3.402470   364A      3.407586   365A      3.409461  
     366A      3.429120   367A      3.450686   368A      3.455504  
     369A      3.469030   370A      3.484974   371A      3.487733  
     372A      3.496998   373A      3.506446   374A      3.511474  
     375A      3.524964   376A      3.535617   377A      3.539898  
     378A      3.551679   379A      3.560402   380A      3.563353  
     381A      3.568481   382A      3.577061   383A      3.589478  
     384A      3.598916   385A      3.603752   386A      3.606640  
     387A      3.608278   388A      3.629035   389A      3.638272  
     390A      3.639620   391A      3.654830   392A      3.668690  
     393A      3.673209   394A      3.688188   395A      3.700926  
     396A      3.712262   397A      3.719086   398A      3.729367  
     399A      3.737423   400A      3.758032   401A      3.761817  
     402A      3.769929   403A      3.771856   404A      3.783207  
     405A      3.791451   406A      3.798892   407A      3.814532  
     408A      3.824252   409A      3.834671   410A      3.849583  
     411A      3.855158   412A      3.861854   413A      3.873449  
     414A      3.878497   415A      3.887682   416A      3.898647  
     417A      3.907055   418A      3.912664   419A      3.917540  
     420A      3.938569   421A      3.952374   422A      3.965876  
     423A      3.970646   424A      3.977842   425A      3.984102  
     426A      3.989094   427A      3.997095   428A      4.015188  
     429A      4.022020   430A      4.041266   431A      4.046159  
     432A      4.052706   433A      4.068537   434A      4.083038  
     435A      4.085627   436A      4.107165   437A      4.114952  
     438A      4.129624   439A      4.146311   440A      4.161604  
     441A      4.169758   442A      4.180468   443A      4.187906  
     444A      4.191074   445A      4.200650   446A      4.204307  
     447A      4.217720   448A      4.227666   449A      4.234728  
     450A      4.241947   451A      4.250412   452A      4.261935  
     453A      4.267304   454A      4.280207   455A      4.286035  
     456A      4.298280   457A      4.314653   458A      4.318914  
     459A      4.336170   460A      4.354064   461A      4.363405  
     462A      4.366779   463A      4.370033   464A      4.374609  
     465A      4.390712   466A      4.393219   467A      4.402275  
     468A      4.410325   469A      4.422508   470A      4.439029  
     471A      4.445039   472A      4.455389   473A      4.461787  
     474A      4.467103   475A      4.477056   476A      4.485918  
     477A      4.487039   478A      4.494943   479A      4.504540  
     480A      4.514428   481A      4.523978   482A      4.534192  
     483A      4.536184   484A      4.552734   485A      4.568222  
     486A      4.577073   487A      4.582866   488A      4.587259  
     489A      4.606486   490A      4.614628   491A      4.625191  
     492A      4.629725   493A      4.635919   494A      4.640757  
     495A      4.652478   496A      4.656753   497A      4.667342  
     498A      4.684914   499A      4.687451   500A      4.692927  
     501A      4.701723   502A      4.706656   503A      4.718427  
     504A      4.737252   505A      4.741271   506A      4.750480  
     507A      4.759782   508A      4.770451   509A      4.776146  
     510A      4.779587   511A      4.785980   512A      4.793897  
     513A      4.798301   514A      4.808963   515A      4.824502  
     516A      4.842375   517A      4.844074   518A      4.854735  
     519A      4.868561   520A      4.874946   521A      4.876004  
     522A      4.890626   523A      4.896232   524A      4.908682  
     525A      4.911330   526A      4.915996   527A      4.932814  
     528A      4.944976   529A      4.949048   530A      4.953528  
     531A      4.958709   532A      4.975889   533A      4.988174  
     534A      4.993881   535A      5.003578   536A      5.012419  
     537A      5.025878   538A      5.034939   539A      5.037738  
     540A      5.050907   541A      5.062663   542A      5.067083  
     543A      5.087499   544A      5.094974   545A      5.109823  
     546A      5.141733   547A      5.148351   548A      5.160499  
     549A      5.166251   550A      5.175847   551A      5.189338  
     552A      5.195538   553A      5.207795   554A      5.223595  
     555A      5.234161   556A      5.244960   557A      5.258680  
     558A      5.268993   559A      5.292061   560A      5.306833  
     561A      5.312910   562A      5.330199   563A      5.344810  
     564A      5.351273   565A      5.363922   566A      5.379897  
     567A      5.394199   568A      5.405199   569A      5.436485  
     570A      5.443701   571A      5.455333   572A      5.460877  
     573A      5.470747   574A      5.480626   575A      5.490852  
     576A      5.506672   577A      5.527180   578A      5.564796  
     579A      5.574453   580A      5.582519   581A      5.612703  
     582A      5.644385   583A      5.646981   584A      5.661323  
     585A      5.669195   586A      5.696811   587A      5.707279  
     588A      5.720215   589A      5.739982   590A      5.774706  
     591A      5.778799   592A      5.800590   593A      5.812745  
     594A      5.846666   595A      5.862480   596A      5.880647  
     597A      5.883976   598A      5.939089   599A      5.945643  
     600A      5.956344   601A      5.968436   602A      5.998508  
     603A      6.002710   604A      6.010007   605A      6.036718  
     606A      6.048632   607A      6.066773   608A      6.080819  
     609A      6.134074   610A      6.152493   611A      6.218530  
     612A      6.238318   613A      6.255627   614A      6.283939  
     615A      6.331236   616A      6.368161   617A      6.384361  
     618A      6.411873   619A      6.422291   620A      6.450923  
     621A      6.496037   622A      6.502033   623A      6.529508  
     624A      6.543797   625A      6.557024   626A      6.622339  
     627A      6.661295   628A      6.672656   629A      6.698896  
     630A      6.719346   631A      6.755808   632A      6.789879  
     633A      6.825032   634A      6.942352   635A      7.046497  
     636A      7.123481   637A      7.327180   638A      7.414063  
     639A      7.480543   640A      7.549921   641A      7.593980  
     642A      7.656368   643A      7.710609   644A      7.720829  
     645A      7.757444   646A      7.834493   647A      7.885562  
     648A      7.910568   649A      7.989294   650A      8.068621  
     651A      8.169040   652A      8.315911   653A      8.399964  
     654A      8.636267   655A      8.871352   656A      9.445346  
     657A      9.676131   658A      9.776156   659A      9.945972  
     660A     10.226763   661A     12.350632   662A     13.940768  
     663A     14.514175   664A     14.665241   665A     15.390121  
     666A     41.100291   667A     44.362484   668A     45.721066  
     669A     46.041281   670A     47.268941  

    Final Occupation by Irrep:
              A 
    DOCC [    20 ]

  @DF-RHF Final Energy:  -195.21237208345460

   => Energetics <=

    Nuclear Repulsion Energy =            170.4681726033113591
    One-Electron Energy =                -599.4401928900584835
    Two-Electron Energy =                 233.7596482032925280
    Total Energy =                       -195.2123720834545963

Computation Completed


Properties will be evaluated at   0.000000,   0.000000,   0.000000 [a0]

Properties computed using the SCF density matrix

  Nuclear Dipole Moment: [e a0]
     X:   137.3455      Y:   -39.6073      Z:     1.8934

  Electronic Dipole Moment: [e a0]
     X:  -137.3870      Y:    39.4507      Z:    -1.8161

  Dipole Moment: [e a0]
     X:    -0.0415      Y:    -0.1567      Z:     0.0772     Total:     0.1795

  Dipole Moment: [D]
     X:    -0.1056      Y:    -0.3982      Z:     0.1962     Total:     0.4563


*** tstop() called on r282 at Thu Sep  9 12:08:53 2021
Module time:
	user time   =     112.00 seconds =       1.87 minutes
	system time =       1.42 seconds =       0.02 minutes
	total time  =        114 seconds =       1.90 minutes
Total time:
	user time   =     417.80 seconds =       6.96 minutes
	system time =       5.93 seconds =       0.10 minutes
	total time  =        424 seconds =       7.07 minutes
  Constructing Basis Sets for SAPT...

   => Loading Basis Set <=

    Name: (JUN-CC-PVTZ AUX)
    Role: RIFIT
    Keyword: DF_BASIS_SAPT
    atoms 1-5, 16-20  entry C          line   132 file /home/r08543048/miniconda3/share/psi4/basis/jun-cc-pvtz-ri.gbs 
    atoms 6-15, 21-30 entry H          line    30 file /home/r08543048/miniconda3/share/psi4/basis/jun-cc-pvtz-ri.gbs 


  //>>>>>>>>>>>>>>>>>>>>>>>>>>>>>>>>>>>//
  //               SAPT0               //
  //<<<<<<<<<<<<<<<<<<<<<<<<<<<<<<<<<<<//


*** tstart() called on r282
*** at Thu Sep  9 12:08:53 2021

        SAPT0  
    Ed Hohenstein
     6 June 2009

      Orbital Information
  --------------------------
    NSO        =       670
    NMO        =       670
    NRI        =      1570
    NOCC A     =        20
    NOCC B     =        20
    FOCC A     =         5
    FOCC B     =         5
    NVIR A     =       650
    NVIR B     =       650

    Elst10,r            =    -0.002768312557 [Eh]
    Exch10              =     0.008444761813 [Eh]
    Exch10 (S^2)        =     0.008423527426 [Eh]

    Iter     Energy [mEh]          dE [mEh]         Residual      Time [s]
       1      -0.66803220       0.668032201       3.291200440             3
       2      -0.81306879       0.145036585       0.713692958             5
       3      -0.81541974       0.002350954       0.226252098             7
       4      -0.81332405      -0.002095686       0.071937487            10
       5      -0.81310771      -0.000216343       0.020200852            12
       6      -0.81327320       0.000165493       0.005898755            15
       7      -0.81328096       0.000007760       0.001853918            17
       8      -0.81326827      -0.000012694       0.000562020            20
       9      -0.81327001       0.000001741       0.000184112            22
      10      -0.81327051       0.000000500       0.000055337            24
      11      -0.81327039      -0.000000117       0.000015182            27
      12      -0.81327036      -0.000000039       0.000003808            29
      13      -0.81327036       0.000000009       0.000000893            32

    CHF Iterations converged


    Iter     Energy [mEh]          dE [mEh]         Residual      Time [s]
       1      -0.66728431       0.667284313       3.289266870             2
       2      -0.81212291       0.144838596       0.712601879             5
       3      -0.81446140       0.002338488       0.225978577             8
       4      -0.81237018      -0.002091213       0.071831086            10
       5      -0.81215457      -0.000215612       0.020180906            12
       6      -0.81231971       0.000165133       0.005895846            15
       7      -0.81232749       0.000007786       0.001850429            17
       8      -0.81231482      -0.000012671       0.000560724            20
       9      -0.81231656       0.000001743       0.000183392            22
      10      -0.81231706       0.000000495       0.000055176            25
      11      -0.81231694      -0.000000117       0.000015148            27
      12      -0.81231690      -0.000000038       0.000003803            29
      13      -0.81231691       0.000000009       0.000000892            32

    CHF Iterations converged

    Ind20,r (A<-B)      =    -0.000813270365 [Eh]
    Ind20,r (B<-A)      =    -0.000812316913 [Eh]
    Ind20,r             =    -0.001625587278 [Eh]
    Exch-Ind20,r (A<-B) =     0.000702541711 [Eh]
    Exch-Ind20,r (B<-A) =     0.000701427471 [Eh]
    Exch-Ind20,r        =     0.001403969182 [Eh]
    Disp20              =    -0.011307459364 [Eh]
    Disp20 (SS)         =    -0.005653729682 [Eh]
    Disp20 (OS)         =    -0.005653729682 [Eh]
    Exch-Disp20         =     0.000990889965 [Eh]
    Exch-Disp20 (SS)    =     0.000651643415 [Eh]
    Exch-Disp20 (OS)    =     0.000339246549 [Eh]

    SAPT Results 
  --------------------------------------------------------------------------------------------------------
    Electrostatics                 -2.76831256 [mEh]      -1.73714236 [kcal/mol]      -7.26820362 [kJ/mol]
      Elst10,r                     -2.76831256 [mEh]      -1.73714236 [kcal/mol]      -7.26820362 [kJ/mol]

    Exchange                        8.44476181 [mEh]       5.29916804 [kcal/mol]      22.17171908 [kJ/mol]
      Exch10                        8.44476181 [mEh]       5.29916804 [kcal/mol]      22.17171908 [kJ/mol]
      Exch10(S^2)                   8.42352743 [mEh]       5.28584326 [kcal/mol]      22.11596821 [kJ/mol]

    Induction                      -0.84989475 [mEh]      -0.53331701 [kcal/mol]      -2.23139836 [kJ/mol]
      Ind20,r                      -1.62558728 [mEh]      -1.02007142 [kcal/mol]      -4.26797881 [kJ/mol]
      Exch-Ind20,r                  1.40396918 [mEh]       0.88100396 [kcal/mol]       3.68612058 [kJ/mol]
      delta HF,r (2)               -0.62827665 [mEh]      -0.39424955 [kcal/mol]      -1.64954013 [kJ/mol]

    Dispersion                    -10.31656940 [mEh]      -6.47374504 [kcal/mol]     -27.08614923 [kJ/mol]
      Disp20                      -11.30745936 [mEh]      -7.09553788 [kcal/mol]     -29.68773047 [kJ/mol]
      Exch-Disp20                   0.99088996 [mEh]       0.62179284 [kcal/mol]       2.60158124 [kJ/mol]
      Disp20 (SS)                  -5.65372968 [mEh]      -3.54776894 [kcal/mol]     -14.84386524 [kJ/mol]
      Disp20 (OS)                  -5.65372968 [mEh]      -3.54776894 [kcal/mol]     -14.84386524 [kJ/mol]
      Exch-Disp20 (SS)              0.65164342 [mEh]       0.40891242 [kcal/mol]       1.71088955 [kJ/mol]
      Exch-Disp20 (OS)              0.33924655 [mEh]       0.21288042 [kcal/mol]       0.89069169 [kJ/mol]

  Total HF                          4.82655451 [mEh]       3.02870868 [kcal/mol]      12.67211711 [kJ/mol]
  Total SAPT0                      -5.49001489 [mEh]      -3.44503636 [kcal/mol]     -14.41403212 [kJ/mol]

  Special recipe for scaled SAPT0 (see Manual):
    Electrostatics sSAPT0          -2.76831256 [mEh]      -1.73714236 [kcal/mol]      -7.26820362 [kJ/mol]
    Exchange sSAPT0                 8.44476181 [mEh]       5.29916804 [kcal/mol]      22.17171908 [kJ/mol]
    Induction sSAPT0               -0.83925041 [mEh]      -0.52663758 [kcal/mol]      -2.20345164 [kJ/mol]
    Dispersion sSAPT0             -10.30905686 [mEh]      -6.46903085 [kcal/mol]     -27.06642506 [kJ/mol]
  Total sSAPT0                     -5.47185801 [mEh]      -3.43364274 [kcal/mol]     -14.36636123 [kJ/mol]
  --------------------------------------------------------------------------------------------------------

*** tstop() called on r282 at Thu Sep  9 12:14:01 2021
Module time:
	user time   =     268.29 seconds =       4.47 minutes
	system time =      38.89 seconds =       0.65 minutes
	total time  =        308 seconds =       5.13 minutes
Total time:
	user time   =     686.29 seconds =      11.44 minutes
	system time =      44.82 seconds =       0.75 minutes
	total time  =        732 seconds =      12.20 minutes

    Psi4 stopped on: Thursday, 09 September 2021 12:14PM
    Psi4 wall time for execution: 0:12:12.36

*** Psi4 exiting successfully. Buy a developer a beer!
