
    -----------------------------------------------------------------------
          Psi4: An Open-Source Ab Initio Electronic Structure Package
                               Psi4 1.3.2 release

                         Git: Rev {HEAD} ecbda83 


    R. M. Parrish, L. A. Burns, D. G. A. Smith, A. C. Simmonett,
    A. E. DePrince III, E. G. Hohenstein, U. Bozkaya, A. Yu. Sokolov,
    R. Di Remigio, R. M. Richard, J. F. Gonthier, A. M. James,
    H. R. McAlexander, A. Kumar, M. Saitow, X. Wang, B. P. Pritchard,
    P. Verma, H. F. Schaefer III, K. Patkowski, R. A. King, E. F. Valeev,
    F. A. Evangelista, J. M. Turney, T. D. Crawford, and C. D. Sherrill,
    J. Chem. Theory Comput. 13(7) pp 3185--3197 (2017).
    (doi: 10.1021/acs.jctc.7b00174)


                         Additional Contributions by
    P. Kraus, H. Kruse, M. H. Lechner, M. C. Schieber, R. A. Shaw,
    A. Alenaizan, R. Galvelis, Z. L. Glick, S. Lehtola, and J. P. Misiewicz

    -----------------------------------------------------------------------


    Psi4 started on: Friday, 10 September 2021 06:23PM

    Process ID: 56968
    Host:       r282
    PSIDATADIR: /home/r08543048/miniconda3/share/psi4
    Memory:     500.0 MiB
    Threads:    1
    
  ==> Input File <==

--------------------------------------------------------------------------
# Any line starting with the # character is a comment line
#! Sample  computation

memory 22 gb

molecule Dimer {
0 1
 C 2.199678   -1.624977    0.425300
 C 1.327633   -0.617143    0.329009
 C 1.393756    0.472493   -0.692088
 C 1.532712    1.846565   -0.036941
 H 2.109767   -2.376406    1.197416
 H 3.023693   -1.717845   -0.271366
 H 0.514425   -0.549927    1.046636
 H 2.230288    0.287306   -1.369235
 H 0.480525    0.461072   -1.293603
 H 0.693230    2.033311    0.633485
 H 2.451306    1.901888    0.546823
 H 1.552084    2.639519   -0.784322








 --
0 1
 C -2.233844    0.842926    0.858782
 C -2.180304    0.217813   -0.320718
 C -2.071854   -1.263060   -0.490927
 H -2.313010    1.919185    0.922187
 H -2.205478    0.285669    1.787066
 H -2.216445    0.815028   -1.226603
 H -1.153432   -1.529581   -1.017578
 H -2.068032   -1.768243    0.474238
 H -2.905575   -1.648682   -1.079657








units angstrom

no_reorient
symmetry c1
}

set globals{
  basis jun-cc-pvtz
}

energy('sapt0')


--------------------------------------------------------------------------

  Memory set to  20.489 GiB by Python driver.

  //>>>>>>>>>>>>>>>>>>>>>>>>>>>>>>>>>>>//
  //              Dimer HF             //
  //<<<<<<<<<<<<<<<<<<<<<<<<<<<<<<<<<<<//


*** tstart() called on r282
*** at Fri Sep 10 18:23:30 2021

   => Loading Basis Set <=

    Name: JUN-CC-PVTZ
    Role: ORBITAL
    Keyword: BASIS
    atoms 1-4, 13-15  entry C          line   217 file /home/r08543048/miniconda3/share/psi4/basis/jun-cc-pvtz.gbs 
    atoms 5-12, 16-21 entry H          line    36 file /home/r08543048/miniconda3/share/psi4/basis/jun-cc-pvtz.gbs 


         ---------------------------------------------------------
                                   SCF
               by Justin Turney, Rob Parrish, Andy Simmonett
                          and Daniel G. A. Smith
                              RHF Reference
                        1 Threads,  20980 MiB Core
         ---------------------------------------------------------

  ==> Geometry <==

    Molecular point group: c1
    Full point group: C1

    Geometry (in Angstrom), charge = 0, multiplicity = 1:

       Center              X                  Y                   Z               Mass       
    ------------   -----------------  -----------------  -----------------  -----------------
         C            2.201633131386    -1.617369022267     0.420906024900    12.000000000000
         C            1.329588131386    -0.609535022267     0.324615024900    12.000000000000
         C            1.395711131386     0.480100977733    -0.696481975100    12.000000000000
         C            1.534667131386     1.854172977733    -0.041334975100    12.000000000000
         H            2.111722131386    -2.368798022267     1.193022024900     1.007825032230
         H            3.025648131386    -1.710237022267    -0.275759975100     1.007825032230
         H            0.516380131386    -0.542319022267     1.042242024900     1.007825032230
         H            2.232243131386     0.294913977733    -1.373628975100     1.007825032230
         H            0.482480131386     0.468679977733    -1.297996975100     1.007825032230
         H            0.695185131386     2.040918977733     0.629091024900     1.007825032230
         H            2.453261131386     1.909495977733     0.542429024900     1.007825032230
         H            1.554039131386     2.647126977733    -0.788715975100     1.007825032230
         C           -2.231888868614     0.850533977733     0.854388024900    12.000000000000
         C           -2.178348868614     0.225420977733    -0.325111975100    12.000000000000
         C           -2.069898868614    -1.255452022267    -0.495320975100    12.000000000000
         H           -2.311054868614     1.926792977733     0.917793024900     1.007825032230
         H           -2.203522868614     0.293276977733     1.782672024900     1.007825032230
         H           -2.214489868614     0.822635977733    -1.230996975100     1.007825032230
         H           -1.151476868614    -1.521973022267    -1.021971975100     1.007825032230
         H           -2.066076868614    -1.760635022267     0.469844024900     1.007825032230
         H           -2.903619868614    -1.641074022267    -1.084050975100     1.007825032230

  Running in c1 symmetry.

  Rotational constants: A =      0.09232  B =      0.04272  C =      0.03360 [cm^-1]
  Rotational constants: A =   2767.69394  B =   1280.81211  C =   1007.45229 [MHz]
  Nuclear repulsion =  286.110115581807065

  Charge       = 0
  Multiplicity = 1
  Electrons    = 56
  Nalpha       = 28
  Nbeta        = 28

  ==> Algorithm <==

  SCF Algorithm Type is DF.
  DIIS enabled.
  MOM disabled.
  Fractional occupation disabled.
  Guess Type is SAD.
  Energy threshold   = 1.00e-08
  Density threshold  = 1.00e-08
  Integral threshold = 0.00e+00

  ==> Primary Basis <==

  Basis Set: JUN-CC-PVTZ
    Blend: JUN-CC-PVTZ
    Number of shells: 175
    Number of basis function: 469
    Number of Cartesian functions: 525
    Spherical Harmonics?: true
    Max angular momentum: 3

   => Loading Basis Set <=

    Name: (JUN-CC-PVTZ AUX)
    Role: JKFIT
    Keyword: DF_BASIS_SCF
    atoms 1-4, 13-15  entry C          line   152 file /home/r08543048/miniconda3/share/psi4/basis/jun-cc-pvtz-jkfit.gbs 
    atoms 5-12, 16-21 entry H          line    70 file /home/r08543048/miniconda3/share/psi4/basis/jun-cc-pvtz-jkfit.gbs 

  ==> Pre-Iterations <==

   -------------------------------------------------------
    Irrep   Nso     Nmo     Nalpha   Nbeta   Ndocc  Nsocc
   -------------------------------------------------------
     A        469     469       0       0       0       0
   -------------------------------------------------------
    Total     469     469      28      28      28       0
   -------------------------------------------------------

  ==> Integral Setup <==

  ==> DiskDFJK: Density-Fitted J/K Matrices <==

    J tasked:                  Yes
    K tasked:                  Yes
    wK tasked:                  No
    OpenMP threads:              1
    Integrals threads:           1
    Memory [MiB]:            15735
    Algorithm:                Core
    Integral Cache:           SAVE
    Schwarz Cutoff:          1E-12
    Fitting Condition:       1E-10

   => Auxiliary Basis Set <=

  Basis Set: (JUN-CC-PVTZ AUX)
    Blend: JUN-CC-PVTZ-JKFIT
    Number of shells: 343
    Number of basis function: 1085
    Number of Cartesian functions: 1302
    Spherical Harmonics?: true
    Max angular momentum: 4

  Minimum eigenvalue in the overlap matrix is 2.7216253745E-05.
  Using Symmetric Orthogonalization.

  SCF Guess: Superposition of Atomic Densities via on-the-fly atomic UHF.

  ==> Iterations <==

                           Total Energy        Delta E     RMS |[F,P]|

   @DF-RHF iter SAD:  -271.85861186968475   -2.71859e+02   0.00000e+00 
   @DF-RHF iter   1:  -272.98175284951463   -1.12314e+00   1.47322e-03 DIIS
   @DF-RHF iter   2:  -273.22690772298461   -2.45155e-01   6.45293e-04 DIIS
   @DF-RHF iter   3:  -273.27471708454863   -4.78094e-02   1.27792e-04 DIIS
   @DF-RHF iter   4:  -273.27793551259265   -3.21843e-03   4.97588e-05 DIIS
   @DF-RHF iter   5:  -273.27826599572290   -3.30483e-04   8.61914e-06 DIIS
   @DF-RHF iter   6:  -273.27828159269478   -1.55970e-05   1.67172e-06 DIIS
   @DF-RHF iter   7:  -273.27828225150699   -6.58812e-07   4.75289e-07 DIIS
   @DF-RHF iter   8:  -273.27828231316084   -6.16539e-08   1.65663e-07 DIIS
   @DF-RHF iter   9:  -273.27828232128036   -8.11951e-09   6.25338e-08 DIIS
   @DF-RHF iter  10:  -273.27828232291012   -1.62976e-09   1.88748e-08 DIIS
   @DF-RHF iter  11:  -273.27828232302812   -1.18007e-10   5.03399e-09 DIIS
  Energy and wave function converged.


  ==> Post-Iterations <==

    Orbital Energies [Eh]
    ---------------------

    Doubly Occupied:                                                      

       1A    -11.236829     2A    -11.227390     3A    -11.220730  
       4A    -11.220546     5A    -11.219807     6A    -11.214418  
       7A    -11.209784     8A     -1.078404     9A     -1.066777  
      10A     -0.984562    11A     -0.934521    12A     -0.852143  
      13A     -0.761556    14A     -0.751824    15A     -0.643073  
      16A     -0.640679    17A     -0.603274    18A     -0.584974  
      19A     -0.582965    20A     -0.568577    21A     -0.530924  
      22A     -0.524198    23A     -0.512473    24A     -0.495559  
      25A     -0.482782    26A     -0.473256    27A     -0.362280  
      28A     -0.353095  

    Virtual:                                                              

      29A      0.047957    30A      0.052291    31A      0.054738  
      32A      0.058719    33A      0.070166    34A      0.075010  
      35A      0.081731    36A      0.085173    37A      0.088075  
      38A      0.107351    39A      0.110431    40A      0.113277  
      41A      0.116972    42A      0.120364    43A      0.125337  
      44A      0.135431    45A      0.142296    46A      0.148977  
      47A      0.154960    48A      0.155927    49A      0.166663  
      50A      0.178178    51A      0.184940    52A      0.185843  
      53A      0.191931    54A      0.201976    55A      0.207232  
      56A      0.219941    57A      0.228044    58A      0.236510  
      59A      0.258929    60A      0.272347    61A      0.276248  
      62A      0.289407    63A      0.294719    64A      0.300329  
      65A      0.302766    66A      0.313133    67A      0.316716  
      68A      0.320585    69A      0.327911    70A      0.329017  
      71A      0.334401    72A      0.338032    73A      0.348464  
      74A      0.351513    75A      0.352520    76A      0.362591  
      77A      0.370798    78A      0.375290    79A      0.378893  
      80A      0.387248    81A      0.389816    82A      0.396586  
      83A      0.403380    84A      0.413898    85A      0.417765  
      86A      0.428846    87A      0.436178    88A      0.442525  
      89A      0.447755    90A      0.455733    91A      0.462580  
      92A      0.467383    93A      0.476773    94A      0.491601  
      95A      0.503023    96A      0.512431    97A      0.521037  
      98A      0.529454    99A      0.532571   100A      0.534955  
     101A      0.542681   102A      0.547918   103A      0.554627  
     104A      0.560049   105A      0.575158   106A      0.577203  
     107A      0.591161   108A      0.598225   109A      0.604606  
     110A      0.615926   111A      0.639658   112A      0.643661  
     113A      0.674450   114A      0.694766   115A      0.701613  
     116A      0.708636   117A      0.716282   118A      0.723019  
     119A      0.728277   120A      0.738243   121A      0.751248  
     122A      0.758595   123A      0.770915   124A      0.773119  
     125A      0.785896   126A      0.794831   127A      0.801081  
     128A      0.806039   129A      0.816617   130A      0.821076  
     131A      0.830684   132A      0.836592   133A      0.840978  
     134A      0.852555   135A      0.862700   136A      0.868666  
     137A      0.878557   138A      0.886274   139A      0.904151  
     140A      0.915478   141A      0.931196   142A      0.934997  
     143A      0.954148   144A      0.969294   145A      0.977253  
     146A      0.989973   147A      0.995064   148A      1.014535  
     149A      1.023424   150A      1.027697   151A      1.037776  
     152A      1.049118   153A      1.065258   154A      1.080645  
     155A      1.096547   156A      1.124414   157A      1.126697  
     158A      1.140864   159A      1.155360   160A      1.162056  
     161A      1.169633   162A      1.179780   163A      1.198240  
     164A      1.209498   165A      1.223198   166A      1.225743  
     167A      1.254524   168A      1.256678   169A      1.277422  
     170A      1.285071   171A      1.294131   172A      1.300026  
     173A      1.323583   174A      1.326907   175A      1.341088  
     176A      1.345085   177A      1.366091   178A      1.380397  
     179A      1.395963   180A      1.407595   181A      1.410786  
     182A      1.422667   183A      1.434904   184A      1.443715  
     185A      1.460910   186A      1.466402   187A      1.476435  
     188A      1.496670   189A      1.499043   190A      1.505069  
     191A      1.525925   192A      1.535253   193A      1.545690  
     194A      1.556964   195A      1.564203   196A      1.578693  
     197A      1.588054   198A      1.603280   199A      1.612907  
     200A      1.618129   201A      1.630077   202A      1.649415  
     203A      1.662773   204A      1.669630   205A      1.676544  
     206A      1.680493   207A      1.704150   208A      1.708602  
     209A      1.727843   210A      1.744635   211A      1.749795  
     212A      1.772208   213A      1.789076   214A      1.804230  
     215A      1.824289   216A      1.827561   217A      1.845942  
     218A      1.865882   219A      1.885514   220A      1.902199  
     221A      1.911625   222A      1.938971   223A      1.950887  
     224A      1.971024   225A      2.002103   226A      2.061589  
     227A      2.070414   228A      2.082882   229A      2.152320  
     230A      2.224663   231A      2.273749   232A      2.655785  
     233A      2.685103   234A      2.732145   235A      2.751430  
     236A      2.754791   237A      2.790429   238A      2.799608  
     239A      2.817588   240A      2.828200   241A      2.832539  
     242A      2.835828   243A      2.858123   244A      2.873853  
     245A      2.881212   246A      2.890745   247A      2.905201  
     248A      2.915835   249A      2.922693   250A      2.939252  
     251A      2.965209   252A      2.986892   253A      2.997690  
     254A      3.012185   255A      3.027857   256A      3.044356  
     257A      3.059319   258A      3.071255   259A      3.079226  
     260A      3.085169   261A      3.097966   262A      3.107945  
     263A      3.111434   264A      3.130400   265A      3.142712  
     266A      3.154626   267A      3.166794   268A      3.174970  
     269A      3.185953   270A      3.194746   271A      3.201547  
     272A      3.218408   273A      3.225274   274A      3.240700  
     275A      3.264767   276A      3.274346   277A      3.285219  
     278A      3.289398   279A      3.306183   280A      3.313354  
     281A      3.328630   282A      3.333846   283A      3.339811  
     284A      3.346031   285A      3.358744   286A      3.372181  
     287A      3.376118   288A      3.392746   289A      3.400358  
     290A      3.403660   291A      3.416044   292A      3.426339  
     293A      3.446673   294A      3.451544   295A      3.463804  
     296A      3.484498   297A      3.484832   298A      3.495274  
     299A      3.502097   300A      3.505850   301A      3.518547  
     302A      3.525800   303A      3.535065   304A      3.548431  
     305A      3.560535   306A      3.570494   307A      3.572887  
     308A      3.585119   309A      3.595575   310A      3.613152  
     311A      3.625785   312A      3.642669   313A      3.662751  
     314A      3.674837   315A      3.685769   316A      3.706185  
     317A      3.723796   318A      3.731774   319A      3.752200  
     320A      3.755281   321A      3.766782   322A      3.779505  
     323A      3.804262   324A      3.806630   325A      3.818095  
     326A      3.826190   327A      3.840338   328A      3.850246  
     329A      3.870739   330A      3.876678   331A      3.896812  
     332A      3.917691   333A      3.924471   334A      3.946845  
     335A      3.977926   336A      3.983519   337A      3.998919  
     338A      4.008720   339A      4.015259   340A      4.053970  
     341A      4.060395   342A      4.068546   343A      4.091751  
     344A      4.099937   345A      4.113330   346A      4.131267  
     347A      4.141296   348A      4.153156   349A      4.181859  
     350A      4.203485   351A      4.207774   352A      4.236992  
     353A      4.249668   354A      4.269701   355A      4.290429  
     356A      4.293883   357A      4.303454   358A      4.315782  
     359A      4.320958   360A      4.345100   361A      4.357626  
     362A      4.358391   363A      4.368900   364A      4.382276  
     365A      4.388894   366A      4.390825   367A      4.403442  
     368A      4.413788   369A      4.425832   370A      4.440197  
     371A      4.449336   372A      4.457495   373A      4.464988  
     374A      4.481667   375A      4.491684   376A      4.495012  
     377A      4.505806   378A      4.521604   379A      4.531879  
     380A      4.548407   381A      4.565323   382A      4.581301  
     383A      4.602721   384A      4.629680   385A      4.647665  
     386A      4.652586   387A      4.679290   388A      4.690644  
     389A      4.718288   390A      4.746117   391A      4.760992  
     392A      4.790491   393A      4.800112   394A      4.814303  
     395A      4.835758   396A      4.854221   397A      4.856994  
     398A      4.877714   399A      4.914787   400A      4.920775  
     401A      4.927748   402A      4.961392   403A      4.975184  
     404A      5.006471   405A      5.033191   406A      5.072369  
     407A      5.082798   408A      5.103154   409A      5.187867  
     410A      5.205445   411A      5.210092   412A      5.220132  
     413A      5.237753   414A      5.252590   415A      5.258526  
     416A      5.290563   417A      5.306269   418A      5.312112  
     419A      5.324800   420A      5.329943   421A      5.356335  
     422A      5.369434   423A      5.386865   424A      5.408274  
     425A      5.426362   426A      5.440900   427A      5.452912  
     428A      5.485288   429A      5.511921   430A      5.562633  
     431A      5.590372   432A      5.622083   433A      5.634608  
     434A      5.669517   435A      5.690734   436A      5.697289  
     437A      5.716300   438A      5.756126   439A      5.770321  
     440A      5.772190   441A      5.789133   442A      5.803742  
     443A      5.829221   444A      5.856645   445A      5.927030  
     446A      5.937448   447A      5.948079   448A      5.972263  
     449A      6.031220   450A      6.103979   451A      6.184169  
     452A      6.384924   453A      6.410852   454A      6.453843  
     455A      6.472088   456A      6.491748   457A      6.516397  
     458A      6.532142   459A      6.533704   460A      6.603375  
     461A      6.703693   462A      6.726555   463A     12.337908  
     464A     12.484192   465A     14.099714   466A     14.571700  
     467A     14.685993   468A     15.350836   469A     15.392116  

    Final Occupation by Irrep:
              A 
    DOCC [    28 ]

  @DF-RHF Final Energy:  -273.27828232302812

   => Energetics <=

    Nuclear Repulsion Energy =            286.1101155818070652
    One-Electron Energy =                -934.1019930651137884
    Two-Electron Energy =                 374.7135951602786577
    Total Energy =                       -273.2782823230281224

Computation Completed


Properties will be evaluated at   0.000000,   0.000000,   0.000000 [a0]

Properties computed using the SCF density matrix

  Nuclear Dipole Moment: [e a0]
     X:     0.2069      Y:     0.8051      Z:    -0.4650

  Electronic Dipole Moment: [e a0]
     X:    -0.3119      Y:    -0.7770      Z:     0.3003

  Dipole Moment: [e a0]
     X:    -0.1050      Y:     0.0281      Z:    -0.1647     Total:     0.1974

  Dipole Moment: [D]
     X:    -0.2668      Y:     0.0713      Z:    -0.4187     Total:     0.5016


*** tstop() called on r282 at Fri Sep 10 18:24:21 2021
Module time:
	user time   =      50.07 seconds =       0.83 minutes
	system time =       1.14 seconds =       0.02 minutes
	total time  =         51 seconds =       0.85 minutes
Total time:
	user time   =      50.07 seconds =       0.83 minutes
	system time =       1.14 seconds =       0.02 minutes
	total time  =         51 seconds =       0.85 minutes

  //>>>>>>>>>>>>>>>>>>>>>>>>>>>>>>>>>>>//
  //            Monomer A HF           //
  //<<<<<<<<<<<<<<<<<<<<<<<<<<<<<<<<<<<//


*** tstart() called on r282
*** at Fri Sep 10 18:24:21 2021

   => Loading Basis Set <=

    Name: JUN-CC-PVTZ
    Role: ORBITAL
    Keyword: BASIS
    atoms 1-4, 13-15  entry C          line   217 file /home/r08543048/miniconda3/share/psi4/basis/jun-cc-pvtz.gbs 
    atoms 5-12, 16-21 entry H          line    36 file /home/r08543048/miniconda3/share/psi4/basis/jun-cc-pvtz.gbs 


         ---------------------------------------------------------
                                   SCF
               by Justin Turney, Rob Parrish, Andy Simmonett
                          and Daniel G. A. Smith
                              RHF Reference
                        1 Threads,  20980 MiB Core
         ---------------------------------------------------------

  ==> Geometry <==

    Molecular point group: c1
    Full point group: C1

    Geometry (in Angstrom), charge = 0, multiplicity = 1:

       Center              X                  Y                   Z               Mass       
    ------------   -----------------  -----------------  -----------------  -----------------
         C            2.201633131386    -1.617369022267     0.420906024900    12.000000000000
         C            1.329588131386    -0.609535022267     0.324615024900    12.000000000000
         C            1.395711131386     0.480100977733    -0.696481975100    12.000000000000
         C            1.534667131386     1.854172977733    -0.041334975100    12.000000000000
         H            2.111722131386    -2.368798022267     1.193022024900     1.007825032230
         H            3.025648131386    -1.710237022267    -0.275759975100     1.007825032230
         H            0.516380131386    -0.542319022267     1.042242024900     1.007825032230
         H            2.232243131386     0.294913977733    -1.373628975100     1.007825032230
         H            0.482480131386     0.468679977733    -1.297996975100     1.007825032230
         H            0.695185131386     2.040918977733     0.629091024900     1.007825032230
         H            2.453261131386     1.909495977733     0.542429024900     1.007825032230
         H            1.554039131386     2.647126977733    -0.788715975100     1.007825032230
      Gh(C)          -2.231888868614     0.850533977733     0.854388024900    12.000000000000
      Gh(C)          -2.178348868614     0.225420977733    -0.325111975100    12.000000000000
      Gh(C)          -2.069898868614    -1.255452022267    -0.495320975100    12.000000000000
      Gh(H)          -2.311054868614     1.926792977733     0.917793024900     1.007825032230
      Gh(H)          -2.203522868614     0.293276977733     1.782672024900     1.007825032230
      Gh(H)          -2.214489868614     0.822635977733    -1.230996975100     1.007825032230
      Gh(H)          -1.151476868614    -1.521973022267    -1.021971975100     1.007825032230
      Gh(H)          -2.066076868614    -1.760635022267     0.469844024900     1.007825032230
      Gh(H)          -2.903619868614    -1.641074022267    -1.084050975100     1.007825032230

  Running in c1 symmetry.

  Rotational constants: A =      0.09232  B =      0.04272  C =      0.03360 [cm^-1]
  Rotational constants: A =   2767.69394  B =   1280.81211  C =   1007.45229 [MHz]
  Nuclear repulsion =  117.512309384495595

  Charge       = 0
  Multiplicity = 1
  Electrons    = 32
  Nalpha       = 16
  Nbeta        = 16

  ==> Algorithm <==

  SCF Algorithm Type is DF.
  DIIS enabled.
  MOM disabled.
  Fractional occupation disabled.
  Guess Type is SAD.
  Energy threshold   = 1.00e-08
  Density threshold  = 1.00e-08
  Integral threshold = 0.00e+00

  ==> Primary Basis <==

  Basis Set: JUN-CC-PVTZ
    Blend: JUN-CC-PVTZ
    Number of shells: 175
    Number of basis function: 469
    Number of Cartesian functions: 525
    Spherical Harmonics?: true
    Max angular momentum: 3

   => Loading Basis Set <=

    Name: (JUN-CC-PVTZ AUX)
    Role: JKFIT
    Keyword: DF_BASIS_SCF
    atoms 1-4, 13-15  entry C          line   152 file /home/r08543048/miniconda3/share/psi4/basis/jun-cc-pvtz-jkfit.gbs 
    atoms 5-12, 16-21 entry H          line    70 file /home/r08543048/miniconda3/share/psi4/basis/jun-cc-pvtz-jkfit.gbs 

  ==> Pre-Iterations <==

   -------------------------------------------------------
    Irrep   Nso     Nmo     Nalpha   Nbeta   Ndocc  Nsocc
   -------------------------------------------------------
     A        469     469       0       0       0       0
   -------------------------------------------------------
    Total     469     469      16      16      16       0
   -------------------------------------------------------

  ==> Integral Setup <==

  ==> DiskDFJK: Density-Fitted J/K Matrices <==

    J tasked:                  Yes
    K tasked:                  Yes
    wK tasked:                  No
    OpenMP threads:              1
    Integrals threads:           1
    Memory [MiB]:            15735
    Algorithm:                Core
    Integral Cache:           LOAD
    Schwarz Cutoff:          1E-12
    Fitting Condition:       1E-10

   => Auxiliary Basis Set <=

  Basis Set: (JUN-CC-PVTZ AUX)
    Blend: JUN-CC-PVTZ-JKFIT
    Number of shells: 343
    Number of basis function: 1085
    Number of Cartesian functions: 1302
    Spherical Harmonics?: true
    Max angular momentum: 4

  Minimum eigenvalue in the overlap matrix is 2.7216253745E-05.
  Using Symmetric Orthogonalization.

  SCF Guess: Superposition of Atomic Densities via on-the-fly atomic UHF.

  ==> Iterations <==

                           Total Energy        Delta E     RMS |[F,P]|

   @DF-RHF iter SAD:  -155.38724453687337   -1.55387e+02   0.00000e+00 
   @DF-RHF iter   1:  -155.99443044439863   -6.07186e-01   1.11576e-03 DIIS
   @DF-RHF iter   2:  -156.13438741178913   -1.39957e-01   4.94327e-04 DIIS
   @DF-RHF iter   3:  -156.16240094831784   -2.80135e-02   9.53010e-05 DIIS
   @DF-RHF iter   4:  -156.16424268165252   -1.84173e-03   3.52459e-05 DIIS
   @DF-RHF iter   5:  -156.16441014510161   -1.67463e-04   6.58818e-06 DIIS
   @DF-RHF iter   6:  -156.16441897033170   -8.82523e-06   1.19954e-06 DIIS
   @DF-RHF iter   7:  -156.16441932226368   -3.51932e-07   3.24871e-07 DIIS
   @DF-RHF iter   8:  -156.16441934838585   -2.61222e-08   9.60821e-08 DIIS
   @DF-RHF iter   9:  -156.16441935097728   -2.59143e-09   4.13026e-08 DIIS
   @DF-RHF iter  10:  -156.16441935150397   -5.26683e-10   1.31752e-08 DIIS
   @DF-RHF iter  11:  -156.16441935155748   -5.35181e-11   3.31182e-09 DIIS
  Energy and wave function converged.


  ==> Post-Iterations <==

    Orbital Energies [Eh]
    ---------------------

    Doubly Occupied:                                                      

       1A    -11.231282     2A    -11.224605     3A    -11.217610  
       4A    -11.214552     5A     -1.081361     6A     -0.988215  
       7A     -0.855797     8A     -0.755861     9A     -0.643609  
      10A     -0.606923    11A     -0.585706    12A     -0.535518  
      13A     -0.517066    14A     -0.487212    15A     -0.476869  
      16A     -0.357238  

    Virtual:                                                              

      17A      0.034035    18A      0.046560    19A      0.051355  
      20A      0.052511    21A      0.066178    22A      0.074183  
      23A      0.079727    24A      0.083746    25A      0.086108  
      26A      0.103521    27A      0.105760    28A      0.110511  
      29A      0.112923    30A      0.120360    31A      0.122540  
      32A      0.124651    33A      0.134961    34A      0.147338  
      35A      0.149968    36A      0.154881    37A      0.158631  
      38A      0.162908    39A      0.173224    40A      0.178882  
      41A      0.185111    42A      0.191388    43A      0.204611  
      44A      0.217840    45A      0.222076    46A      0.243032  
      47A      0.256995    48A      0.264628    49A      0.279772  
      50A      0.283727    51A      0.288338    52A      0.296563  
      53A      0.302846    54A      0.312615    55A      0.316029  
      56A      0.322081    57A      0.324439    58A      0.334508  
      59A      0.336312    60A      0.344476    61A      0.347936  
      62A      0.352501    63A      0.363772    64A      0.373733  
      65A      0.375825    66A      0.381894    67A      0.386401  
      68A      0.388250    69A      0.394364    70A      0.400175  
      71A      0.406803    72A      0.414430    73A      0.426368  
      74A      0.431968    75A      0.436372    76A      0.443254  
      77A      0.450411    78A      0.453743    79A      0.464569  
      80A      0.476227    81A      0.488397    82A      0.490545  
      83A      0.495532    84A      0.510175    85A      0.525769  
      86A      0.531969    87A      0.537216    88A      0.544531  
      89A      0.548387    90A      0.555956    91A      0.560639  
      92A      0.573556    93A      0.578998    94A      0.582216  
      95A      0.591638    96A      0.600763    97A      0.621233  
      98A      0.623490    99A      0.629539   100A      0.641757  
     101A      0.643030   102A      0.657439   103A      0.674232  
     104A      0.681786   105A      0.685322   106A      0.697073  
     107A      0.705197   108A      0.717442   109A      0.733304  
     110A      0.745108   111A      0.751295   112A      0.769779  
     113A      0.785140   114A      0.794960   115A      0.805196  
     116A      0.812709   117A      0.825163   118A      0.829929  
     119A      0.834874   120A      0.852970   121A      0.858001  
     122A      0.871402   123A      0.889951   124A      0.893462  
     125A      0.906880   126A      0.924126   127A      0.930544  
     128A      0.969032   129A      0.982193   130A      0.999394  
     131A      1.012648   132A      1.039302   133A      1.045588  
     134A      1.062243   135A      1.071755   136A      1.094144  
     137A      1.106848   138A      1.114955   139A      1.129652  
     140A      1.138226   141A      1.145447   142A      1.156947  
     143A      1.179199   144A      1.194262   145A      1.203305  
     146A      1.218507   147A      1.220840   148A      1.233867  
     149A      1.252494   150A      1.259995   151A      1.263680  
     152A      1.274168   153A      1.280307   154A      1.297754  
     155A      1.299846   156A      1.306530   157A      1.315478  
     158A      1.332902   159A      1.336462   160A      1.359860  
     161A      1.363961   162A      1.376890   163A      1.384542  
     164A      1.392371   165A      1.399543   166A      1.405334  
     167A      1.414248   168A      1.438473   169A      1.450996  
     170A      1.457512   171A      1.468373   172A      1.475640  
     173A      1.483564   174A      1.491353   175A      1.505357  
     176A      1.511946   177A      1.522691   178A      1.531680  
     179A      1.543167   180A      1.552472   181A      1.562907  
     182A      1.569548   183A      1.583568   184A      1.591977  
     185A      1.601118   186A      1.609227   187A      1.616481  
     188A      1.624618   189A      1.634078   190A      1.647470  
     191A      1.659534   192A      1.673132   193A      1.692931  
     194A      1.695928   195A      1.708311   196A      1.713979  
     197A      1.722904   198A      1.754131   199A      1.770921  
     200A      1.781499   201A      1.791859   202A      1.817396  
     203A      1.823459   204A      1.842325   205A      1.856888  
     206A      1.865928   207A      1.901678   208A      1.929588  
     209A      1.940080   210A      1.953156   211A      1.994078  
     212A      2.021144   213A      2.029097   214A      2.067872  
     215A      2.073474   216A      2.102731   217A      2.122255  
     218A      2.157856   219A      2.240781   220A      2.253656  
     221A      2.287072   222A      2.355194   223A      2.380263  
     224A      2.450797   225A      2.525160   226A      2.540785  
     227A      2.674764   228A      2.683353   229A      2.782081  
     230A      2.790637   231A      2.809643   232A      2.828972  
     233A      2.872541   234A      2.875978   235A      2.890907  
     236A      2.899013   237A      2.914838   238A      2.939945  
     239A      2.957861   240A      2.991257   241A      2.998172  
     242A      3.025239   243A      3.032821   244A      3.081326  
     245A      3.088660   246A      3.116731   247A      3.127726  
     248A      3.149167   249A      3.157438   250A      3.197955  
     251A      3.209238   252A      3.237145   253A      3.244290  
     254A      3.279304   255A      3.298550   256A      3.311113  
     257A      3.337216   258A      3.346324   259A      3.372078  
     260A      3.392200   261A      3.409206   262A      3.410522  
     263A      3.432609   264A      3.448322   265A      3.454561  
     266A      3.464256   267A      3.484822   268A      3.494440  
     269A      3.499318   270A      3.515100   271A      3.516585  
     272A      3.542267   273A      3.556521   274A      3.561454  
     275A      3.579016   276A      3.591759   277A      3.602336  
     278A      3.611056   279A      3.620970   280A      3.628756  
     281A      3.657327   282A      3.669447   283A      3.674692  
     284A      3.687865   285A      3.702112   286A      3.713679  
     287A      3.723010   288A      3.741197   289A      3.752103  
     290A      3.763787   291A      3.771353   292A      3.797675  
     293A      3.818416   294A      3.820808   295A      3.835183  
     296A      3.859393   297A      3.862646   298A      3.869951  
     299A      3.887600   300A      3.894623   301A      3.898651  
     302A      3.936903   303A      3.948392   304A      3.973491  
     305A      3.979359   306A      3.992787   307A      4.006593  
     308A      4.039250   309A      4.055806   310A      4.066454  
     311A      4.075931   312A      4.087676   313A      4.095895  
     314A      4.114741   315A      4.121520   316A      4.132267  
     317A      4.151843   318A      4.170337   319A      4.182464  
     320A      4.199672   321A      4.204119   322A      4.216038  
     323A      4.232719   324A      4.247486   325A      4.259149  
     326A      4.266620   327A      4.293320   328A      4.301586  
     329A      4.315347   330A      4.330860   331A      4.343284  
     332A      4.351839   333A      4.360877   334A      4.373766  
     335A      4.385149   336A      4.395438   337A      4.405113  
     338A      4.420374   339A      4.431331   340A      4.444450  
     341A      4.454413   342A      4.468016   343A      4.473659  
     344A      4.481301   345A      4.489664   346A      4.512054  
     347A      4.517639   348A      4.534667   349A      4.539525  
     350A      4.545015   351A      4.573647   352A      4.581881  
     353A      4.605522   354A      4.617994   355A      4.630302  
     356A      4.634800   357A      4.641704   358A      4.665349  
     359A      4.677584   360A      4.693772   361A      4.720831  
     362A      4.731405   363A      4.744100   364A      4.764312  
     365A      4.790241   366A      4.796684   367A      4.808679  
     368A      4.812697   369A      4.820581   370A      4.838344  
     371A      4.844574   372A      4.852228   373A      4.864134  
     374A      4.887483   375A      4.896291   376A      4.910401  
     377A      4.928133   378A      4.942139   379A      4.953275  
     380A      4.957955   381A      4.973760   382A      4.988534  
     383A      4.993166   384A      5.009400   385A      5.014242  
     386A      5.047596   387A      5.074231   388A      5.088988  
     389A      5.102841   390A      5.108886   391A      5.172197  
     392A      5.174495   393A      5.203220   394A      5.233982  
     395A      5.247887   396A      5.249573   397A      5.263799  
     398A      5.288764   399A      5.305825   400A      5.321168  
     401A      5.334074   402A      5.367224   403A      5.399102  
     404A      5.410851   405A      5.429286   406A      5.437517  
     407A      5.489755   408A      5.510125   409A      5.532020  
     410A      5.545243   411A      5.564951   412A      5.588377  
     413A      5.621992   414A      5.666547   415A      5.673733  
     416A      5.713077   417A      5.752167   418A      5.766672  
     419A      5.787909   420A      5.811074   421A      5.824460  
     422A      5.845476   423A      5.903520   424A      5.933042  
     425A      5.938503   426A      5.945513   427A      6.011177  
     428A      6.027454   429A      6.035543   430A      6.125496  
     431A      6.150206   432A      6.183184   433A      6.252167  
     434A      6.280694   435A      6.336729   436A      6.375365  
     437A      6.394650   438A      6.405767   439A      6.487357  
     440A      6.509200   441A      6.529504   442A      6.597107  
     443A      6.617107   444A      6.719430   445A      6.722964  
     446A      6.779223   447A      6.847890   448A      7.097442  
     449A      7.395144   450A      7.435604   451A      7.569366  
     452A      7.607019   453A      7.651219   454A      7.817778  
     455A      7.914610   456A      7.979335   457A      8.111509  
     458A      8.298197   459A      8.739851   460A      9.412696  
     461A      9.909596   462A     10.207495   463A     12.483577  
     464A     14.096615   465A     14.567998   466A     15.367529  
     467A     41.079142   468A     45.944537   469A     47.255229  

    Final Occupation by Irrep:
              A 
    DOCC [    16 ]

  @DF-RHF Final Energy:  -156.16441935155748

   => Energetics <=

    Nuclear Repulsion Energy =            117.5123093844955946
    One-Electron Energy =                -441.7946114582733230
    Two-Electron Energy =                 168.1178827222202301
    Total Energy =                       -156.1644193515574841

Computation Completed


Properties will be evaluated at   0.000000,   0.000000,   0.000000 [a0]

Properties computed using the SCF density matrix

  Nuclear Dipole Moment: [e a0]
     X:    97.9645      Y:     6.3948      Z:    -0.5350

  Electronic Dipole Moment: [e a0]
     X:   -98.0231      Y:    -6.2463      Z:     0.4702

  Dipole Moment: [e a0]
     X:    -0.0587      Y:     0.1485      Z:    -0.0648     Total:     0.1723

  Dipole Moment: [D]
     X:    -0.1491      Y:     0.3775      Z:    -0.1647     Total:     0.4380


*** tstop() called on r282 at Fri Sep 10 18:24:52 2021
Module time:
	user time   =      29.48 seconds =       0.49 minutes
	system time =       0.59 seconds =       0.01 minutes
	total time  =         31 seconds =       0.52 minutes
Total time:
	user time   =      79.55 seconds =       1.33 minutes
	system time =       1.73 seconds =       0.03 minutes
	total time  =         82 seconds =       1.37 minutes

  //>>>>>>>>>>>>>>>>>>>>>>>>>>>>>>>>>>>//
  //            Monomer B HF           //
  //<<<<<<<<<<<<<<<<<<<<<<<<<<<<<<<<<<<//


*** tstart() called on r282
*** at Fri Sep 10 18:24:52 2021

   => Loading Basis Set <=

    Name: JUN-CC-PVTZ
    Role: ORBITAL
    Keyword: BASIS
    atoms 1-4, 13-15  entry C          line   217 file /home/r08543048/miniconda3/share/psi4/basis/jun-cc-pvtz.gbs 
    atoms 5-12, 16-21 entry H          line    36 file /home/r08543048/miniconda3/share/psi4/basis/jun-cc-pvtz.gbs 


         ---------------------------------------------------------
                                   SCF
               by Justin Turney, Rob Parrish, Andy Simmonett
                          and Daniel G. A. Smith
                              RHF Reference
                        1 Threads,  20980 MiB Core
         ---------------------------------------------------------

  ==> Geometry <==

    Molecular point group: c1
    Full point group: C1

    Geometry (in Angstrom), charge = 0, multiplicity = 1:

       Center              X                  Y                   Z               Mass       
    ------------   -----------------  -----------------  -----------------  -----------------
      Gh(C)           2.201633131386    -1.617369022267     0.420906024900    12.000000000000
      Gh(C)           1.329588131386    -0.609535022267     0.324615024900    12.000000000000
      Gh(C)           1.395711131386     0.480100977733    -0.696481975100    12.000000000000
      Gh(C)           1.534667131386     1.854172977733    -0.041334975100    12.000000000000
      Gh(H)           2.111722131386    -2.368798022267     1.193022024900     1.007825032230
      Gh(H)           3.025648131386    -1.710237022267    -0.275759975100     1.007825032230
      Gh(H)           0.516380131386    -0.542319022267     1.042242024900     1.007825032230
      Gh(H)           2.232243131386     0.294913977733    -1.373628975100     1.007825032230
      Gh(H)           0.482480131386     0.468679977733    -1.297996975100     1.007825032230
      Gh(H)           0.695185131386     2.040918977733     0.629091024900     1.007825032230
      Gh(H)           2.453261131386     1.909495977733     0.542429024900     1.007825032230
      Gh(H)           1.554039131386     2.647126977733    -0.788715975100     1.007825032230
         C           -2.231888868614     0.850533977733     0.854388024900    12.000000000000
         C           -2.178348868614     0.225420977733    -0.325111975100    12.000000000000
         C           -2.069898868614    -1.255452022267    -0.495320975100    12.000000000000
         H           -2.311054868614     1.926792977733     0.917793024900     1.007825032230
         H           -2.203522868614     0.293276977733     1.782672024900     1.007825032230
         H           -2.214489868614     0.822635977733    -1.230996975100     1.007825032230
         H           -1.151476868614    -1.521973022267    -1.021971975100     1.007825032230
         H           -2.066076868614    -1.760635022267     0.469844024900     1.007825032230
         H           -2.903619868614    -1.641074022267    -1.084050975100     1.007825032230

  Running in c1 symmetry.

  Rotational constants: A =      0.09232  B =      0.04272  C =      0.03360 [cm^-1]
  Rotational constants: A =   2767.69394  B =   1280.81211  C =   1007.45229 [MHz]
  Nuclear repulsion =   70.857167871294081

  Charge       = 0
  Multiplicity = 1
  Electrons    = 24
  Nalpha       = 12
  Nbeta        = 12

  ==> Algorithm <==

  SCF Algorithm Type is DF.
  DIIS enabled.
  MOM disabled.
  Fractional occupation disabled.
  Guess Type is SAD.
  Energy threshold   = 1.00e-08
  Density threshold  = 1.00e-08
  Integral threshold = 0.00e+00

  ==> Primary Basis <==

  Basis Set: JUN-CC-PVTZ
    Blend: JUN-CC-PVTZ
    Number of shells: 175
    Number of basis function: 469
    Number of Cartesian functions: 525
    Spherical Harmonics?: true
    Max angular momentum: 3

   => Loading Basis Set <=

    Name: (JUN-CC-PVTZ AUX)
    Role: JKFIT
    Keyword: DF_BASIS_SCF
    atoms 1-4, 13-15  entry C          line   152 file /home/r08543048/miniconda3/share/psi4/basis/jun-cc-pvtz-jkfit.gbs 
    atoms 5-12, 16-21 entry H          line    70 file /home/r08543048/miniconda3/share/psi4/basis/jun-cc-pvtz-jkfit.gbs 

  ==> Pre-Iterations <==

   -------------------------------------------------------
    Irrep   Nso     Nmo     Nalpha   Nbeta   Ndocc  Nsocc
   -------------------------------------------------------
     A        469     469       0       0       0       0
   -------------------------------------------------------
    Total     469     469      12      12      12       0
   -------------------------------------------------------

  ==> Integral Setup <==

  ==> DiskDFJK: Density-Fitted J/K Matrices <==

    J tasked:                  Yes
    K tasked:                  Yes
    wK tasked:                  No
    OpenMP threads:              1
    Integrals threads:           1
    Memory [MiB]:            15735
    Algorithm:                Core
    Integral Cache:           LOAD
    Schwarz Cutoff:          1E-12
    Fitting Condition:       1E-10

   => Auxiliary Basis Set <=

  Basis Set: (JUN-CC-PVTZ AUX)
    Blend: JUN-CC-PVTZ-JKFIT
    Number of shells: 343
    Number of basis function: 1085
    Number of Cartesian functions: 1302
    Spherical Harmonics?: true
    Max angular momentum: 4

  Minimum eigenvalue in the overlap matrix is 2.7216253745E-05.
  Using Symmetric Orthogonalization.

  SCF Guess: Superposition of Atomic Densities via on-the-fly atomic UHF.

  ==> Iterations <==

                           Total Energy        Delta E     RMS |[F,P]|

   @DF-RHF iter SAD:  -116.33247601943310   -1.16332e+02   0.00000e+00 
   @DF-RHF iter   1:  -116.98783233700931   -6.55356e-01   9.77398e-04 DIIS
   @DF-RHF iter   2:  -117.09545791615882   -1.07626e-01   4.19697e-04 DIIS
   @DF-RHF iter   3:  -117.11555063477400   -2.00927e-02   7.55073e-05 DIIS
   @DF-RHF iter   4:  -117.11684562678184   -1.29499e-03   2.28434e-05 DIIS
   @DF-RHF iter   5:  -117.11692030131110   -7.46745e-05   6.10525e-06 DIIS
   @DF-RHF iter   6:  -117.11692652327423   -6.22196e-06   1.10305e-06 DIIS
   @DF-RHF iter   7:  -117.11692683250013   -3.09226e-07   4.05589e-07 DIIS
   @DF-RHF iter   8:  -117.11692687352269   -4.10226e-08   1.40470e-07 DIIS
   @DF-RHF iter   9:  -117.11692687941274   -5.89006e-09   5.10186e-08 DIIS
   @DF-RHF iter  10:  -117.11692688036197   -9.49228e-10   1.15668e-08 DIIS
   @DF-RHF iter  11:  -117.11692688040372   -4.17515e-11   2.04105e-09 DIIS
  Energy and wave function converged.


  ==> Post-Iterations <==

    Orbital Energies [Eh]
    ---------------------

    Doubly Occupied:                                                      

       1A    -11.234417     2A    -11.220891     3A    -11.217582  
       4A     -1.064806     5A     -0.932947     6A     -0.758041  
       7A     -0.639715     8A     -0.582776     9A     -0.568920  
      10A     -0.522988    11A     -0.492951    12A     -0.357986  

    Virtual:                                                              

      13A      0.030711    14A      0.044997    15A      0.051192  
      16A      0.056455    17A      0.067986    18A      0.072437  
      19A      0.077051    20A      0.079600    21A      0.085424  
      22A      0.098849    23A      0.107648    24A      0.109816  
      25A      0.114227    26A      0.116876    27A      0.120874  
      28A      0.129116    29A      0.135448    30A      0.145116  
      31A      0.147110    32A      0.152341    33A      0.154141  
      34A      0.162569    35A      0.168651    36A      0.171713  
      37A      0.185275    38A      0.190086    39A      0.194466  
      40A      0.211132    41A      0.215976    42A      0.246052  
      43A      0.262829    44A      0.272602    45A      0.276255  
      46A      0.285552    47A      0.289794    48A      0.299041  
      49A      0.305861    50A      0.311840    51A      0.321575  
      52A      0.326876    53A      0.328867    54A      0.335978  
      55A      0.338270    56A      0.344548    57A      0.352310  
      58A      0.356439    59A      0.364294    60A      0.367635  
      61A      0.373154    62A      0.376501    63A      0.378367  
      64A      0.386916    65A      0.393751    66A      0.396476  
      67A      0.397778    68A      0.409041    69A      0.415468  
      70A      0.423525    71A      0.430937    72A      0.445455  
      73A      0.449738    74A      0.460476    75A      0.468193  
      76A      0.485408    77A      0.491550    78A      0.496495  
      79A      0.507992    80A      0.521562    81A      0.524846  
      82A      0.531020    83A      0.537940    84A      0.542044  
      85A      0.549781    86A      0.555185    87A      0.573109  
      88A      0.577094    89A      0.591415    90A      0.599170  
      91A      0.605447    92A      0.613968    93A      0.622265  
      94A      0.628202    95A      0.636459    96A      0.638869  
      97A      0.644334    98A      0.651512    99A      0.677583  
     100A      0.688202   101A      0.690718   102A      0.699621  
     103A      0.713590   104A      0.730688   105A      0.734339  
     106A      0.740399   107A      0.752809   108A      0.760516  
     109A      0.778714   110A      0.791584   111A      0.799553  
     112A      0.812679   113A      0.817865   114A      0.819588  
     115A      0.837040   116A      0.851614   117A      0.868136  
     118A      0.893088   119A      0.906976   120A      0.913747  
     121A      0.931992   122A      0.949860   123A      0.967203  
     124A      0.995768   125A      1.025773   126A      1.045322  
     127A      1.055742   128A      1.079349   129A      1.084333  
     130A      1.099964   131A      1.111215   132A      1.120966  
     133A      1.124463   134A      1.137847   135A      1.146805  
     136A      1.158197   137A      1.168176   138A      1.183940  
     139A      1.189324   140A      1.192936   141A      1.213629  
     142A      1.231583   143A      1.240379   144A      1.244467  
     145A      1.246992   146A      1.264703   147A      1.268353  
     148A      1.281746   149A      1.293654   150A      1.298161  
     151A      1.310038   152A      1.320169   153A      1.333140  
     154A      1.339500   155A      1.360964   156A      1.367939  
     157A      1.378710   158A      1.380250   159A      1.391080  
     160A      1.397361   161A      1.422825   162A      1.430198  
     163A      1.430406   164A      1.443013   165A      1.457244  
     166A      1.463862   167A      1.468867   168A      1.477847  
     169A      1.480566   170A      1.490859   171A      1.513371  
     172A      1.521543   173A      1.525908   174A      1.542436  
     175A      1.551075   176A      1.554928   177A      1.567808  
     178A      1.575077   179A      1.591736   180A      1.597511  
     181A      1.603384   182A      1.610006   183A      1.625454  
     184A      1.631907   185A      1.644437   186A      1.661339  
     187A      1.665222   188A      1.678162   189A      1.692629  
     190A      1.705876   191A      1.725137   192A      1.734785  
     193A      1.757375   194A      1.767701   195A      1.793408  
     196A      1.803762   197A      1.813865   198A      1.831785  
     199A      1.863686   200A      1.880224   201A      1.894001  
     202A      1.900901   203A      1.930345   204A      1.944299  
     205A      1.970542   206A      1.993179   207A      2.008982  
     208A      2.045287   209A      2.069665   210A      2.088115  
     211A      2.111812   212A      2.156004   213A      2.161613  
     214A      2.219999   215A      2.233527   216A      2.247097  
     217A      2.283389   218A      2.378397   219A      2.395248  
     220A      2.441685   221A      2.453216   222A      2.514468  
     223A      2.542536   224A      2.564363   225A      2.615900  
     226A      2.733011   227A      2.737571   228A      2.749932  
     229A      2.801928   230A      2.826407   231A      2.844585  
     232A      2.872059   233A      2.879951   234A      2.906410  
     235A      2.931326   236A      2.935106   237A      3.023417  
     238A      3.048667   239A      3.078367   240A      3.088910  
     241A      3.118466   242A      3.129589   243A      3.178799  
     244A      3.190943   245A      3.209330   246A      3.233641  
     247A      3.247891   248A      3.275913   249A      3.312552  
     250A      3.333670   251A      3.352512   252A      3.352617  
     253A      3.383362   254A      3.399567   255A      3.437331  
     256A      3.446870   257A      3.462895   258A      3.481904  
     259A      3.497333   260A      3.505637   261A      3.524152  
     262A      3.535325   263A      3.540214   264A      3.566235  
     265A      3.578326   266A      3.588681   267A      3.596328  
     268A      3.600702   269A      3.610585   270A      3.629763  
     271A      3.642716   272A      3.660911   273A      3.663695  
     274A      3.681744   275A      3.694658   276A      3.704933  
     277A      3.732176   278A      3.737149   279A      3.752772  
     280A      3.764633   281A      3.772503   282A      3.785751  
     283A      3.798143   284A      3.809415   285A      3.818274  
     286A      3.838385   287A      3.847008   288A      3.853553  
     289A      3.858618   290A      3.873101   291A      3.889602  
     292A      3.908495   293A      3.934631   294A      3.957947  
     295A      3.968911   296A      3.986183   297A      3.994941  
     298A      4.013885   299A      4.041804   300A      4.044267  
     301A      4.052189   302A      4.077722   303A      4.088931  
     304A      4.098059   305A      4.106250   306A      4.117369  
     307A      4.134765   308A      4.151850   309A      4.164834  
     310A      4.183635   311A      4.186658   312A      4.201717  
     313A      4.212262   314A      4.231580   315A      4.264727  
     316A      4.276219   317A      4.296762   318A      4.310710  
     319A      4.317944   320A      4.341175   321A      4.349768  
     322A      4.356800   323A      4.381309   324A      4.385152  
     325A      4.400855   326A      4.412400   327A      4.415459  
     328A      4.422757   329A      4.446769   330A      4.459966  
     331A      4.473840   332A      4.481745   333A      4.491318  
     334A      4.502921   335A      4.506586   336A      4.516486  
     337A      4.528835   338A      4.539965   339A      4.563272  
     340A      4.569026   341A      4.587798   342A      4.592399  
     343A      4.614999   344A      4.626953   345A      4.645870  
     346A      4.662252   347A      4.670770   348A      4.680517  
     349A      4.700601   350A      4.710695   351A      4.717143  
     352A      4.726161   353A      4.739344   354A      4.752313  
     355A      4.761791   356A      4.780398   357A      4.793355  
     358A      4.811525   359A      4.816275   360A      4.825513  
     361A      4.839250   362A      4.846538   363A      4.851354  
     364A      4.855702   365A      4.871330   366A      4.875093  
     367A      4.894938   368A      4.897256   369A      4.914106  
     370A      4.923877   371A      4.935981   372A      4.951463  
     373A      4.964286   374A      5.003691   375A      5.022035  
     376A      5.027470   377A      5.042001   378A      5.052526  
     379A      5.062623   380A      5.081138   381A      5.096924  
     382A      5.107671   383A      5.163768   384A      5.184040  
     385A      5.194255   386A      5.202607   387A      5.222429  
     388A      5.229538   389A      5.254332   390A      5.269920  
     391A      5.298338   392A      5.330883   393A      5.332351  
     394A      5.357738   395A      5.362145   396A      5.387228  
     397A      5.398436   398A      5.439085   399A      5.450870  
     400A      5.481641   401A      5.495962   402A      5.502323  
     403A      5.564070   404A      5.582107   405A      5.615412  
     406A      5.633383   407A      5.674236   408A      5.693245  
     409A      5.699434   410A      5.718743   411A      5.740454  
     412A      5.773735   413A      5.797689   414A      5.834228  
     415A      5.844776   416A      5.858102   417A      5.909828  
     418A      5.966848   419A      5.983165   420A      6.046723  
     421A      6.067941   422A      6.101181   423A      6.109067  
     424A      6.169227   425A      6.204106   426A      6.271303  
     427A      6.338419   428A      6.349772   429A      6.368942  
     430A      6.392773   431A      6.417415   432A      6.457759  
     433A      6.465936   434A      6.483018   435A      6.518508  
     436A      6.537284   437A      6.671957   438A      6.706570  
     439A      6.749149   440A      6.792438   441A      6.864952  
     442A      6.968680   443A      7.118137   444A      7.367911  
     445A      7.400260   446A      7.482068   447A      7.590300  
     448A      7.608124   449A      7.689449   450A      7.724173  
     451A      7.847813   452A      7.890927   453A      7.982794  
     454A      7.990394   455A      8.129267   456A      8.290078  
     457A      8.448550   458A      8.802646   459A      9.457366  
     460A      9.705197   461A      9.907453   462A     10.231106  
     463A     12.348004   464A     14.687108   465A     15.372480  
     466A     41.335232   467A     44.831194   468A     45.714557  
     469A     47.222942  

    Final Occupation by Irrep:
              A 
    DOCC [    12 ]

  @DF-RHF Final Energy:  -117.11692688040372

   => Energetics <=

    Nuclear Repulsion Energy =             70.8571678712940809
    One-Electron Energy =                -296.7601476836121606
    Two-Electron Energy =                 108.7860529319143552
    Total Energy =                       -117.1169268804037245

Computation Completed


Properties will be evaluated at   0.000000,   0.000000,   0.000000 [a0]

Properties computed using the SCF density matrix

  Nuclear Dipole Moment: [e a0]
     X:   -97.7575      Y:    -5.5897      Z:     0.0700

  Electronic Dipole Moment: [e a0]
     X:    97.7668      Y:     5.4641      Z:    -0.1787

  Dipole Moment: [e a0]
     X:     0.0093      Y:    -0.1256      Z:    -0.1088     Total:     0.1665

  Dipole Moment: [D]
     X:     0.0237      Y:    -0.3193      Z:    -0.2765     Total:     0.4231


*** tstop() called on r282 at Fri Sep 10 18:25:17 2021
Module time:
	user time   =      24.41 seconds =       0.41 minutes
	system time =       0.50 seconds =       0.01 minutes
	total time  =         25 seconds =       0.42 minutes
Total time:
	user time   =     103.96 seconds =       1.73 minutes
	system time =       2.23 seconds =       0.04 minutes
	total time  =        107 seconds =       1.78 minutes
  Constructing Basis Sets for SAPT...

   => Loading Basis Set <=

    Name: (JUN-CC-PVTZ AUX)
    Role: RIFIT
    Keyword: DF_BASIS_SAPT
    atoms 1-4, 13-15  entry C          line   132 file /home/r08543048/miniconda3/share/psi4/basis/jun-cc-pvtz-ri.gbs 
    atoms 5-12, 16-21 entry H          line    30 file /home/r08543048/miniconda3/share/psi4/basis/jun-cc-pvtz-ri.gbs 


  //>>>>>>>>>>>>>>>>>>>>>>>>>>>>>>>>>>>//
  //               SAPT0               //
  //<<<<<<<<<<<<<<<<<<<<<<<<<<<<<<<<<<<//


*** tstart() called on r282
*** at Fri Sep 10 18:25:17 2021

        SAPT0  
    Ed Hohenstein
     6 June 2009

      Orbital Information
  --------------------------
    NSO        =       469
    NMO        =       469
    NRI        =      1099
    NOCC A     =        16
    NOCC B     =        12
    FOCC A     =         0
    FOCC B     =         0
    NVIR A     =       453
    NVIR B     =       457

    Elst10,r            =    -0.003126569728 [Eh]
    Exch10              =     0.006989673826 [Eh]
    Exch10 (S^2)        =     0.006964556148 [Eh]

    Iter     Energy [mEh]          dE [mEh]         Residual      Time [s]
       1      -0.59137634       0.591376339       3.797407206             1
       2      -0.66409949       0.072723151       1.538796199             2
       3      -0.69606519       0.031965702       0.315289263             3
       4      -0.69576518      -0.000300014       0.099235816             4
       5      -0.69466564      -0.001099541       0.024357192             4
       6      -0.69471163       0.000045991       0.007641911             5
       7      -0.69478265       0.000071025       0.002023445             6
       8      -0.69476891      -0.000013743       0.000712211             7
       9      -0.69476839      -0.000000517       0.000216351             8
      10      -0.69476940       0.000001005       0.000058234             8
      11      -0.69476942       0.000000026       0.000014265             9
      12      -0.69476936      -0.000000063       0.000003225            10
      13      -0.69476937       0.000000007       0.000000823            11

    CHF Iterations converged


    Iter     Energy [mEh]          dE [mEh]         Residual      Time [s]
       1      -1.01877478       1.018774778       4.490972641             0
       2      -1.32222663       0.303451850       1.039870489             1
       3      -1.31767209      -0.004554535       0.371391499             2
       4      -1.31436851      -0.003303587       0.090876288             2
       5      -1.31461221       0.000243705       0.034621167             3
       6      -1.31494497       0.000332761       0.008378859             4
       7      -1.31489608      -0.000048895       0.003730983             4
       8      -1.31488404      -0.000012038       0.001012816             5
       9      -1.31488921       0.000005168       0.000210766             6
      10      -1.31488948       0.000000275       0.000053290             7
      11      -1.31488926      -0.000000219       0.000016654             7
      12      -1.31488925      -0.000000017       0.000004056             8
      13      -1.31488927       0.000000021       0.000000808             9

    CHF Iterations converged

    Ind20,r (A<-B)      =    -0.000694769368 [Eh]
    Ind20,r (B<-A)      =    -0.001314889267 [Eh]
    Ind20,r             =    -0.002009658635 [Eh]
    Exch-Ind20,r (A<-B) =     0.000575057069 [Eh]
    Exch-Ind20,r (B<-A) =     0.001227351857 [Eh]
    Exch-Ind20,r        =     0.001802408926 [Eh]
    Disp20              =    -0.008349037411 [Eh]
    Disp20 (SS)         =    -0.004174518705 [Eh]
    Disp20 (OS)         =    -0.004174518705 [Eh]
    Exch-Disp20         =     0.000892941942 [Eh]
    Exch-Disp20 (SS)    =     0.000577323334 [Eh]
    Exch-Disp20 (OS)    =     0.000315618608 [Eh]

    SAPT Results 
  --------------------------------------------------------------------------------------------------------
    Electrostatics                 -3.12656973 [mEh]      -1.96195212 [kcal/mol]      -8.20880769 [kJ/mol]
      Elst10,r                     -3.12656973 [mEh]      -1.96195212 [kcal/mol]      -8.20880769 [kJ/mol]

    Exchange                        6.98967383 [mEh]       4.38608654 [kcal/mol]      18.35138610 [kJ/mol]
      Exch10                        6.98967383 [mEh]       4.38608654 [kcal/mol]      18.35138610 [kJ/mol]
      Exch10(S^2)                   6.96455615 [mEh]       4.37032496 [kcal/mol]      18.28543965 [kJ/mol]

    Induction                      -0.79919516 [mEh]      -0.50150254 [kcal/mol]      -2.09828662 [kJ/mol]
      Ind20,r                      -2.00965864 [mEh]      -1.26107983 [kcal/mol]      -5.27635802 [kJ/mol]
      Exch-Ind20,r                  1.80240893 [mEh]       1.13102868 [kcal/mol]       4.73222398 [kJ/mol]
      delta HF,r (2)               -0.59194546 [mEh]      -0.37145138 [kcal/mol]      -1.55415258 [kJ/mol]

    Dispersion                     -7.45609547 [mEh]      -4.67877054 [kcal/mol]     -19.57597596 [kJ/mol]
      Disp20                       -8.34903741 [mEh]      -5.23910007 [kcal/mol]     -21.92039470 [kJ/mol]
      Exch-Disp20                   0.89294194 [mEh]       0.56032953 [kcal/mol]       2.34441874 [kJ/mol]
      Disp20 (SS)                  -4.17451871 [mEh]      -2.61955004 [kcal/mol]     -10.96019735 [kJ/mol]
      Disp20 (OS)                  -4.17451871 [mEh]      -2.61955004 [kcal/mol]     -10.96019735 [kJ/mol]
      Exch-Disp20 (SS)              0.57732333 [mEh]       0.36227586 [kcal/mol]       1.51576220 [kJ/mol]
      Exch-Disp20 (OS)              0.31561861 [mEh]       0.19805367 [kcal/mol]       0.82865654 [kJ/mol]

  Total HF                          3.06390893 [mEh]       1.92263188 [kcal/mol]       8.04429180 [kJ/mol]
  Total SAPT0                      -4.39218654 [mEh]      -2.75613866 [kcal/mol]     -11.53168416 [kJ/mol]

  Special recipe for scaled SAPT0 (see Manual):
    Electrostatics sSAPT0          -3.12656973 [mEh]      -1.96195212 [kcal/mol]      -8.20880769 [kJ/mol]
    Exchange sSAPT0                 6.98967383 [mEh]       4.38608654 [kcal/mol]      18.35138610 [kJ/mol]
    Induction sSAPT0               -0.77962358 [mEh]      -0.48922118 [kcal/mol]      -2.04690143 [kJ/mol]
    Dispersion sSAPT0              -7.44639940 [mEh]      -4.67268617 [kcal/mol]     -19.55051892 [kJ/mol]
  Total sSAPT0                     -4.36291888 [mEh]      -2.73777293 [kcal/mol]     -11.45484194 [kJ/mol]
  --------------------------------------------------------------------------------------------------------

*** tstop() called on r282 at Fri Sep 10 18:26:46 2021
Module time:
	user time   =      74.06 seconds =       1.23 minutes
	system time =      13.02 seconds =       0.22 minutes
	total time  =         89 seconds =       1.48 minutes
Total time:
	user time   =     178.15 seconds =       2.97 minutes
	system time =      15.25 seconds =       0.25 minutes
	total time  =        196 seconds =       3.27 minutes

    Psi4 stopped on: Friday, 10 September 2021 06:26PM
    Psi4 wall time for execution: 0:03:16.04

*** Psi4 exiting successfully. Buy a developer a beer!
