
    -----------------------------------------------------------------------
          Psi4: An Open-Source Ab Initio Electronic Structure Package
                               Psi4 1.3.2 release

                         Git: Rev {HEAD} ecbda83 


    R. M. Parrish, L. A. Burns, D. G. A. Smith, A. C. Simmonett,
    A. E. DePrince III, E. G. Hohenstein, U. Bozkaya, A. Yu. Sokolov,
    R. Di Remigio, R. M. Richard, J. F. Gonthier, A. M. James,
    H. R. McAlexander, A. Kumar, M. Saitow, X. Wang, B. P. Pritchard,
    P. Verma, H. F. Schaefer III, K. Patkowski, R. A. King, E. F. Valeev,
    F. A. Evangelista, J. M. Turney, T. D. Crawford, and C. D. Sherrill,
    J. Chem. Theory Comput. 13(7) pp 3185--3197 (2017).
    (doi: 10.1021/acs.jctc.7b00174)


                         Additional Contributions by
    P. Kraus, H. Kruse, M. H. Lechner, M. C. Schieber, R. A. Shaw,
    A. Alenaizan, R. Galvelis, Z. L. Glick, S. Lehtola, and J. P. Misiewicz

    -----------------------------------------------------------------------


    Psi4 started on: Friday, 10 September 2021 06:38PM

    Process ID: 56979
    Host:       r282
    PSIDATADIR: /home/r08543048/miniconda3/share/psi4
    Memory:     500.0 MiB
    Threads:    1
    
  ==> Input File <==

--------------------------------------------------------------------------
# Any line starting with the # character is a comment line
#! Sample  computation

memory 22 gb

molecule Dimer {
0 1
 C 0.972032   -2.438059   -0.353369
 C 1.724017   -1.408297    0.047022
 C 1.601407   -0.012079   -0.471645
 C 1.251921    0.988270    0.630784
 C 1.168094    2.412297    0.097513
 H 0.217261   -2.309183   -1.119417
 H 1.097785   -3.426289    0.067128
 H 2.471475   -1.575482    0.818173
 H 2.548056    0.293042   -0.929966
 H 0.835950    0.024987   -1.250972
 H 0.298130    0.700795    1.077795
 H 2.003801    0.929349    1.422300
 H 2.121520    2.721597   -0.333215
 H 0.409191    2.483119   -0.682692
 H 0.909484    3.120852    0.884254





 --
0 1
 C -2.228625    1.057866   -0.722813
 C -2.208134   -0.239402   -0.403967
 C -2.214490   -0.769764    0.993145
 H -2.224104    1.384297   -1.753567
 H -2.254274    1.820727    0.045553
 H -2.184719   -0.970927   -1.205749
 H -1.317874   -1.362591    1.183785
 H -2.254905    0.042198    1.718797
 H -3.074113   -1.421479    1.157776








units angstrom

no_reorient
symmetry c1
}

set globals{
  basis jun-cc-pvtz
}

energy('sapt0')


--------------------------------------------------------------------------

  Memory set to  20.489 GiB by Python driver.

  //>>>>>>>>>>>>>>>>>>>>>>>>>>>>>>>>>>>//
  //              Dimer HF             //
  //<<<<<<<<<<<<<<<<<<<<<<<<<<<<<<<<<<<//


*** tstart() called on r282
*** at Fri Sep 10 18:38:26 2021

   => Loading Basis Set <=

    Name: JUN-CC-PVTZ
    Role: ORBITAL
    Keyword: BASIS
    atoms 1-5, 16-18  entry C          line   217 file /home/r08543048/miniconda3/share/psi4/basis/jun-cc-pvtz.gbs 
    atoms 6-15, 19-24 entry H          line    36 file /home/r08543048/miniconda3/share/psi4/basis/jun-cc-pvtz.gbs 


         ---------------------------------------------------------
                                   SCF
               by Justin Turney, Rob Parrish, Andy Simmonett
                          and Daniel G. A. Smith
                              RHF Reference
                        1 Threads,  20980 MiB Core
         ---------------------------------------------------------

  ==> Geometry <==

    Molecular point group: c1
    Full point group: C1

    Geometry (in Angstrom), charge = 0, multiplicity = 1:

       Center              X                  Y                   Z               Mass       
    ------------   -----------------  -----------------  -----------------  -----------------
         C            0.968516119260    -2.416335128464    -0.343635509290    12.000000000000
         C            1.720501119260    -1.386573128464     0.056755490710    12.000000000000
         C            1.597891119260     0.009644871536    -0.461911509290    12.000000000000
         C            1.248405119260     1.009993871536     0.640517490710    12.000000000000
         C            1.164578119260     2.434020871536     0.107246490710    12.000000000000
         H            0.213745119260    -2.287459128464    -1.109683509290     1.007825032230
         H            1.094269119260    -3.404565128464     0.076861490710     1.007825032230
         H            2.467959119260    -1.553758128464     0.827906490710     1.007825032230
         H            2.544540119260     0.314765871536    -0.920232509290     1.007825032230
         H            0.832434119260     0.046710871536    -1.241238509290     1.007825032230
         H            0.294614119260     0.722518871536     1.087528490710     1.007825032230
         H            2.000285119260     0.951072871536     1.432033490710     1.007825032230
         H            2.118004119260     2.743320871536    -0.323481509290     1.007825032230
         H            0.405675119260     2.504842871536    -0.672958509290     1.007825032230
         H            0.905968119260     3.142575871536     0.893987490710     1.007825032230
         C           -2.232140880740     1.079589871536    -0.713079509290    12.000000000000
         C           -2.211649880740    -0.217678128464    -0.394233509290    12.000000000000
         C           -2.218005880740    -0.748040128464     1.002878490710    12.000000000000
         H           -2.227619880740     1.406020871536    -1.743833509290     1.007825032230
         H           -2.257789880740     1.842450871536     0.055286490710     1.007825032230
         H           -2.188234880740    -0.949203128464    -1.196015509290     1.007825032230
         H           -1.321389880740    -1.340867128464     1.193518490710     1.007825032230
         H           -2.258420880740     0.063921871536     1.728530490710     1.007825032230
         H           -3.077628880740    -1.399755128464     1.167509490710     1.007825032230

  Running in c1 symmetry.

  Rotational constants: A =      0.05605  B =      0.04276  C =      0.02818 [cm^-1]
  Rotational constants: A =   1680.37536  B =   1281.79050  C =    844.79148 [MHz]
  Nuclear repulsion =  364.016840429705042

  Charge       = 0
  Multiplicity = 1
  Electrons    = 64
  Nalpha       = 32
  Nbeta        = 32

  ==> Algorithm <==

  SCF Algorithm Type is DF.
  DIIS enabled.
  MOM disabled.
  Fractional occupation disabled.
  Guess Type is SAD.
  Energy threshold   = 1.00e-08
  Density threshold  = 1.00e-08
  Integral threshold = 0.00e+00

  ==> Primary Basis <==

  Basis Set: JUN-CC-PVTZ
    Blend: JUN-CC-PVTZ
    Number of shells: 200
    Number of basis function: 536
    Number of Cartesian functions: 600
    Spherical Harmonics?: true
    Max angular momentum: 3

   => Loading Basis Set <=

    Name: (JUN-CC-PVTZ AUX)
    Role: JKFIT
    Keyword: DF_BASIS_SCF
    atoms 1-5, 16-18  entry C          line   152 file /home/r08543048/miniconda3/share/psi4/basis/jun-cc-pvtz-jkfit.gbs 
    atoms 6-15, 19-24 entry H          line    70 file /home/r08543048/miniconda3/share/psi4/basis/jun-cc-pvtz-jkfit.gbs 

  ==> Pre-Iterations <==

   -------------------------------------------------------
    Irrep   Nso     Nmo     Nalpha   Nbeta   Ndocc  Nsocc
   -------------------------------------------------------
     A        536     536       0       0       0       0
   -------------------------------------------------------
    Total     536     536      32      32      32       0
   -------------------------------------------------------

  ==> Integral Setup <==

  ==> DiskDFJK: Density-Fitted J/K Matrices <==

    J tasked:                  Yes
    K tasked:                  Yes
    wK tasked:                  No
    OpenMP threads:              1
    Integrals threads:           1
    Memory [MiB]:            15735
    Algorithm:                Core
    Integral Cache:           SAVE
    Schwarz Cutoff:          1E-12
    Fitting Condition:       1E-10

   => Auxiliary Basis Set <=

  Basis Set: (JUN-CC-PVTZ AUX)
    Blend: JUN-CC-PVTZ-JKFIT
    Number of shells: 392
    Number of basis function: 1240
    Number of Cartesian functions: 1488
    Spherical Harmonics?: true
    Max angular momentum: 4

  Minimum eigenvalue in the overlap matrix is 2.9131070456E-05.
  Using Symmetric Orthogonalization.

  SCF Guess: Superposition of Atomic Densities via on-the-fly atomic UHF.

  ==> Iterations <==

                           Total Energy        Delta E     RMS |[F,P]|

   @DF-RHF iter SAD:  -310.94944864734350   -3.10949e+02   0.00000e+00 
   @DF-RHF iter   1:  -311.98424545638966   -1.03480e+00   1.37918e-03 DIIS
   @DF-RHF iter   2:  -312.26569115914731   -2.81446e-01   6.07894e-04 DIIS
   @DF-RHF iter   3:  -312.32137444643706   -5.56833e-02   1.17872e-04 DIIS
   @DF-RHF iter   4:  -312.32514459178418   -3.77015e-03   3.87189e-05 DIIS
   @DF-RHF iter   5:  -312.32542102576053   -2.76434e-04   8.53665e-06 DIIS
   @DF-RHF iter   6:  -312.32543852195420   -1.74962e-05   2.07093e-06 DIIS
   @DF-RHF iter   7:  -312.32543962707223   -1.10512e-06   6.02191e-07 DIIS
   @DF-RHF iter   8:  -312.32543974033297   -1.13261e-07   2.00170e-07 DIIS
   @DF-RHF iter   9:  -312.32543975651885   -1.61859e-08   8.09051e-08 DIIS
   @DF-RHF iter  10:  -312.32543975980707   -3.28822e-09   2.95979e-08 DIIS
   @DF-RHF iter  11:  -312.32543976015535   -3.48280e-10   8.33488e-09 DIIS
  Energy and wave function converged.


  ==> Post-Iterations <==

    Orbital Energies [Eh]
    ---------------------

    Doubly Occupied:                                                      

       1A    -11.234235     2A    -11.230204     3A    -11.217795  
       4A    -11.217367     5A    -11.217314     6A    -11.216410  
       7A    -11.215113     8A    -11.207632     9A     -1.087335  
      10A     -1.064453    11A     -1.020109    12A     -0.931920  
      13A     -0.919929    14A     -0.808414    15A     -0.759302  
      16A     -0.754708    17A     -0.649484    18A     -0.639878  
      19A     -0.614953    20A     -0.589192    21A     -0.582086  
      22A     -0.566577    23A     -0.562845    24A     -0.535661  
      25A     -0.521733    26A     -0.507790    27A     -0.492849  
      28A     -0.479449    29A     -0.470200    30A     -0.466727  
      31A     -0.358740    32A     -0.354628  

    Virtual:                                                              

      33A      0.049037    34A      0.051174    35A      0.053262  
      36A      0.058945    37A      0.069701    38A      0.072961  
      39A      0.074070    40A      0.083188    41A      0.089071  
      42A      0.098727    43A      0.107268    44A      0.113547  
      45A      0.116151    46A      0.117924    47A      0.121332  
      48A      0.124438    49A      0.134701    50A      0.143491  
      51A      0.147771    52A      0.152000    53A      0.156313  
      54A      0.158884    55A      0.171123    56A      0.174725  
      57A      0.181914    58A      0.187316    59A      0.188386  
      60A      0.195916    61A      0.200243    62A      0.212605  
      63A      0.216732    64A      0.220361    65A      0.227835  
      66A      0.241924    67A      0.257194    68A      0.264051  
      69A      0.278152    70A      0.284379    71A      0.293167  
      72A      0.295541    73A      0.300327    74A      0.306367  
      75A      0.315848    76A      0.320270    77A      0.324267  
      78A      0.326187    79A      0.333353    80A      0.336888  
      81A      0.339806    82A      0.344593    83A      0.354525  
      84A      0.357500    85A      0.361800    86A      0.370486  
      87A      0.377012    88A      0.382375    89A      0.390799  
      90A      0.391069    91A      0.396382    92A      0.400547  
      93A      0.406785    94A      0.411862    95A      0.419979  
      96A      0.421826    97A      0.432204    98A      0.434879  
      99A      0.442949   100A      0.450669   101A      0.458225  
     102A      0.460284   103A      0.474329   104A      0.477745  
     105A      0.485252   106A      0.492911   107A      0.502198  
     108A      0.516610   109A      0.521169   110A      0.529160  
     111A      0.534635   112A      0.542289   113A      0.543199  
     114A      0.546930   115A      0.549123   116A      0.556002  
     117A      0.562272   118A      0.569633   119A      0.577702  
     120A      0.587438   121A      0.593701   122A      0.598164  
     123A      0.613676   124A      0.626391   125A      0.629051  
     126A      0.640888   127A      0.651408   128A      0.667452  
     129A      0.684776   130A      0.705545   131A      0.713649  
     132A      0.720050   133A      0.731514   134A      0.736234  
     135A      0.738946   136A      0.742574   137A      0.748777  
     138A      0.755879   139A      0.772139   140A      0.775328  
     141A      0.783740   142A      0.788622   143A      0.798066  
     144A      0.803883   145A      0.827269   146A      0.829329  
     147A      0.832549   148A      0.839018   149A      0.845158  
     150A      0.846441   151A      0.857970   152A      0.862092  
     153A      0.874347   154A      0.880928   155A      0.887914  
     156A      0.891190   157A      0.893664   158A      0.906412  
     159A      0.911951   160A      0.926607   161A      0.939703  
     162A      0.946742   163A      0.957738   164A      0.959177  
     165A      0.971733   166A      0.989383   167A      0.998655  
     168A      1.007294   169A      1.020001   170A      1.027913  
     171A      1.043130   172A      1.058565   173A      1.061032  
     174A      1.071310   175A      1.085125   176A      1.093255  
     177A      1.108355   178A      1.120423   179A      1.128025  
     180A      1.151947   181A      1.157755   182A      1.171551  
     183A      1.181130   184A      1.189771   185A      1.212955  
     186A      1.222779   187A      1.228036   188A      1.240946  
     189A      1.251568   190A      1.260361   191A      1.265064  
     192A      1.271085   193A      1.290098   194A      1.305414  
     195A      1.315890   196A      1.323738   197A      1.331415  
     198A      1.336050   199A      1.350502   200A      1.368621  
     201A      1.378485   202A      1.387622   203A      1.395165  
     204A      1.406731   205A      1.419226   206A      1.424856  
     207A      1.444271   208A      1.454008   209A      1.464161  
     210A      1.471833   211A      1.476596   212A      1.485965  
     213A      1.490711   214A      1.508910   215A      1.515225  
     216A      1.530617   217A      1.538749   218A      1.540280  
     219A      1.551235   220A      1.570699   221A      1.574981  
     222A      1.595626   223A      1.598757   224A      1.609454  
     225A      1.616441   226A      1.617736   227A      1.626457  
     228A      1.635512   229A      1.644139   230A      1.653141  
     231A      1.666669   232A      1.682645   233A      1.684780  
     234A      1.703841   235A      1.718298   236A      1.720567  
     237A      1.732899   238A      1.750894   239A      1.759456  
     240A      1.764231   241A      1.774999   242A      1.790878  
     243A      1.795067   244A      1.806860   245A      1.825331  
     246A      1.849192   247A      1.854907   248A      1.872459  
     249A      1.888244   250A      1.919418   251A      1.933200  
     252A      1.942358   253A      1.960617   254A      1.968401  
     255A      1.971942   256A      2.004527   257A      2.024866  
     258A      2.042073   259A      2.079690   260A      2.113976  
     261A      2.133178   262A      2.158712   263A      2.237364  
     264A      2.285194   265A      2.695383   266A      2.712021  
     267A      2.742939   268A      2.755979   269A      2.775855  
     270A      2.788181   271A      2.794607   272A      2.814767  
     273A      2.828488   274A      2.835037   275A      2.845873  
     276A      2.853255   277A      2.853810   278A      2.861667  
     279A      2.869449   280A      2.878577   281A      2.897924  
     282A      2.904975   283A      2.915022   284A      2.947771  
     285A      2.953722   286A      2.969320   287A      2.989547  
     288A      2.996830   289A      3.016268   290A      3.027566  
     291A      3.032595   292A      3.051860   293A      3.070066  
     294A      3.077748   295A      3.094016   296A      3.096439  
     297A      3.109807   298A      3.118997   299A      3.128510  
     300A      3.144095   301A      3.155005   302A      3.163130  
     303A      3.176064   304A      3.183927   305A      3.185733  
     306A      3.196755   307A      3.201382   308A      3.213413  
     309A      3.227807   310A      3.237871   311A      3.244585  
     312A      3.254977   313A      3.264676   314A      3.274593  
     315A      3.281656   316A      3.296965   317A      3.307724  
     318A      3.316524   319A      3.329098   320A      3.337683  
     321A      3.346569   322A      3.359581   323A      3.367135  
     324A      3.368248   325A      3.375656   326A      3.394206  
     327A      3.397454   328A      3.405739   329A      3.414441  
     330A      3.416098   331A      3.424636   332A      3.434363  
     333A      3.448353   334A      3.455399   335A      3.459781  
     336A      3.477824   337A      3.487685   338A      3.498713  
     339A      3.505071   340A      3.508104   341A      3.514579  
     342A      3.531119   343A      3.541598   344A      3.549779  
     345A      3.555633   346A      3.565483   347A      3.574237  
     348A      3.589008   349A      3.593718   350A      3.598527  
     351A      3.603769   352A      3.617982   353A      3.629844  
     354A      3.639892   355A      3.643354   356A      3.669003  
     357A      3.673336   358A      3.692989   359A      3.698582  
     360A      3.706777   361A      3.718455   362A      3.733950  
     363A      3.759793   364A      3.765178   365A      3.778981  
     366A      3.780117   367A      3.790454   368A      3.806584  
     369A      3.817914   370A      3.830116   371A      3.836925  
     372A      3.839275   373A      3.859375   374A      3.860735  
     375A      3.880257   376A      3.884597   377A      3.915836  
     378A      3.937772   379A      3.942433   380A      3.971660  
     381A      3.980903   382A      3.987104   383A      3.993331  
     384A      4.011041   385A      4.020478   386A      4.035114  
     387A      4.046753   388A      4.054054   389A      4.058319  
     390A      4.087781   391A      4.099719   392A      4.106101  
     393A      4.127783   394A      4.155360   395A      4.163388  
     396A      4.189368   397A      4.195721   398A      4.209915  
     399A      4.219689   400A      4.224820   401A      4.236847  
     402A      4.257529   403A      4.267500   404A      4.280534  
     405A      4.293685   406A      4.303995   407A      4.319968  
     408A      4.335326   409A      4.341697   410A      4.349261  
     411A      4.361780   412A      4.368637   413A      4.380567  
     414A      4.386823   415A      4.391083   416A      4.399829  
     417A      4.403734   418A      4.416099   419A      4.419133  
     420A      4.439095   421A      4.441621   422A      4.455416  
     423A      4.469988   424A      4.475415   425A      4.483875  
     426A      4.495928   427A      4.501041   428A      4.505816  
     429A      4.517336   430A      4.528560   431A      4.538784  
     432A      4.551493   433A      4.561890   434A      4.576501  
     435A      4.598118   436A      4.623172   437A      4.627271  
     438A      4.638202   439A      4.645535   440A      4.666103  
     441A      4.679586   442A      4.696427   443A      4.707595  
     444A      4.719340   445A      4.744512   446A      4.770808  
     447A      4.789255   448A      4.801846   449A      4.815996  
     450A      4.838575   451A      4.840528   452A      4.861331  
     453A      4.876204   454A      4.897117   455A      4.914176  
     456A      4.930859   457A      4.942227   458A      4.978608  
     459A      4.992038   460A      5.026406   461A      5.038694  
     462A      5.042816   463A      5.071409   464A      5.080496  
     465A      5.143529   466A      5.164825   467A      5.189120  
     468A      5.192056   469A      5.194075   470A      5.217851  
     471A      5.227366   472A      5.236811   473A      5.261149  
     474A      5.291032   475A      5.295412   476A      5.303929  
     477A      5.312613   478A      5.336918   479A      5.345091  
     480A      5.362535   481A      5.375143   482A      5.392453  
     483A      5.395046   484A      5.430524   485A      5.443798  
     486A      5.460014   487A      5.466793   488A      5.480501  
     489A      5.496714   490A      5.520226   491A      5.573460  
     492A      5.577650   493A      5.620214   494A      5.639684  
     495A      5.644648   496A      5.655882   497A      5.691992  
     498A      5.696987   499A      5.721495   500A      5.766516  
     501A      5.782071   502A      5.791819   503A      5.796139  
     504A      5.813193   505A      5.839335   506A      5.867603  
     507A      5.878282   508A      5.941316   509A      5.942896  
     510A      5.955956   511A      5.985462   512A      6.000645  
     513A      6.030710   514A      6.105936   515A      6.142274  
     516A      6.228418   517A      6.403375   518A      6.410927  
     519A      6.456236   520A      6.483997   521A      6.500464  
     522A      6.524655   523A      6.540526   524A      6.551348  
     525A      6.601259   526A      6.653045   527A      6.705284  
     528A      6.717865   529A     12.332257   530A     12.363951  
     531A     13.843461   532A     14.451983   533A     14.613218  
     534A     14.822419   535A     15.388718   536A     15.408488  

    Final Occupation by Irrep:
              A 
    DOCC [    32 ]

  @DF-RHF Final Energy:  -312.32543976015535

   => Energetics <=

    Nuclear Repulsion Energy =            364.0168404297050415
    One-Electron Energy =               -1141.6944926317291902
    Two-Electron Energy =                 465.3522124418687440
    Total Energy =                       -312.3254397601553478

Computation Completed


Properties will be evaluated at   0.000000,   0.000000,   0.000000 [a0]

Properties computed using the SCF density matrix

  Nuclear Dipole Moment: [e a0]
     X:    -0.4252      Y:     2.6273      Z:     1.1772

  Electronic Dipole Moment: [e a0]
     X:     0.4526      Y:    -2.6031      Z:    -1.0551

  Dipole Moment: [e a0]
     X:     0.0273      Y:     0.0243      Z:     0.1221     Total:     0.1275

  Dipole Moment: [D]
     X:     0.0695      Y:     0.0617      Z:     0.3104     Total:     0.3240


*** tstop() called on r282 at Fri Sep 10 18:39:52 2021
Module time:
	user time   =      84.78 seconds =       1.41 minutes
	system time =       1.72 seconds =       0.03 minutes
	total time  =         86 seconds =       1.43 minutes
Total time:
	user time   =      84.78 seconds =       1.41 minutes
	system time =       1.72 seconds =       0.03 minutes
	total time  =         86 seconds =       1.43 minutes

  //>>>>>>>>>>>>>>>>>>>>>>>>>>>>>>>>>>>//
  //            Monomer A HF           //
  //<<<<<<<<<<<<<<<<<<<<<<<<<<<<<<<<<<<//


*** tstart() called on r282
*** at Fri Sep 10 18:39:52 2021

   => Loading Basis Set <=

    Name: JUN-CC-PVTZ
    Role: ORBITAL
    Keyword: BASIS
    atoms 1-5, 16-18  entry C          line   217 file /home/r08543048/miniconda3/share/psi4/basis/jun-cc-pvtz.gbs 
    atoms 6-15, 19-24 entry H          line    36 file /home/r08543048/miniconda3/share/psi4/basis/jun-cc-pvtz.gbs 


         ---------------------------------------------------------
                                   SCF
               by Justin Turney, Rob Parrish, Andy Simmonett
                          and Daniel G. A. Smith
                              RHF Reference
                        1 Threads,  20980 MiB Core
         ---------------------------------------------------------

  ==> Geometry <==

    Molecular point group: c1
    Full point group: C1

    Geometry (in Angstrom), charge = 0, multiplicity = 1:

       Center              X                  Y                   Z               Mass       
    ------------   -----------------  -----------------  -----------------  -----------------
         C            0.968516119260    -2.416335128464    -0.343635509290    12.000000000000
         C            1.720501119260    -1.386573128464     0.056755490710    12.000000000000
         C            1.597891119260     0.009644871536    -0.461911509290    12.000000000000
         C            1.248405119260     1.009993871536     0.640517490710    12.000000000000
         C            1.164578119260     2.434020871536     0.107246490710    12.000000000000
         H            0.213745119260    -2.287459128464    -1.109683509290     1.007825032230
         H            1.094269119260    -3.404565128464     0.076861490710     1.007825032230
         H            2.467959119260    -1.553758128464     0.827906490710     1.007825032230
         H            2.544540119260     0.314765871536    -0.920232509290     1.007825032230
         H            0.832434119260     0.046710871536    -1.241238509290     1.007825032230
         H            0.294614119260     0.722518871536     1.087528490710     1.007825032230
         H            2.000285119260     0.951072871536     1.432033490710     1.007825032230
         H            2.118004119260     2.743320871536    -0.323481509290     1.007825032230
         H            0.405675119260     2.504842871536    -0.672958509290     1.007825032230
         H            0.905968119260     3.142575871536     0.893987490710     1.007825032230
      Gh(C)          -2.232140880740     1.079589871536    -0.713079509290    12.000000000000
      Gh(C)          -2.211649880740    -0.217678128464    -0.394233509290    12.000000000000
      Gh(C)          -2.218005880740    -0.748040128464     1.002878490710    12.000000000000
      Gh(H)          -2.227619880740     1.406020871536    -1.743833509290     1.007825032230
      Gh(H)          -2.257789880740     1.842450871536     0.055286490710     1.007825032230
      Gh(H)          -2.188234880740    -0.949203128464    -1.196015509290     1.007825032230
      Gh(H)          -1.321389880740    -1.340867128464     1.193518490710     1.007825032230
      Gh(H)          -2.258420880740     0.063921871536     1.728530490710     1.007825032230
      Gh(H)          -3.077628880740    -1.399755128464     1.167509490710     1.007825032230

  Running in c1 symmetry.

  Rotational constants: A =      0.05605  B =      0.04276  C =      0.02818 [cm^-1]
  Rotational constants: A =   1680.37536  B =   1281.79050  C =    844.79148 [MHz]
  Nuclear repulsion =  170.519283660821884

  Charge       = 0
  Multiplicity = 1
  Electrons    = 40
  Nalpha       = 20
  Nbeta        = 20

  ==> Algorithm <==

  SCF Algorithm Type is DF.
  DIIS enabled.
  MOM disabled.
  Fractional occupation disabled.
  Guess Type is SAD.
  Energy threshold   = 1.00e-08
  Density threshold  = 1.00e-08
  Integral threshold = 0.00e+00

  ==> Primary Basis <==

  Basis Set: JUN-CC-PVTZ
    Blend: JUN-CC-PVTZ
    Number of shells: 200
    Number of basis function: 536
    Number of Cartesian functions: 600
    Spherical Harmonics?: true
    Max angular momentum: 3

   => Loading Basis Set <=

    Name: (JUN-CC-PVTZ AUX)
    Role: JKFIT
    Keyword: DF_BASIS_SCF
    atoms 1-5, 16-18  entry C          line   152 file /home/r08543048/miniconda3/share/psi4/basis/jun-cc-pvtz-jkfit.gbs 
    atoms 6-15, 19-24 entry H          line    70 file /home/r08543048/miniconda3/share/psi4/basis/jun-cc-pvtz-jkfit.gbs 

  ==> Pre-Iterations <==

   -------------------------------------------------------
    Irrep   Nso     Nmo     Nalpha   Nbeta   Ndocc  Nsocc
   -------------------------------------------------------
     A        536     536       0       0       0       0
   -------------------------------------------------------
    Total     536     536      20      20      20       0
   -------------------------------------------------------

  ==> Integral Setup <==

  ==> DiskDFJK: Density-Fitted J/K Matrices <==

    J tasked:                  Yes
    K tasked:                  Yes
    wK tasked:                  No
    OpenMP threads:              1
    Integrals threads:           1
    Memory [MiB]:            15735
    Algorithm:                Core
    Integral Cache:           LOAD
    Schwarz Cutoff:          1E-12
    Fitting Condition:       1E-10

   => Auxiliary Basis Set <=

  Basis Set: (JUN-CC-PVTZ AUX)
    Blend: JUN-CC-PVTZ-JKFIT
    Number of shells: 392
    Number of basis function: 1240
    Number of Cartesian functions: 1488
    Spherical Harmonics?: true
    Max angular momentum: 4

  Minimum eigenvalue in the overlap matrix is 2.9131070456E-05.
  Using Symmetric Orthogonalization.

  SCF Guess: Superposition of Atomic Densities via on-the-fly atomic UHF.

  ==> Iterations <==

                           Total Energy        Delta E     RMS |[F,P]|

   @DF-RHF iter SAD:  -194.45632043197841   -1.94456e+02   0.00000e+00 
   @DF-RHF iter   1:  -194.99833939824379   -5.42019e-01   1.08938e-03 DIIS
   @DF-RHF iter   2:  -195.17537924916519   -1.77040e-01   4.77870e-04 DIIS
   @DF-RHF iter   3:  -195.20982503925228   -3.44458e-02   9.20075e-05 DIIS
   @DF-RHF iter   4:  -195.21216292446479   -2.33789e-03   3.07662e-05 DIIS
   @DF-RHF iter   5:  -195.21233091814747   -1.67994e-04   6.40386e-06 DIIS
   @DF-RHF iter   6:  -195.21234137424503   -1.04561e-05   1.45895e-06 DIIS
   @DF-RHF iter   7:  -195.21234187150742   -4.97262e-07   4.08545e-07 DIIS
   @DF-RHF iter   8:  -195.21234191454090   -4.30335e-08   9.10989e-08 DIIS
   @DF-RHF iter   9:  -195.21234191762588   -3.08498e-09   3.09283e-08 DIIS
   @DF-RHF iter  10:  -195.21234191803384   -4.07965e-10   1.06257e-08 DIIS
   @DF-RHF iter  11:  -195.21234191808531   -5.14717e-11   3.47509e-09 DIIS
  Energy and wave function converged.


  ==> Post-Iterations <==

    Orbital Energies [Eh]
    ---------------------

    Doubly Occupied:                                                      

       1A    -11.230808     2A    -11.222013     3A    -11.219378  
       4A    -11.217167     5A    -11.211558     6A     -1.089764  
       7A     -1.022246     8A     -0.922517     9A     -0.811539  
      10A     -0.756822    11A     -0.651215    12A     -0.617515  
      13A     -0.589500    14A     -0.566723    15A     -0.538672  
      16A     -0.510410    17A     -0.483080    18A     -0.473363  
      19A     -0.470239    20A     -0.356053  

    Virtual:                                                              

      21A      0.035114    22A      0.046969    23A      0.051083  
      24A      0.054472    25A      0.066211    26A      0.070080  
      27A      0.072846    28A      0.081128    29A      0.086365  
      30A      0.097942    31A      0.102471    32A      0.108531  
      33A      0.113588    34A      0.115812    35A      0.118446  
      36A      0.123366    37A      0.125973    38A      0.137820  
      39A      0.142954    40A      0.151188    41A      0.152677  
      42A      0.156367    43A      0.159802    44A      0.164296  
      45A      0.170878    46A      0.184522    47A      0.189230  
      48A      0.190758    49A      0.198560    50A      0.203993  
      51A      0.211313    52A      0.216441    53A      0.221378  
      54A      0.243356    55A      0.252373    56A      0.270072  
      57A      0.272385    58A      0.284192    59A      0.289111  
      60A      0.294063    61A      0.297304    62A      0.305601  
      63A      0.310746    64A      0.318003    65A      0.322697  
      66A      0.325177    67A      0.337820    68A      0.340293  
      69A      0.343484    70A      0.351340    71A      0.361379  
      72A      0.363568    73A      0.369831    74A      0.371768  
      75A      0.380999    76A      0.384821    77A      0.392884  
      78A      0.395758    79A      0.401941    80A      0.407748  
      81A      0.412842    82A      0.419474    83A      0.424016  
      84A      0.426457    85A      0.433719    86A      0.439056  
      87A      0.445147    88A      0.456244    89A      0.463706  
      90A      0.467857    91A      0.472468    92A      0.480461  
      93A      0.495442    94A      0.496374    95A      0.505494  
      96A      0.515675    97A      0.517163    98A      0.524087  
      99A      0.535236   100A      0.544049   101A      0.545128  
     102A      0.551756   103A      0.558982   104A      0.562358  
     105A      0.564697   106A      0.575000   107A      0.584504  
     108A      0.593792   109A      0.601963   110A      0.610640  
     111A      0.614286   112A      0.617924   113A      0.622698  
     114A      0.632802   115A      0.642525   116A      0.644389  
     117A      0.654440   118A      0.678504   119A      0.688459  
     120A      0.698378   121A      0.704125   122A      0.713817  
     123A      0.719477   124A      0.732448   125A      0.752508  
     126A      0.760935   127A      0.765843   128A      0.776829  
     129A      0.787429   130A      0.797848   131A      0.804628  
     132A      0.809053   133A      0.822427   134A      0.831434  
     135A      0.835637   136A      0.843817   137A      0.851181  
     138A      0.852935   139A      0.866575   140A      0.875042  
     141A      0.881782   142A      0.895356   143A      0.896677  
     144A      0.920176   145A      0.936575   146A      0.939169  
     147A      0.953891   148A      0.976220   149A      0.980567  
     150A      1.001284   151A      1.008515   152A      1.022765  
     153A      1.044212   154A      1.050901   155A      1.066397  
     156A      1.070630   157A      1.087620   158A      1.111937  
     159A      1.116165   160A      1.123028   161A      1.131053  
     162A      1.142039   163A      1.161138   164A      1.167075  
     165A      1.175338   166A      1.191952   167A      1.206957  
     168A      1.212648   169A      1.215723   170A      1.225088  
     171A      1.249048   172A      1.256597   173A      1.266347  
     174A      1.277530   175A      1.289935   176A      1.294759  
     177A      1.304250   178A      1.311749   179A      1.315335  
     180A      1.322477   181A      1.332974   182A      1.347854  
     183A      1.349716   184A      1.365496   185A      1.371529  
     186A      1.376274   187A      1.384332   188A      1.402322  
     189A      1.405166   190A      1.409127   191A      1.421069  
     192A      1.431659   193A      1.449805   194A      1.454625  
     195A      1.466704   196A      1.480082   197A      1.485048  
     198A      1.495889   199A      1.499768   200A      1.510765  
     201A      1.523401   202A      1.527857   203A      1.528706  
     204A      1.544180   205A      1.551046   206A      1.555894  
     207A      1.560027   208A      1.580163   209A      1.591805  
     210A      1.604920   211A      1.608695   212A      1.618162  
     213A      1.622556   214A      1.632985   215A      1.636450  
     216A      1.637681   217A      1.653735   218A      1.666801  
     219A      1.675108   220A      1.689968   221A      1.695677  
     222A      1.706662   223A      1.725379   224A      1.732917  
     225A      1.743628   226A      1.753579   227A      1.756951  
     228A      1.778778   229A      1.780766   230A      1.792380  
     231A      1.818243   232A      1.823042   233A      1.845195  
     234A      1.868145   235A      1.874880   236A      1.895038  
     237A      1.902769   238A      1.935918   239A      1.954147  
     240A      1.964921   241A      1.975176   242A      1.996497  
     243A      2.012892   244A      2.036922   245A      2.042508  
     246A      2.073006   247A      2.096765   248A      2.103422  
     249A      2.131749   250A      2.154779   251A      2.176377  
     252A      2.243968   253A      2.265329   254A      2.289510  
     255A      2.354647   256A      2.390566   257A      2.465781  
     258A      2.532516   259A      2.550228   260A      2.689316  
     261A      2.727100   262A      2.758262   263A      2.783196  
     264A      2.806815   265A      2.829634   266A      2.843015  
     267A      2.854738   268A      2.863018   269A      2.872594  
     270A      2.902382   271A      2.907771   272A      2.932605  
     273A      2.937010   274A      2.969056   275A      2.994480  
     276A      3.002862   277A      3.026710   278A      3.049373  
     279A      3.059874   280A      3.088144   281A      3.103085  
     282A      3.135816   283A      3.145502   284A      3.160944  
     285A      3.171550   286A      3.184335   287A      3.201365  
     288A      3.214431   289A      3.230682   290A      3.245978  
     291A      3.253157   292A      3.290972   293A      3.301315  
     294A      3.312615   295A      3.347438   296A      3.355301  
     297A      3.367995   298A      3.374427   299A      3.392685  
     300A      3.397005   301A      3.405381   302A      3.420715  
     303A      3.440444   304A      3.451118   305A      3.457331  
     306A      3.474195   307A      3.485969   308A      3.499421  
     309A      3.503405   310A      3.522255   311A      3.525533  
     312A      3.538404   313A      3.542167   314A      3.549672  
     315A      3.569125   316A      3.572993   317A      3.582338  
     318A      3.589679   319A      3.595046   320A      3.605223  
     321A      3.619522   322A      3.628989   323A      3.639126  
     324A      3.649403   325A      3.656450   326A      3.677409  
     327A      3.687853   328A      3.699600   329A      3.724319  
     330A      3.731548   331A      3.738181   332A      3.749326  
     333A      3.770087   334A      3.773355   335A      3.774971  
     336A      3.796517   337A      3.809542   338A      3.811630  
     339A      3.830179   340A      3.844085   341A      3.857739  
     342A      3.868843   343A      3.883050   344A      3.885127  
     345A      3.901716   346A      3.908294   347A      3.936306  
     348A      3.948285   349A      3.961330   350A      3.969950  
     351A      3.981325   352A      3.991138   353A      4.001376  
     354A      4.024754   355A      4.034544   356A      4.044743  
     357A      4.051447   358A      4.065881   359A      4.085185  
     360A      4.095658   361A      4.109972   362A      4.140158  
     363A      4.149151   364A      4.156995   365A      4.169756  
     366A      4.179971   367A      4.194153   368A      4.209636  
     369A      4.215124   370A      4.216286   371A      4.226830  
     372A      4.248597   373A      4.260642   374A      4.273619  
     375A      4.277538   376A      4.288298   377A      4.295294  
     378A      4.302255   379A      4.318451   380A      4.337638  
     381A      4.345999   382A      4.354268   383A      4.369396  
     384A      4.375429   385A      4.381823   386A      4.392948  
     387A      4.409073   388A      4.425227   389A      4.427853  
     390A      4.435276   391A      4.454129   392A      4.464976  
     393A      4.467899   394A      4.475074   395A      4.495680  
     396A      4.497202   397A      4.512510   398A      4.524582  
     399A      4.536113   400A      4.541701   401A      4.549433  
     402A      4.562796   403A      4.578234   404A      4.584849  
     405A      4.590125   406A      4.611257   407A      4.621573  
     408A      4.636022   409A      4.638194   410A      4.652084  
     411A      4.665566   412A      4.670767   413A      4.688162  
     414A      4.698009   415A      4.721586   416A      4.730002  
     417A      4.740258   418A      4.764472   419A      4.774191  
     420A      4.778749   421A      4.794872   422A      4.807788  
     423A      4.822511   424A      4.831333   425A      4.840608  
     426A      4.847680   427A      4.853846   428A      4.864448  
     429A      4.879965   430A      4.893002   431A      4.903466  
     432A      4.920370   433A      4.930944   434A      4.943435  
     435A      4.962761   436A      4.972228   437A      4.979685  
     438A      4.993256   439A      5.004234   440A      5.022929  
     441A      5.028948   442A      5.042945   443A      5.066087  
     444A      5.080392   445A      5.094844   446A      5.105406  
     447A      5.142646   448A      5.149903   449A      5.178887  
     450A      5.186740   451A      5.197452   452A      5.209169  
     453A      5.230112   454A      5.251834   455A      5.264894  
     456A      5.290694   457A      5.300370   458A      5.306122  
     459A      5.344727   460A      5.345872   461A      5.370822  
     462A      5.393468   463A      5.409998   464A      5.429767  
     465A      5.443413   466A      5.465157   467A      5.476080  
     468A      5.502362   469A      5.518716   470A      5.539118  
     471A      5.549193   472A      5.566557   473A      5.590245  
     474A      5.618686   475A      5.642758   476A      5.652906  
     477A      5.681649   478A      5.719117   479A      5.763703  
     480A      5.780069   481A      5.808041   482A      5.815030  
     483A      5.834676   484A      5.851465   485A      5.873565  
     486A      5.921975   487A      5.937452   488A      5.940017  
     489A      5.953709   490A      5.998634   491A      6.012807  
     492A      6.029510   493A      6.037554   494A      6.132900  
     495A      6.136724   496A      6.155296   497A      6.224074  
     498A      6.254850   499A      6.284519   500A      6.370029  
     501A      6.394747   502A      6.404676   503A      6.422167  
     504A      6.492618   505A      6.524187   506A      6.544850  
     507A      6.594504   508A      6.631127   509A      6.649398  
     510A      6.715945   511A      6.730443   512A      6.796798  
     513A      6.868956   514A      7.098185   515A      7.400351  
     516A      7.435004   517A      7.579563   518A      7.607283  
     519A      7.652832   520A      7.827690   521A      7.921495  
     522A      7.981829   523A      8.121793   524A      8.300973  
     525A      8.757789   526A      9.420652   527A      9.942062  
     528A     10.222603   529A     12.333617   530A     13.857070  
     531A     14.483840   532A     14.620299   533A     15.388203  
     534A     41.138405   535A     46.091596   536A     47.316828  

    Final Occupation by Irrep:
              A 
    DOCC [    20 ]

  @DF-RHF Final Energy:  -195.21234191808531

   => Energetics <=

    Nuclear Repulsion Energy =            170.5192836608218840
    One-Electron Energy =                -599.5420900705030363
    Two-Electron Energy =                 233.8104644915958374
    Total Energy =                       -195.2123419180853148

Computation Completed


Properties will be evaluated at   0.000000,   0.000000,   0.000000 [a0]

Properties computed using the SCF density matrix

  Nuclear Dipole Moment: [e a0]
     X:   100.3007      Y:     2.0495      Z:     0.0842

  Electronic Dipole Moment: [e a0]
     X:  -100.2627      Y:    -1.8781      Z:    -0.0497

  Dipole Moment: [e a0]
     X:     0.0380      Y:     0.1713      Z:     0.0345     Total:     0.1789

  Dipole Moment: [D]
     X:     0.0965      Y:     0.4355      Z:     0.0877     Total:     0.4546


*** tstop() called on r282 at Fri Sep 10 18:40:52 2021
Module time:
	user time   =      58.27 seconds =       0.97 minutes
	system time =       0.83 seconds =       0.01 minutes
	total time  =         60 seconds =       1.00 minutes
Total time:
	user time   =     143.05 seconds =       2.38 minutes
	system time =       2.55 seconds =       0.04 minutes
	total time  =        146 seconds =       2.43 minutes

  //>>>>>>>>>>>>>>>>>>>>>>>>>>>>>>>>>>>//
  //            Monomer B HF           //
  //<<<<<<<<<<<<<<<<<<<<<<<<<<<<<<<<<<<//


*** tstart() called on r282
*** at Fri Sep 10 18:40:52 2021

   => Loading Basis Set <=

    Name: JUN-CC-PVTZ
    Role: ORBITAL
    Keyword: BASIS
    atoms 1-5, 16-18  entry C          line   217 file /home/r08543048/miniconda3/share/psi4/basis/jun-cc-pvtz.gbs 
    atoms 6-15, 19-24 entry H          line    36 file /home/r08543048/miniconda3/share/psi4/basis/jun-cc-pvtz.gbs 


         ---------------------------------------------------------
                                   SCF
               by Justin Turney, Rob Parrish, Andy Simmonett
                          and Daniel G. A. Smith
                              RHF Reference
                        1 Threads,  20980 MiB Core
         ---------------------------------------------------------

  ==> Geometry <==

    Molecular point group: c1
    Full point group: C1

    Geometry (in Angstrom), charge = 0, multiplicity = 1:

       Center              X                  Y                   Z               Mass       
    ------------   -----------------  -----------------  -----------------  -----------------
      Gh(C)           0.968516119260    -2.416335128464    -0.343635509290    12.000000000000
      Gh(C)           1.720501119260    -1.386573128464     0.056755490710    12.000000000000
      Gh(C)           1.597891119260     0.009644871536    -0.461911509290    12.000000000000
      Gh(C)           1.248405119260     1.009993871536     0.640517490710    12.000000000000
      Gh(C)           1.164578119260     2.434020871536     0.107246490710    12.000000000000
      Gh(H)           0.213745119260    -2.287459128464    -1.109683509290     1.007825032230
      Gh(H)           1.094269119260    -3.404565128464     0.076861490710     1.007825032230
      Gh(H)           2.467959119260    -1.553758128464     0.827906490710     1.007825032230
      Gh(H)           2.544540119260     0.314765871536    -0.920232509290     1.007825032230
      Gh(H)           0.832434119260     0.046710871536    -1.241238509290     1.007825032230
      Gh(H)           0.294614119260     0.722518871536     1.087528490710     1.007825032230
      Gh(H)           2.000285119260     0.951072871536     1.432033490710     1.007825032230
      Gh(H)           2.118004119260     2.743320871536    -0.323481509290     1.007825032230
      Gh(H)           0.405675119260     2.504842871536    -0.672958509290     1.007825032230
      Gh(H)           0.905968119260     3.142575871536     0.893987490710     1.007825032230
         C           -2.232140880740     1.079589871536    -0.713079509290    12.000000000000
         C           -2.211649880740    -0.217678128464    -0.394233509290    12.000000000000
         C           -2.218005880740    -0.748040128464     1.002878490710    12.000000000000
         H           -2.227619880740     1.406020871536    -1.743833509290     1.007825032230
         H           -2.257789880740     1.842450871536     0.055286490710     1.007825032230
         H           -2.188234880740    -0.949203128464    -1.196015509290     1.007825032230
         H           -1.321389880740    -1.340867128464     1.193518490710     1.007825032230
         H           -2.258420880740     0.063921871536     1.728530490710     1.007825032230
         H           -3.077628880740    -1.399755128464     1.167509490710     1.007825032230

  Running in c1 symmetry.

  Rotational constants: A =      0.05605  B =      0.04276  C =      0.02818 [cm^-1]
  Rotational constants: A =   1680.37536  B =   1281.79050  C =    844.79148 [MHz]
  Nuclear repulsion =   70.858544360978314

  Charge       = 0
  Multiplicity = 1
  Electrons    = 24
  Nalpha       = 12
  Nbeta        = 12

  ==> Algorithm <==

  SCF Algorithm Type is DF.
  DIIS enabled.
  MOM disabled.
  Fractional occupation disabled.
  Guess Type is SAD.
  Energy threshold   = 1.00e-08
  Density threshold  = 1.00e-08
  Integral threshold = 0.00e+00

  ==> Primary Basis <==

  Basis Set: JUN-CC-PVTZ
    Blend: JUN-CC-PVTZ
    Number of shells: 200
    Number of basis function: 536
    Number of Cartesian functions: 600
    Spherical Harmonics?: true
    Max angular momentum: 3

   => Loading Basis Set <=

    Name: (JUN-CC-PVTZ AUX)
    Role: JKFIT
    Keyword: DF_BASIS_SCF
    atoms 1-5, 16-18  entry C          line   152 file /home/r08543048/miniconda3/share/psi4/basis/jun-cc-pvtz-jkfit.gbs 
    atoms 6-15, 19-24 entry H          line    70 file /home/r08543048/miniconda3/share/psi4/basis/jun-cc-pvtz-jkfit.gbs 

  ==> Pre-Iterations <==

   -------------------------------------------------------
    Irrep   Nso     Nmo     Nalpha   Nbeta   Ndocc  Nsocc
   -------------------------------------------------------
     A        536     536       0       0       0       0
   -------------------------------------------------------
    Total     536     536      12      12      12       0
   -------------------------------------------------------

  ==> Integral Setup <==

  ==> DiskDFJK: Density-Fitted J/K Matrices <==

    J tasked:                  Yes
    K tasked:                  Yes
    wK tasked:                  No
    OpenMP threads:              1
    Integrals threads:           1
    Memory [MiB]:            15735
    Algorithm:                Core
    Integral Cache:           LOAD
    Schwarz Cutoff:          1E-12
    Fitting Condition:       1E-10

   => Auxiliary Basis Set <=

  Basis Set: (JUN-CC-PVTZ AUX)
    Blend: JUN-CC-PVTZ-JKFIT
    Number of shells: 392
    Number of basis function: 1240
    Number of Cartesian functions: 1488
    Spherical Harmonics?: true
    Max angular momentum: 4

  Minimum eigenvalue in the overlap matrix is 2.9131070456E-05.
  Using Symmetric Orthogonalization.

  SCF Guess: Superposition of Atomic Densities via on-the-fly atomic UHF.

  ==> Iterations <==

                           Total Energy        Delta E     RMS |[F,P]|

   @DF-RHF iter SAD:  -116.33261223777907   -1.16333e+02   0.00000e+00 
   @DF-RHF iter   1:  -116.98781311640911   -6.55201e-01   8.55241e-04 DIIS
   @DF-RHF iter   2:  -117.09545725681522   -1.07644e-01   3.67237e-04 DIIS
   @DF-RHF iter   3:  -117.11555289245254   -2.00956e-02   6.60788e-05 DIIS
   @DF-RHF iter   4:  -117.11684850371202   -1.29561e-03   1.99807e-05 DIIS
   @DF-RHF iter   5:  -117.11692313273491   -7.46290e-05   5.34266e-06 DIIS
   @DF-RHF iter   6:  -117.11692935451553   -6.22178e-06   9.65371e-07 DIIS
   @DF-RHF iter   7:  -117.11692966345481   -3.08939e-07   3.54616e-07 DIIS
   @DF-RHF iter   8:  -117.11692970433725   -4.08824e-08   1.22624e-07 DIIS
   @DF-RHF iter   9:  -117.11692971019626   -5.85901e-09   4.45387e-08 DIIS
   @DF-RHF iter  10:  -117.11692971113871   -9.42450e-10   1.01342e-08 DIIS
   @DF-RHF iter  11:  -117.11692971118177   -4.30589e-11   1.78932e-09 DIIS
  Energy and wave function converged.


  ==> Post-Iterations <==

    Orbital Energies [Eh]
    ---------------------

    Doubly Occupied:                                                      

       1A    -11.234374     2A    -11.220972     3A    -11.217541  
       4A     -1.064834     5A     -0.932929     6A     -0.757904  
       7A     -0.639704     8A     -0.582727     9A     -0.569056  
      10A     -0.523178    11A     -0.492803    12A     -0.357904  

    Virtual:                                                              

      13A      0.030549    14A      0.041021    15A      0.049014  
      16A      0.054126    17A      0.066482    18A      0.068117  
      19A      0.071666    20A      0.081142    21A      0.085035  
      22A      0.096161    23A      0.102390    24A      0.107882  
      25A      0.111266    26A      0.113253    27A      0.115212  
      28A      0.122636    29A      0.126690    30A      0.131858  
      31A      0.142700    32A      0.145414    33A      0.150546  
      34A      0.154262    35A      0.158146    36A      0.161426  
      37A      0.162788    38A      0.173076    39A      0.178625  
      40A      0.179409    41A      0.187341    42A      0.192355  
      43A      0.205280    44A      0.214891    45A      0.225916  
      46A      0.235023    47A      0.261777    48A      0.269254  
      49A      0.272664    50A      0.280352    51A      0.285575  
      52A      0.295024    53A      0.298444    54A      0.305085  
      55A      0.314998    56A      0.317254    57A      0.323506  
      58A      0.328562    59A      0.333461    60A      0.341325  
      61A      0.347763    62A      0.354372    63A      0.358626  
      64A      0.363217    65A      0.365561    66A      0.370205  
      67A      0.374580    68A      0.380413    69A      0.383456  
      70A      0.390660    71A      0.399415    72A      0.401456  
      73A      0.409311    74A      0.414658    75A      0.419892  
      76A      0.421992    77A      0.430750    78A      0.435436  
      79A      0.446770    80A      0.456126    81A      0.464022  
      82A      0.470594    83A      0.476651    84A      0.485526  
      85A      0.498204    86A      0.510027    87A      0.514131  
      88A      0.525145    89A      0.530734    90A      0.540230  
      91A      0.542052    92A      0.550766    93A      0.555613  
      94A      0.560812    95A      0.564505    96A      0.570803  
      97A      0.576175    98A      0.589330    99A      0.592358  
     100A      0.597933   101A      0.620254   102A      0.624063  
     103A      0.628507   104A      0.632123   105A      0.636942  
     106A      0.643515   107A      0.651809   108A      0.661328  
     109A      0.672157   110A      0.678575   111A      0.688206  
     112A      0.696894   113A      0.709349   114A      0.718468  
     115A      0.722096   116A      0.728163   117A      0.733894  
     118A      0.745746   119A      0.748792   120A      0.759211  
     121A      0.764757   122A      0.776706   123A      0.791881  
     124A      0.799350   125A      0.805908   126A      0.817619  
     127A      0.820093   128A      0.828387   129A      0.832436  
     130A      0.864108   131A      0.875997   132A      0.901666  
     133A      0.908496   134A      0.919265   135A      0.932783  
     136A      0.952997   137A      0.957497   138A      0.968501  
     139A      0.992622   140A      1.003272   141A      1.029622  
     142A      1.060833   143A      1.074815   144A      1.080220  
     145A      1.095888   146A      1.102003   147A      1.105118  
     148A      1.127005   149A      1.140061   150A      1.155692  
     151A      1.158021   152A      1.167485   153A      1.178502  
     154A      1.184722   155A      1.199286   156A      1.206617  
     157A      1.223070   158A      1.234354   159A      1.247062  
     160A      1.259361   161A      1.267534   162A      1.269605  
     163A      1.280636   164A      1.284366   165A      1.292358  
     166A      1.301230   167A      1.306185   168A      1.316930  
     169A      1.326647   170A      1.330979   171A      1.340332  
     172A      1.347544   173A      1.354562   174A      1.366747  
     175A      1.373405   176A      1.382838   177A      1.393621  
     178A      1.403623   179A      1.410552   180A      1.413706  
     181A      1.426622   182A      1.432662   183A      1.436961  
     184A      1.444097   185A      1.446569   186A      1.465436  
     187A      1.467800   188A      1.481289   189A      1.484907  
     190A      1.495390   191A      1.496580   192A      1.522620  
     193A      1.524646   194A      1.539126   195A      1.541584  
     196A      1.544723   197A      1.553052   198A      1.573945  
     199A      1.591487   200A      1.593515   201A      1.606596  
     202A      1.608588   203A      1.611547   204A      1.626390  
     205A      1.631283   206A      1.635953   207A      1.643379  
     208A      1.662657   209A      1.681314   210A      1.686545  
     211A      1.691515   212A      1.698235   213A      1.706034  
     214A      1.727878   215A      1.732195   216A      1.748234  
     217A      1.757391   218A      1.770847   219A      1.781783  
     220A      1.791645   221A      1.800896   222A      1.816064  
     223A      1.844057   224A      1.865158   225A      1.877515  
     226A      1.887970   227A      1.894855   228A      1.919141  
     229A      1.931985   230A      1.938459   231A      1.979023  
     232A      1.991676   233A      2.015704   234A      2.028155  
     235A      2.063779   236A      2.081543   237A      2.117827  
     238A      2.120640   239A      2.155495   240A      2.180464  
     241A      2.194782   242A      2.217024   243A      2.242978  
     244A      2.258579   245A      2.294993   246A      2.348844  
     247A      2.374677   248A      2.397945   249A      2.417233  
     250A      2.439375   251A      2.476389   252A      2.487349  
     253A      2.545948   254A      2.581714   255A      2.611789  
     256A      2.651482   257A      2.664977   258A      2.739540  
     259A      2.756603   260A      2.770751   261A      2.813951  
     262A      2.839442   263A      2.844393   264A      2.886760  
     265A      2.891922   266A      2.945444   267A      2.957480  
     268A      2.959833   269A      3.027575   270A      3.055638  
     271A      3.087160   272A      3.102760   273A      3.117795  
     274A      3.140646   275A      3.168715   276A      3.195030  
     277A      3.220053   278A      3.252132   279A      3.266167  
     280A      3.290427   281A      3.315249   282A      3.338080  
     283A      3.351843   284A      3.373265   285A      3.391415  
     286A      3.397846   287A      3.439740   288A      3.445851  
     289A      3.457076   290A      3.488201   291A      3.493503  
     292A      3.507422   293A      3.515756   294A      3.525045  
     295A      3.539374   296A      3.559889   297A      3.569760  
     298A      3.578562   299A      3.585702   300A      3.601782  
     301A      3.607889   302A      3.619605   303A      3.639669  
     304A      3.642386   305A      3.656491   306A      3.662517  
     307A      3.682453   308A      3.690135   309A      3.692923  
     310A      3.707922   311A      3.717897   312A      3.752623  
     313A      3.758213   314A      3.767803   315A      3.769957  
     316A      3.787766   317A      3.793729   318A      3.804731  
     319A      3.816280   320A      3.821925   321A      3.844848  
     322A      3.852490   323A      3.859752   324A      3.865160  
     325A      3.882349   326A      3.890395   327A      3.899658  
     328A      3.913594   329A      3.918314   330A      3.929962  
     331A      3.952551   332A      3.964253   333A      3.986241  
     334A      3.993614   335A      4.016721   336A      4.034028  
     337A      4.052178   338A      4.055384   339A      4.075806  
     340A      4.084665   341A      4.087717   342A      4.093402  
     343A      4.116959   344A      4.131409   345A      4.146667  
     346A      4.156191   347A      4.176272   348A      4.184739  
     349A      4.194306   350A      4.203314   351A      4.210314  
     352A      4.221416   353A      4.232402   354A      4.239722  
     355A      4.266232   356A      4.290572   357A      4.293315  
     358A      4.314604   359A      4.325623   360A      4.331722  
     361A      4.346620   362A      4.370829   363A      4.373523  
     364A      4.383515   365A      4.388661   366A      4.413140  
     367A      4.418827   368A      4.430851   369A      4.446107  
     370A      4.448854   371A      4.463205   372A      4.474053  
     373A      4.482691   374A      4.489809   375A      4.505953  
     376A      4.511340   377A      4.522649   378A      4.529404  
     379A      4.532643   380A      4.550090   381A      4.579071  
     382A      4.587833   383A      4.608553   384A      4.613752  
     385A      4.623145   386A      4.633064   387A      4.638444  
     388A      4.643476   389A      4.652077   390A      4.653505  
     391A      4.660994   392A      4.682043   393A      4.693248  
     394A      4.702180   395A      4.709183   396A      4.723748  
     397A      4.732191   398A      4.757778   399A      4.766194  
     400A      4.773616   401A      4.787357   402A      4.794245  
     403A      4.804470   404A      4.806375   405A      4.817980  
     406A      4.835790   407A      4.842422   408A      4.846348  
     409A      4.855569   410A      4.863138   411A      4.887697  
     412A      4.892339   413A      4.898601   414A      4.912457  
     415A      4.919745   416A      4.930870   417A      4.938450  
     418A      4.949701   419A      4.957677   420A      4.971081  
     421A      4.982679   422A      4.991745   423A      4.998662  
     424A      5.014231   425A      5.021677   426A      5.040934  
     427A      5.055984   428A      5.066544   429A      5.080655  
     430A      5.089367   431A      5.096067   432A      5.128293  
     433A      5.154240   434A      5.173585   435A      5.180542  
     436A      5.187748   437A      5.209035   438A      5.214296  
     439A      5.223665   440A      5.236846   441A      5.255375  
     442A      5.307931   443A      5.313716   444A      5.324222  
     445A      5.337165   446A      5.356210   447A      5.365553  
     448A      5.393184   449A      5.402703   450A      5.434436  
     451A      5.450345   452A      5.457818   453A      5.477287  
     454A      5.486625   455A      5.504924   456A      5.558177  
     457A      5.567138   458A      5.575538   459A      5.639924  
     460A      5.651808   461A      5.670099   462A      5.681983  
     463A      5.691276   464A      5.698989   465A      5.701021  
     466A      5.735235   467A      5.778973   468A      5.784398  
     469A      5.803963   470A      5.851482   471A      5.862474  
     472A      5.878197   473A      5.956171   474A      5.983970  
     475A      6.001101   476A      6.012587   477A      6.053834  
     478A      6.065145   479A      6.078415   480A      6.103327  
     481A      6.131072   482A      6.217197   483A      6.253090  
     484A      6.285767   485A      6.335008   486A      6.363816  
     487A      6.378096   488A      6.402380   489A      6.411752  
     490A      6.454218   491A      6.462430   492A      6.475717  
     493A      6.509114   494A      6.533184   495A      6.539640  
     496A      6.659147   497A      6.698451   498A      6.706323  
     499A      6.751414   500A      6.795168   501A      6.824882  
     502A      6.945678   503A      7.041105   504A      7.113242  
     505A      7.327551   506A      7.408761   507A      7.478212  
     508A      7.549214   509A      7.593342   510A      7.654625  
     511A      7.699591   512A      7.709747   513A      7.749518  
     514A      7.831989   515A      7.882043   516A      7.913873  
     517A      7.985638   518A      8.055659   519A      8.154056  
     520A      8.309113   521A      8.384709   522A      8.622216  
     523A      8.860652   524A      9.450049   525A      9.670365  
     526A      9.779594   527A      9.922540   528A     10.227300  
     529A     12.369609   530A     14.759705   531A     15.408267  
     532A     41.051489   533A     44.169850   534A     45.632933  
     535A     46.019025   536A     47.261299  

    Final Occupation by Irrep:
              A 
    DOCC [    12 ]

  @DF-RHF Final Energy:  -117.11692971118177

   => Energetics <=

    Nuclear Repulsion Energy =             70.8585443609783141
    One-Electron Energy =                -296.7630986072559267
    Two-Electron Energy =                 108.7876245350958300
    Total Energy =                       -117.1169297111817684

Computation Completed


Properties will be evaluated at   0.000000,   0.000000,   0.000000 [a0]

Properties computed using the SCF density matrix

  Nuclear Dipole Moment: [e a0]
     X:  -100.7259      Y:     0.5779      Z:     1.0930

  Electronic Dipole Moment: [e a0]
     X:   100.7266      Y:    -0.7157      Z:    -0.9980

  Dipole Moment: [e a0]
     X:     0.0007      Y:    -0.1378      Z:     0.0950     Total:     0.1674

  Dipole Moment: [D]
     X:     0.0017      Y:    -0.3502      Z:     0.2415     Total:     0.4254


*** tstop() called on r282 at Fri Sep 10 18:41:47 2021
Module time:
	user time   =      54.50 seconds =       0.91 minutes
	system time =       0.76 seconds =       0.01 minutes
	total time  =         55 seconds =       0.92 minutes
Total time:
	user time   =     197.55 seconds =       3.29 minutes
	system time =       3.31 seconds =       0.06 minutes
	total time  =        201 seconds =       3.35 minutes
  Constructing Basis Sets for SAPT...

   => Loading Basis Set <=

    Name: (JUN-CC-PVTZ AUX)
    Role: RIFIT
    Keyword: DF_BASIS_SAPT
    atoms 1-5, 16-18  entry C          line   132 file /home/r08543048/miniconda3/share/psi4/basis/jun-cc-pvtz-ri.gbs 
    atoms 6-15, 19-24 entry H          line    30 file /home/r08543048/miniconda3/share/psi4/basis/jun-cc-pvtz-ri.gbs 


  //>>>>>>>>>>>>>>>>>>>>>>>>>>>>>>>>>>>//
  //               SAPT0               //
  //<<<<<<<<<<<<<<<<<<<<<<<<<<<<<<<<<<<//


*** tstart() called on r282
*** at Fri Sep 10 18:41:47 2021

        SAPT0  
    Ed Hohenstein
     6 June 2009

      Orbital Information
  --------------------------
    NSO        =       536
    NMO        =       536
    NRI        =      1256
    NOCC A     =        20
    NOCC B     =        12
    FOCC A     =         0
    FOCC B     =         0
    NVIR A     =       516
    NVIR B     =       524

    Elst10,r            =    -0.003761151066 [Eh]
    Exch10              =     0.008528341143 [Eh]
    Exch10 (S^2)        =     0.008502324143 [Eh]

    Iter     Energy [mEh]          dE [mEh]         Residual      Time [s]
       1      -0.91230835       0.912308347       4.445013794             1
       2      -1.08846871       0.176160365       1.796286826             2
       3      -1.12103342       0.032564710       0.468760321             3
       4      -1.11687387      -0.004159557       0.189134228             5
       5      -1.11496340      -0.001910461       0.062064423             6
       6      -1.11536600       0.000402597       0.023331503             7
       7      -1.11555058       0.000184578       0.006495350             8
       8      -1.11549811      -0.000052467       0.002056602            10
       9      -1.11549005      -0.000008057       0.000454955            11
      10      -1.11549323       0.000003172       0.000102951            12
      11      -1.11549325       0.000000029       0.000027966            13
      12      -1.11549312      -0.000000140       0.000006891            14
      13      -1.11549312       0.000000007       0.000001983            16
      14      -1.11549313       0.000000007       0.000000623            17

    CHF Iterations converged


    Iter     Energy [mEh]          dE [mEh]         Residual      Time [s]
       1      -1.13057794       1.130577937       4.746085949             1
       2      -1.45310906       0.322531120       1.501837810             2
       3      -1.46149190       0.008382840       0.554253182             3
       4      -1.45284674      -0.008645154       0.122326220             4
       5      -1.45333626       0.000489519       0.042573923             5
       6      -1.45367072       0.000334455       0.013427037             6
       7      -1.45362034      -0.000050378       0.004928589             7
       8      -1.45359587      -0.000024465       0.001049367             9
       9      -1.45360169       0.000005813       0.000238492            10
      10      -1.45360224       0.000000557       0.000069229            11
      11      -1.45360197      -0.000000272       0.000019089            12
      12      -1.45360193      -0.000000043       0.000004096            13
      13      -1.45360195       0.000000022       0.000000876            14

    CHF Iterations converged

    Ind20,r (A<-B)      =    -0.001115493129 [Eh]
    Ind20,r (B<-A)      =    -0.001453601951 [Eh]
    Ind20,r             =    -0.002569095080 [Eh]
    Exch-Ind20,r (A<-B) =     0.000978029902 [Eh]
    Exch-Ind20,r (B<-A) =     0.001357371032 [Eh]
    Exch-Ind20,r        =     0.002335400934 [Eh]
    Disp20              =    -0.010045049565 [Eh]
    Disp20 (SS)         =    -0.005022524782 [Eh]
    Disp20 (OS)         =    -0.005022524782 [Eh]
    Exch-Disp20         =     0.001115345903 [Eh]
    Exch-Disp20 (SS)    =     0.000722919028 [Eh]
    Exch-Disp20 (OS)    =     0.000392426875 [Eh]

    SAPT Results 
  --------------------------------------------------------------------------------------------------------
    Electrostatics                 -3.76115107 [mEh]      -2.36015793 [kcal/mol]      -9.87490076 [kJ/mol]
      Elst10,r                     -3.76115107 [mEh]      -2.36015793 [kcal/mol]      -9.87490076 [kJ/mol]

    Exchange                        8.52834114 [mEh]       5.35161486 [kcal/mol]      22.39115659 [kJ/mol]
      Exch10                        8.52834114 [mEh]       5.35161486 [kcal/mol]      22.39115659 [kJ/mol]
      Exch10(S^2)                   8.50232414 [mEh]       5.33528895 [kcal/mol]      22.32284896 [kJ/mol]

    Induction                      -0.93532097 [mEh]      -0.58692277 [kcal/mol]      -2.45568486 [kJ/mol]
      Ind20,r                      -2.56909508 [mEh]      -1.61213150 [kcal/mol]      -6.74515820 [kJ/mol]
      Exch-Ind20,r                  2.33540093 [mEh]       1.46548621 [kcal/mol]       6.13159431 [kJ/mol]
      delta HF,r (2)               -0.70162682 [mEh]      -0.44027748 [kcal/mol]      -1.84212096 [kJ/mol]

    Dispersion                     -8.92970366 [mEh]      -5.60347365 [kcal/mol]     -23.44493373 [kJ/mol]
      Disp20                      -10.04504956 [mEh]      -6.30336377 [kcal/mol]     -26.37327400 [kJ/mol]
      Exch-Disp20                   1.11534590 [mEh]       0.69989012 [kcal/mol]       2.92834026 [kJ/mol]
      Disp20 (SS)                  -5.02252478 [mEh]      -3.15168188 [kcal/mol]     -13.18663700 [kJ/mol]
      Disp20 (OS)                  -5.02252478 [mEh]      -3.15168188 [kcal/mol]     -13.18663700 [kJ/mol]
      Exch-Disp20 (SS)              0.72291903 [mEh]       0.45363854 [kcal/mol]       1.89802365 [kJ/mol]
      Exch-Disp20 (OS)              0.39242687 [mEh]       0.24625158 [kcal/mol]       1.03031662 [kJ/mol]

  Total HF                          3.83186911 [mEh]       2.40453417 [kcal/mol]      10.06057097 [kJ/mol]
  Total SAPT0                      -5.09783455 [mEh]      -3.19893948 [kcal/mol]     -13.38436277 [kJ/mol]

  Special recipe for scaled SAPT0 (see Manual):
    Electrostatics sSAPT0          -3.76115107 [mEh]      -2.36015793 [kcal/mol]      -9.87490076 [kJ/mol]
    Exchange sSAPT0                 8.52834114 [mEh]       5.35161486 [kcal/mol]      22.39115659 [kJ/mol]
    Induction sSAPT0               -0.91381641 [mEh]      -0.57342845 [kcal/mol]      -2.39922465 [kJ/mol]
    Dispersion sSAPT0              -8.91943347 [mEh]      -5.59702900 [kcal/mol]     -23.41796934 [kJ/mol]
  Total sSAPT0                     -5.06605980 [mEh]      -3.17900052 [kcal/mol]     -13.30093817 [kJ/mol]
  --------------------------------------------------------------------------------------------------------

*** tstop() called on r282 at Fri Sep 10 18:44:13 2021
Module time:
	user time   =     125.35 seconds =       2.09 minutes
	system time =      20.45 seconds =       0.34 minutes
	total time  =        146 seconds =       2.43 minutes
Total time:
	user time   =     323.05 seconds =       5.38 minutes
	system time =      23.76 seconds =       0.40 minutes
	total time  =        347 seconds =       5.78 minutes

    Psi4 stopped on: Friday, 10 September 2021 06:44PM
    Psi4 wall time for execution: 0:05:47.35

*** Psi4 exiting successfully. Buy a developer a beer!
