
    -----------------------------------------------------------------------
          Psi4: An Open-Source Ab Initio Electronic Structure Package
                               Psi4 1.3.2 release

                         Git: Rev {HEAD} ecbda83 


    R. M. Parrish, L. A. Burns, D. G. A. Smith, A. C. Simmonett,
    A. E. DePrince III, E. G. Hohenstein, U. Bozkaya, A. Yu. Sokolov,
    R. Di Remigio, R. M. Richard, J. F. Gonthier, A. M. James,
    H. R. McAlexander, A. Kumar, M. Saitow, X. Wang, B. P. Pritchard,
    P. Verma, H. F. Schaefer III, K. Patkowski, R. A. King, E. F. Valeev,
    F. A. Evangelista, J. M. Turney, T. D. Crawford, and C. D. Sherrill,
    J. Chem. Theory Comput. 13(7) pp 3185--3197 (2017).
    (doi: 10.1021/acs.jctc.7b00174)


                         Additional Contributions by
    P. Kraus, H. Kruse, M. H. Lechner, M. C. Schieber, R. A. Shaw,
    A. Alenaizan, R. Galvelis, Z. L. Glick, S. Lehtola, and J. P. Misiewicz

    -----------------------------------------------------------------------


    Psi4 started on: Thursday, 09 September 2021 10:04AM

    Process ID: 53733
    Host:       r282
    PSIDATADIR: /home/r08543048/miniconda3/share/psi4
    Memory:     500.0 MiB
    Threads:    1
    
  ==> Input File <==

--------------------------------------------------------------------------
# Any line starting with the # character is a comment line
#! Sample  computation

memory 22 gb

molecule Dimer {
 
0 1                               
 H    0.31003500   -2.08999700    1.11835100
 C    2.06130700   -0.78872300    0.66261200
 C    0.78583400   -1.50353700    0.29511400
 O    0.25742200   -1.46801800   -0.81349600
 H    2.73744800   -1.53807100    1.11819800
 C    2.73739600   -0.05505400   -0.49411500
 H    2.97526900   -0.77628000   -1.29362700
 H    2.02442700    0.66512600   -0.92600700
 H    1.79680600   -0.08785600    1.47809000
 C    4.00666900    0.67293400   -0.03725700
 H    3.77138100    1.41973300    0.73862100
 H    4.73992800   -0.03443100    0.38453000
 H    4.48950900    1.19742100   -0.87648700






 --
0 1
 H    -0.31010100    2.09420600   -1.11292400
 C    -2.06054900    0.79012300   -0.66208900
 C    -0.78605700    1.50511100   -0.29166100
 O    -0.25845300    1.46708100    0.81726400
 H    -1.79453100    0.09098200   -1.47857400
 C    -2.73760900    0.05368700    0.49230900
 H    -2.02489000   -0.66728400    0.92325100
 H    -2.97656500    0.77307600    1.29315200
 H    -2.73666700    1.53980900   -1.11715400
 C    -4.00617000   -0.67364000    0.03241400
 H    -4.73918300    0.03446100   -0.38856700
 H    -3.76977900   -1.41861500   -0.74488000
 H    -4.48976200   -1.20018400    0.86992100









 
 
 
units angstrom

no_reorient
symmetry c1
}

set globals{
  basis jun-cc-pVTZ
  scf_type DF 
  freeze_core True
}

energy('sapt0')


--------------------------------------------------------------------------

  Memory set to  20.489 GiB by Python driver.

  //>>>>>>>>>>>>>>>>>>>>>>>>>>>>>>>>>>>//
  //              Dimer HF             //
  //<<<<<<<<<<<<<<<<<<<<<<<<<<<<<<<<<<<//


*** tstart() called on r282
*** at Thu Sep  9 10:04:31 2021

   => Loading Basis Set <=

    Name: JUN-CC-PVTZ
    Role: ORBITAL
    Keyword: BASIS
    atoms 1, 5, 7-9, 11-14, 18, 20-22, 24-26 entry H          line    36 file /home/r08543048/miniconda3/share/psi4/basis/jun-cc-pvtz.gbs 
    atoms 2-3, 6, 10, 15-16, 19, 23          entry C          line   217 file /home/r08543048/miniconda3/share/psi4/basis/jun-cc-pvtz.gbs 
    atoms 4, 17                              entry O          line   305 file /home/r08543048/miniconda3/share/psi4/basis/jun-cc-pvtz.gbs 


         ---------------------------------------------------------
                                   SCF
               by Justin Turney, Rob Parrish, Andy Simmonett
                          and Daniel G. A. Smith
                              RHF Reference
                        1 Threads,  20980 MiB Core
         ---------------------------------------------------------

  ==> Geometry <==

    Molecular point group: c1
    Full point group: C1

    Geometry (in Angstrom), charge = 0, multiplicity = 1:

       Center              X                  Y                   Z               Mass       
    ------------   -----------------  -----------------  -----------------  -----------------
         H            0.310057813295    -2.089982686200     1.118254018732     1.007825032230
         C            2.061329813295    -0.788708686200     0.662515018732    12.000000000000
         C            0.785856813295    -1.503522686200     0.295017018732    12.000000000000
         O            0.257444813295    -1.468003686200    -0.813592981268    15.994914619570
         H            2.737470813295    -1.538056686200     1.118101018732     1.007825032230
         C            2.737418813295    -0.055039686200    -0.494211981268    12.000000000000
         H            2.975291813295    -0.776265686200    -1.293723981268     1.007825032230
         H            2.024449813295     0.665140313800    -0.926103981268     1.007825032230
         H            1.796828813295    -0.087841686200     1.477993018732     1.007825032230
         C            4.006691813295     0.672948313800    -0.037353981268    12.000000000000
         H            3.771403813295     1.419747313800     0.738524018732     1.007825032230
         H            4.739950813295    -0.034416686200     0.384433018732     1.007825032230
         H            4.489531813295     1.197435313800    -0.876583981268     1.007825032230
         H           -0.310078186705     2.094220313800    -1.113020981268     1.007825032230
         C           -2.060526186705     0.790137313800    -0.662185981268    12.000000000000
         C           -0.786034186705     1.505125313800    -0.291757981268    12.000000000000
         O           -0.258430186705     1.467095313800     0.817167018732    15.994914619570
         H           -1.794508186705     0.090996313800    -1.478670981268     1.007825032230
         C           -2.737586186705     0.053701313800     0.492212018732    12.000000000000
         H           -2.024867186705    -0.667269686200     0.923154018732     1.007825032230
         H           -2.976542186705     0.773090313800     1.293055018732     1.007825032230
         H           -2.736644186705     1.539823313800    -1.117250981268     1.007825032230
         C           -4.006147186705    -0.673625686200     0.032317018732    12.000000000000
         H           -4.739160186705     0.034475313800    -0.388663981268     1.007825032230
         H           -3.769756186705    -1.418600686200    -0.744976981268     1.007825032230
         H           -4.489739186705    -1.200169686200     0.869824018732     1.007825032230

  Running in c1 symmetry.

  Rotational constants: A =      0.07366  B =      0.01866  C =      0.01655 [cm^-1]
  Rotational constants: A =   2208.18214  B =    559.48886  C =    496.08328 [MHz]
  Nuclear repulsion =  533.884927345772894

  Charge       = 0
  Multiplicity = 1
  Electrons    = 80
  Nalpha       = 40
  Nbeta        = 40

  ==> Algorithm <==

  SCF Algorithm Type is DF.
  DIIS enabled.
  MOM disabled.
  Fractional occupation disabled.
  Guess Type is SAD.
  Energy threshold   = 1.00e-08
  Density threshold  = 1.00e-08
  Integral threshold = 0.00e+00

  ==> Primary Basis <==

  Basis Set: JUN-CC-PVTZ
    Blend: JUN-CC-PVTZ
    Number of shells: 226
    Number of basis function: 614
    Number of Cartesian functions: 690
    Spherical Harmonics?: true
    Max angular momentum: 3

   => Loading Basis Set <=

    Name: (JUN-CC-PVTZ AUX)
    Role: JKFIT
    Keyword: DF_BASIS_SCF
    atoms 1, 5, 7-9, 11-14, 18, 20-22, 24-26 entry H          line    70 file /home/r08543048/miniconda3/share/psi4/basis/jun-cc-pvtz-jkfit.gbs 
    atoms 2-3, 6, 10, 15-16, 19, 23          entry C          line   152 file /home/r08543048/miniconda3/share/psi4/basis/jun-cc-pvtz-jkfit.gbs 
    atoms 4, 17                              entry O          line   272 file /home/r08543048/miniconda3/share/psi4/basis/jun-cc-pvtz-jkfit.gbs 

  ==> Pre-Iterations <==

   -------------------------------------------------------
    Irrep   Nso     Nmo     Nalpha   Nbeta   Ndocc  Nsocc
   -------------------------------------------------------
     A        614     614       0       0       0       0
   -------------------------------------------------------
    Total     614     614      40      40      40       0
   -------------------------------------------------------

  ==> Integral Setup <==

  ==> DiskDFJK: Density-Fitted J/K Matrices <==

    J tasked:                  Yes
    K tasked:                  Yes
    wK tasked:                  No
    OpenMP threads:              1
    Integrals threads:           1
    Memory [MiB]:            15735
    Algorithm:                Core
    Integral Cache:           SAVE
    Schwarz Cutoff:          1E-12
    Fitting Condition:       1E-10

   => Auxiliary Basis Set <=

  Basis Set: (JUN-CC-PVTZ AUX)
    Blend: JUN-CC-PVTZ-JKFIT
    Number of shells: 450
    Number of basis function: 1430
    Number of Cartesian functions: 1720
    Spherical Harmonics?: true
    Max angular momentum: 4

  Minimum eigenvalue in the overlap matrix is 2.7939252738E-05.
  Using Symmetric Orthogonalization.

  SCF Guess: Superposition of Atomic Densities via on-the-fly atomic UHF.

  ==> Iterations <==

                           Total Energy        Delta E     RMS |[F,P]|

   @DF-RHF iter SAD:  -460.38626712864607   -4.60386e+02   0.00000e+00 
   @DF-RHF iter   1:  -461.73059666127779   -1.34433e+00   1.39180e-03 DIIS
   @DF-RHF iter   2:  -462.02971867772123   -2.99122e-01   8.38025e-04 DIIS
   @DF-RHF iter   3:  -462.13231229689984   -1.02594e-01   1.64748e-04 DIIS
   @DF-RHF iter   4:  -462.13887336804510   -6.56107e-03   7.00064e-05 DIIS
   @DF-RHF iter   5:  -462.14005347672514   -1.18011e-03   1.21253e-05 DIIS
   @DF-RHF iter   6:  -462.14012394254956   -7.04658e-05   4.66210e-06 DIIS
   @DF-RHF iter   7:  -462.14013359133207   -9.64878e-06   2.02895e-06 DIIS
   @DF-RHF iter   8:  -462.14013565514904   -2.06382e-06   7.50433e-07 DIIS
   @DF-RHF iter   9:  -462.14013601969305   -3.64544e-07   1.62692e-07 DIIS
   @DF-RHF iter  10:  -462.14013603681121   -1.71182e-08   4.16204e-08 DIIS
   @DF-RHF iter  11:  -462.14013603761617   -8.04960e-10   1.28549e-08 DIIS
   @DF-RHF iter  12:  -462.14013603770417   -8.79936e-11   5.08028e-09 DIIS
  Energy and wave function converged.


  ==> Post-Iterations <==

    Orbital Energies [Eh]
    ---------------------

    Doubly Occupied:                                                      

       1A    -20.554578     2A    -20.554534     3A    -11.335586  
       4A    -11.335551     5A    -11.237638     6A    -11.237623  
       7A    -11.225333     8A    -11.225304     9A    -11.217764  
      10A    -11.217738    11A     -1.380948    12A     -1.377772  
      13A     -1.072306    14A     -1.070954    15A     -0.968849  
      16A     -0.966995    17A     -0.842041    18A     -0.838742  
      19A     -0.765794    20A     -0.760669    21A     -0.666907  
      22A     -0.666753    23A     -0.645969    24A     -0.635444  
      25A     -0.625859    26A     -0.624686    27A     -0.564895  
      28A     -0.561075    29A     -0.558956    30A     -0.552740  
      31A     -0.506514    32A     -0.504542    33A     -0.497582  
      34A     -0.497150    35A     -0.483964    36A     -0.481197  
      37A     -0.472555    38A     -0.471937    39A     -0.418561  
      40A     -0.418383  

    Virtual:                                                              

      41A      0.048370    42A      0.048621    43A      0.050165  
      44A      0.061757    45A      0.062855    46A      0.066929  
      47A      0.077374    48A      0.085418    49A      0.085600  
      50A      0.091657    51A      0.095177    52A      0.100891  
      53A      0.112351    54A      0.113774    55A      0.117926  
      56A      0.120666    57A      0.121531    58A      0.132657  
      59A      0.132711    60A      0.135196    61A      0.149299  
      62A      0.152577    63A      0.159315    64A      0.164959  
      65A      0.178431    66A      0.185827    67A      0.188231  
      68A      0.194077    69A      0.197097    70A      0.198955  
      71A      0.204043    72A      0.206128    73A      0.221934  
      74A      0.236312    75A      0.242654    76A      0.248190  
      77A      0.256005    78A      0.262984    79A      0.269610  
      80A      0.273732    81A      0.277943    82A      0.279877  
      83A      0.287583    84A      0.289654    85A      0.296360  
      86A      0.300500    87A      0.302637    88A      0.305125  
      89A      0.315733    90A      0.323886    91A      0.325333  
      92A      0.329587    93A      0.333989    94A      0.339279  
      95A      0.343604    96A      0.346765    97A      0.349410  
      98A      0.355563    99A      0.363740   100A      0.371960  
     101A      0.374814   102A      0.379019   103A      0.382571  
     104A      0.391874   105A      0.395129   106A      0.400978  
     107A      0.402267   108A      0.408016   109A      0.409136  
     110A      0.416341   111A      0.427637   112A      0.433220  
     113A      0.436434   114A      0.437125   115A      0.450308  
     116A      0.456038   117A      0.458177   118A      0.463031  
     119A      0.477844   120A      0.487651   121A      0.494586  
     122A      0.510975   123A      0.514762   124A      0.525639  
     125A      0.528954   126A      0.532065   127A      0.536807  
     128A      0.541333   129A      0.541740   130A      0.542379  
     131A      0.549855   132A      0.553372   133A      0.572164  
     134A      0.572244   135A      0.578952   136A      0.587166  
     137A      0.590009   138A      0.601927   139A      0.609558  
     140A      0.620400   141A      0.640221   142A      0.641814  
     143A      0.649896   144A      0.653432   145A      0.666849  
     146A      0.667872   147A      0.671547   148A      0.679484  
     149A      0.689255   150A      0.697049   151A      0.703228  
     152A      0.703384   153A      0.715868   154A      0.727370  
     155A      0.741520   156A      0.755488   157A      0.756162  
     158A      0.762046   159A      0.764701   160A      0.765579  
     161A      0.794182   162A      0.799295   163A      0.800696  
     164A      0.806213   165A      0.821703   166A      0.821785  
     167A      0.825600   168A      0.834175   169A      0.835714  
     170A      0.841320   171A      0.846980   172A      0.857587  
     173A      0.861448   174A      0.862377   175A      0.872626  
     176A      0.877484   177A      0.886615   178A      0.893981  
     179A      0.905410   180A      0.906685   181A      0.914317  
     182A      0.923519   183A      0.924075   184A      0.932942  
     185A      0.940802   186A      0.953129   187A      0.972921  
     188A      0.978912   189A      0.991289   190A      0.992628  
     191A      1.011718   192A      1.014004   193A      1.035170  
     194A      1.042023   195A      1.042816   196A      1.060867  
     197A      1.075844   198A      1.083542   199A      1.085411  
     200A      1.100708   201A      1.104999   202A      1.127305  
     203A      1.144560   204A      1.146388   205A      1.151981  
     206A      1.162155   207A      1.163246   208A      1.172501  
     209A      1.200163   210A      1.219861   211A      1.222572  
     212A      1.224846   213A      1.237936   214A      1.241234  
     215A      1.256598   216A      1.266741   217A      1.275431  
     218A      1.283229   219A      1.293601   220A      1.301621  
     221A      1.311243   222A      1.318619   223A      1.336039  
     224A      1.339136   225A      1.346253   226A      1.356564  
     227A      1.367382   228A      1.369589   229A      1.382426  
     230A      1.393676   231A      1.398921   232A      1.399004  
     233A      1.408423   234A      1.417987   235A      1.429888  
     236A      1.436801   237A      1.441462   238A      1.445808  
     239A      1.458792   240A      1.468651   241A      1.472132  
     242A      1.482013   243A      1.486270   244A      1.491991  
     245A      1.506486   246A      1.508205   247A      1.519420  
     248A      1.538654   249A      1.553105   250A      1.560748  
     251A      1.566220   252A      1.573890   253A      1.582741  
     254A      1.585479   255A      1.597511   256A      1.611014  
     257A      1.613077   258A      1.614746   259A      1.623878  
     260A      1.645596   261A      1.651087   262A      1.651747  
     263A      1.658381   264A      1.678928   265A      1.679202  
     266A      1.692570   267A      1.697772   268A      1.708476  
     269A      1.722943   270A      1.727879   271A      1.739351  
     272A      1.755652   273A      1.783653   274A      1.789208  
     275A      1.794245   276A      1.820282   277A      1.822860  
     278A      1.832297   279A      1.844609   280A      1.861697  
     281A      1.871980   282A      1.879301   283A      1.880611  
     284A      1.909409   285A      1.909837   286A      1.917991  
     287A      1.918098   288A      1.926457   289A      1.942537  
     290A      1.944595   291A      1.985003   292A      1.990018  
     293A      2.022286   294A      2.027464   295A      2.043688  
     296A      2.055134   297A      2.164027   298A      2.219549  
     299A      2.324308   300A      2.373253   301A      2.428811  
     302A      2.429734   303A      2.435797   304A      2.467123  
     305A      2.495086   306A      2.525895   307A      2.595122  
     308A      2.596147   309A      2.702165   310A      2.720610  
     311A      2.733136   312A      2.762250   313A      2.769622  
     314A      2.782363   315A      2.802112   316A      2.819692  
     317A      2.823389   318A      2.828454   319A      2.860482  
     320A      2.881562   321A      2.883270   322A      2.895778  
     323A      2.907106   324A      2.913194   325A      2.919161  
     326A      2.924683   327A      2.937305   328A      2.971531  
     329A      2.978533   330A      2.996528   331A      3.002313  
     332A      3.020416   333A      3.021078   334A      3.045438  
     335A      3.055476   336A      3.064560   337A      3.081949  
     338A      3.087199   339A      3.113412   340A      3.115364  
     341A      3.117409   342A      3.119764   343A      3.125011  
     344A      3.137793   345A      3.138099   346A      3.145239  
     347A      3.149256   348A      3.167535   349A      3.182846  
     350A      3.193612   351A      3.219136   352A      3.228641  
     353A      3.267506   354A      3.273432   355A      3.276360  
     356A      3.279632   357A      3.292327   358A      3.298847  
     359A      3.316879   360A      3.319378   361A      3.325922  
     362A      3.334087   363A      3.346188   364A      3.358727  
     365A      3.376255   366A      3.378516   367A      3.389660  
     368A      3.402670   369A      3.405815   370A      3.413152  
     371A      3.439494   372A      3.447078   373A      3.448449  
     374A      3.448755   375A      3.462761   376A      3.469402  
     377A      3.473480   378A      3.476909   379A      3.497714  
     380A      3.499656   381A      3.503556   382A      3.508185  
     383A      3.513015   384A      3.523216   385A      3.524952  
     386A      3.537150   387A      3.550506   388A      3.556190  
     389A      3.564777   390A      3.566823   391A      3.572619  
     392A      3.576213   393A      3.584174   394A      3.594191  
     395A      3.606381   396A      3.615723   397A      3.616968  
     398A      3.626491   399A      3.636566   400A      3.638536  
     401A      3.641223   402A      3.674062   403A      3.680654  
     404A      3.683684   405A      3.730792   406A      3.746143  
     407A      3.762021   408A      3.762226   409A      3.765881  
     410A      3.767167   411A      3.785431   412A      3.789183  
     413A      3.792005   414A      3.810759   415A      3.811500  
     416A      3.831529   417A      3.842416   418A      3.863418  
     419A      3.872717   420A      3.892751   421A      3.897984  
     422A      3.917770   423A      3.923487   424A      3.925504  
     425A      3.936830   426A      3.936889   427A      3.939339  
     428A      3.951312   429A      3.969228   430A      3.977217  
     431A      3.999739   432A      4.006907   433A      4.020310  
     434A      4.028898   435A      4.033555   436A      4.050069  
     437A      4.091864   438A      4.105360   439A      4.126366  
     440A      4.128384   441A      4.173707   442A      4.181918  
     443A      4.186223   444A      4.186371   445A      4.208090  
     446A      4.210431   447A      4.238608   448A      4.240832  
     449A      4.260976   450A      4.265634   451A      4.271904  
     452A      4.273983   453A      4.291241   454A      4.295070  
     455A      4.310059   456A      4.318193   457A      4.329214  
     458A      4.336725   459A      4.349347   460A      4.352960  
     461A      4.363045   462A      4.366420   463A      4.377890  
     464A      4.381174   465A      4.397877   466A      4.415259  
     467A      4.427158   468A      4.427237   469A      4.436886  
     470A      4.454248   471A      4.478750   472A      4.481169  
     473A      4.483654   474A      4.484944   475A      4.512359  
     476A      4.518078   477A      4.523750   478A      4.541508  
     479A      4.547866   480A      4.558486   481A      4.569052  
     482A      4.585370   483A      4.604740   484A      4.615072  
     485A      4.620713   486A      4.635530   487A      4.641757  
     488A      4.652489   489A      4.664101   490A      4.668616  
     491A      4.682758   492A      4.683786   493A      4.727686  
     494A      4.731583   495A      4.787906   496A      4.792248  
     497A      4.816177   498A      4.818171   499A      4.830455  
     500A      4.836657   501A      4.853469   502A      4.856801  
     503A      4.891686   504A      4.892562   505A      4.904912  
     506A      4.927649   507A      4.976518   508A      4.982358  
     509A      4.993132   510A      4.999854   511A      5.050834  
     512A      5.054650   513A      5.065565   514A      5.072808  
     515A      5.073531   516A      5.083055   517A      5.100783  
     518A      5.124308   519A      5.134874   520A      5.155168  
     521A      5.161375   522A      5.176551   523A      5.240780  
     524A      5.246503   525A      5.259089   526A      5.262531  
     527A      5.268410   528A      5.278534   529A      5.286329  
     530A      5.303033   531A      5.324815   532A      5.334851  
     533A      5.346416   534A      5.349913   535A      5.381085  
     536A      5.382789   537A      5.394003   538A      5.396319  
     539A      5.401808   540A      5.405881   541A      5.496155  
     542A      5.496482   543A      5.549613   544A      5.552061  
     545A      5.558130   546A      5.560732   547A      5.582749  
     548A      5.596287   549A      5.626870   550A      5.632626  
     551A      5.692243   552A      5.696521   553A      5.698588  
     554A      5.699313   555A      5.716694   556A      5.717442  
     557A      5.723494   558A      5.723729   559A      5.765013  
     560A      5.769827   561A      5.804983   562A      5.810017  
     563A      5.848773   564A      5.852358   565A      5.874546  
     566A      5.874902   567A      5.898955   568A      5.906303  
     569A      5.924845   570A      5.938518   571A      5.951658  
     572A      5.965386   573A      6.085221   574A      6.096315  
     575A      6.106832   576A      6.110612   577A      6.231543  
     578A      6.233008   579A      6.291487   580A      6.292148  
     581A      6.487398   582A      6.494655   583A      6.505325  
     584A      6.507565   585A      6.552481   586A      6.555625  
     587A      6.580982   588A      6.590219   589A      6.775735  
     590A      6.780524   591A      6.966593   592A      6.973448  
     593A      7.250749   594A      7.252117   595A      7.286274  
     596A      7.286361   597A      7.312538   598A      7.350933  
     599A      7.498107   600A      7.510576   601A      7.625888  
     602A      7.646181   603A      7.734726   604A      7.738528  
     605A     12.536533   606A     12.605835   607A     13.709215  
     608A     13.719143   609A     13.986057   610A     14.078236  
     611A     14.227392   612A     14.263149   613A     14.283732  
     614A     14.317042  

    Final Occupation by Irrep:
              A 
    DOCC [    40 ]

  @DF-RHF Final Energy:  -462.14013603770417

   => Energetics <=

    Nuclear Repulsion Energy =            533.8849273457728941
    One-Electron Energy =               -1687.9653467765906498
    Two-Electron Energy =                 691.9402833931135319
    Total Energy =                       -462.1401360377042238

Computation Completed


Properties will be evaluated at   0.000000,   0.000000,   0.000000 [a0]

Properties computed using the SCF density matrix

  Nuclear Dipole Moment: [e a0]
     X:     0.0035      Y:     0.0022      Z:    -0.0147

  Electronic Dipole Moment: [e a0]
     X:    -0.0026      Y:    -0.0002      Z:     0.0139

  Dipole Moment: [e a0]
     X:     0.0009      Y:     0.0020      Z:    -0.0008     Total:     0.0023

  Dipole Moment: [D]
     X:     0.0022      Y:     0.0050      Z:    -0.0020     Total:     0.0059


*** tstop() called on r282 at Thu Sep  9 10:06:56 2021
Module time:
	user time   =     142.18 seconds =       2.37 minutes
	system time =       2.50 seconds =       0.04 minutes
	total time  =        145 seconds =       2.42 minutes
Total time:
	user time   =     142.18 seconds =       2.37 minutes
	system time =       2.50 seconds =       0.04 minutes
	total time  =        145 seconds =       2.42 minutes

  //>>>>>>>>>>>>>>>>>>>>>>>>>>>>>>>>>>>//
  //            Monomer A HF           //
  //<<<<<<<<<<<<<<<<<<<<<<<<<<<<<<<<<<<//


*** tstart() called on r282
*** at Thu Sep  9 10:06:56 2021

   => Loading Basis Set <=

    Name: JUN-CC-PVTZ
    Role: ORBITAL
    Keyword: BASIS
    atoms 1, 5, 7-9, 11-14, 18, 20-22, 24-26 entry H          line    36 file /home/r08543048/miniconda3/share/psi4/basis/jun-cc-pvtz.gbs 
    atoms 2-3, 6, 10, 15-16, 19, 23          entry C          line   217 file /home/r08543048/miniconda3/share/psi4/basis/jun-cc-pvtz.gbs 
    atoms 4, 17                              entry O          line   305 file /home/r08543048/miniconda3/share/psi4/basis/jun-cc-pvtz.gbs 


         ---------------------------------------------------------
                                   SCF
               by Justin Turney, Rob Parrish, Andy Simmonett
                          and Daniel G. A. Smith
                              RHF Reference
                        1 Threads,  20980 MiB Core
         ---------------------------------------------------------

  ==> Geometry <==

    Molecular point group: c1
    Full point group: C1

    Geometry (in Angstrom), charge = 0, multiplicity = 1:

       Center              X                  Y                   Z               Mass       
    ------------   -----------------  -----------------  -----------------  -----------------
         H            0.310057813295    -2.089982686200     1.118254018732     1.007825032230
         C            2.061329813295    -0.788708686200     0.662515018732    12.000000000000
         C            0.785856813295    -1.503522686200     0.295017018732    12.000000000000
         O            0.257444813295    -1.468003686200    -0.813592981268    15.994914619570
         H            2.737470813295    -1.538056686200     1.118101018732     1.007825032230
         C            2.737418813295    -0.055039686200    -0.494211981268    12.000000000000
         H            2.975291813295    -0.776265686200    -1.293723981268     1.007825032230
         H            2.024449813295     0.665140313800    -0.926103981268     1.007825032230
         H            1.796828813295    -0.087841686200     1.477993018732     1.007825032230
         C            4.006691813295     0.672948313800    -0.037353981268    12.000000000000
         H            3.771403813295     1.419747313800     0.738524018732     1.007825032230
         H            4.739950813295    -0.034416686200     0.384433018732     1.007825032230
         H            4.489531813295     1.197435313800    -0.876583981268     1.007825032230
      Gh(H)          -0.310078186705     2.094220313800    -1.113020981268     1.007825032230
      Gh(C)          -2.060526186705     0.790137313800    -0.662185981268    12.000000000000
      Gh(C)          -0.786034186705     1.505125313800    -0.291757981268    12.000000000000
      Gh(O)          -0.258430186705     1.467095313800     0.817167018732    15.994914619570
      Gh(H)          -1.794508186705     0.090996313800    -1.478670981268     1.007825032230
      Gh(C)          -2.737586186705     0.053701313800     0.492212018732    12.000000000000
      Gh(H)          -2.024867186705    -0.667269686200     0.923154018732     1.007825032230
      Gh(H)          -2.976542186705     0.773090313800     1.293055018732     1.007825032230
      Gh(H)          -2.736644186705     1.539823313800    -1.117250981268     1.007825032230
      Gh(C)          -4.006147186705    -0.673625686200     0.032317018732    12.000000000000
      Gh(H)          -4.739160186705     0.034475313800    -0.388663981268     1.007825032230
      Gh(H)          -3.769756186705    -1.418600686200    -0.744976981268     1.007825032230
      Gh(H)          -4.489739186705    -1.200169686200     0.869824018732     1.007825032230

  Running in c1 symmetry.

  Rotational constants: A =      0.07366  B =      0.01866  C =      0.01655 [cm^-1]
  Rotational constants: A =   2208.18214  B =    559.48886  C =    496.08328 [MHz]
  Nuclear repulsion =  171.050543003395802

  Charge       = 0
  Multiplicity = 1
  Electrons    = 40
  Nalpha       = 20
  Nbeta        = 20

  ==> Algorithm <==

  SCF Algorithm Type is DF.
  DIIS enabled.
  MOM disabled.
  Fractional occupation disabled.
  Guess Type is SAD.
  Energy threshold   = 1.00e-08
  Density threshold  = 1.00e-08
  Integral threshold = 0.00e+00

  ==> Primary Basis <==

  Basis Set: JUN-CC-PVTZ
    Blend: JUN-CC-PVTZ
    Number of shells: 226
    Number of basis function: 614
    Number of Cartesian functions: 690
    Spherical Harmonics?: true
    Max angular momentum: 3

   => Loading Basis Set <=

    Name: (JUN-CC-PVTZ AUX)
    Role: JKFIT
    Keyword: DF_BASIS_SCF
    atoms 1, 5, 7-9, 11-14, 18, 20-22, 24-26 entry H          line    70 file /home/r08543048/miniconda3/share/psi4/basis/jun-cc-pvtz-jkfit.gbs 
    atoms 2-3, 6, 10, 15-16, 19, 23          entry C          line   152 file /home/r08543048/miniconda3/share/psi4/basis/jun-cc-pvtz-jkfit.gbs 
    atoms 4, 17                              entry O          line   272 file /home/r08543048/miniconda3/share/psi4/basis/jun-cc-pvtz-jkfit.gbs 

  ==> Pre-Iterations <==

   -------------------------------------------------------
    Irrep   Nso     Nmo     Nalpha   Nbeta   Ndocc  Nsocc
   -------------------------------------------------------
     A        614     614       0       0       0       0
   -------------------------------------------------------
    Total     614     614      20      20      20       0
   -------------------------------------------------------

  ==> Integral Setup <==

  ==> DiskDFJK: Density-Fitted J/K Matrices <==

    J tasked:                  Yes
    K tasked:                  Yes
    wK tasked:                  No
    OpenMP threads:              1
    Integrals threads:           1
    Memory [MiB]:            15735
    Algorithm:                Core
    Integral Cache:           LOAD
    Schwarz Cutoff:          1E-12
    Fitting Condition:       1E-10

   => Auxiliary Basis Set <=

  Basis Set: (JUN-CC-PVTZ AUX)
    Blend: JUN-CC-PVTZ-JKFIT
    Number of shells: 450
    Number of basis function: 1430
    Number of Cartesian functions: 1720
    Spherical Harmonics?: true
    Max angular momentum: 4

  Minimum eigenvalue in the overlap matrix is 2.7939252738E-05.
  Using Symmetric Orthogonalization.

  SCF Guess: Superposition of Atomic Densities via on-the-fly atomic UHF.

  ==> Iterations <==

                           Total Energy        Delta E     RMS |[F,P]|

   @DF-RHF iter SAD:  -230.12851675512854   -2.30129e+02   0.00000e+00 
   @DF-RHF iter   1:  -230.85960463995349   -7.31088e-01   9.97348e-04 DIIS
   @DF-RHF iter   2:  -231.00826323131832   -1.48659e-01   6.27883e-04 DIIS
   @DF-RHF iter   3:  -231.06452160433042   -5.62584e-02   1.23068e-04 DIIS
   @DF-RHF iter   4:  -231.06805680723247   -3.53520e-03   5.23540e-05 DIIS
   @DF-RHF iter   5:  -231.06873794543202   -6.81138e-04   9.20314e-06 DIIS
   @DF-RHF iter   6:  -231.06877918058046   -4.12351e-05   3.82417e-06 DIIS
   @DF-RHF iter   7:  -231.06878580874326   -6.62816e-06   1.71697e-06 DIIS
   @DF-RHF iter   8:  -231.06878726032673   -1.45158e-06   5.71504e-07 DIIS
   @DF-RHF iter   9:  -231.06878746359817   -2.03271e-07   1.07233e-07 DIIS
   @DF-RHF iter  10:  -231.06878747034094   -6.74277e-09   2.89830e-08 DIIS
   @DF-RHF iter  11:  -231.06878747064840   -3.07466e-10   8.29075e-09 DIIS
  Energy and wave function converged.


  ==> Post-Iterations <==

    Orbital Energies [Eh]
    ---------------------

    Doubly Occupied:                                                      

       1A    -20.558222     2A    -11.337180     3A    -11.248276  
       4A    -11.231686     5A    -11.224513     6A     -1.380018  
       7A     -1.079553     8A     -0.975045     9A     -0.845983  
      10A     -0.768208    11A     -0.669125    12A     -0.647579  
      13A     -0.629527    14A     -0.567462    15A     -0.565404  
      16A     -0.511421    17A     -0.499235    18A     -0.490312  
      19A     -0.479454    20A     -0.421415  

    Virtual:                                                              

      21A      0.032970    22A      0.041761    23A      0.047185  
      24A      0.053194    25A      0.060180    26A      0.065258  
      27A      0.072702    28A      0.081075    29A      0.084331  
      30A      0.086061    31A      0.092917    32A      0.097709  
      33A      0.108175    34A      0.109899    35A      0.116384  
      36A      0.117889    37A      0.119889    38A      0.123434  
      39A      0.128912    40A      0.133274    41A      0.137558  
      42A      0.149042    43A      0.154393    44A      0.162565  
      45A      0.168747    46A      0.174621    47A      0.177386  
      48A      0.181544    49A      0.188480    50A      0.191613  
      51A      0.197937    52A      0.198915    53A      0.219065  
      54A      0.222081    55A      0.228609    56A      0.235804  
      57A      0.241363    58A      0.249412    59A      0.265092  
      60A      0.271404    61A      0.274375    62A      0.280861  
      63A      0.286043    64A      0.288667    65A      0.294157  
      66A      0.303223    67A      0.304374    68A      0.308208  
      69A      0.314153    70A      0.318682    71A      0.328918  
      72A      0.331517    73A      0.333407    74A      0.340769  
      75A      0.343371    76A      0.345525    77A      0.351751  
      78A      0.357728    79A      0.363577    80A      0.371291  
      81A      0.377216    82A      0.379385    83A      0.388929  
      84A      0.392346    85A      0.398853    86A      0.403708  
      87A      0.405232    88A      0.413262    89A      0.418453  
      90A      0.423451    91A      0.433216    92A      0.437494  
      93A      0.439245    94A      0.450092    95A      0.452960  
      96A      0.465883    97A      0.475550    98A      0.484623  
      99A      0.489076   100A      0.491806   101A      0.497194  
     102A      0.508322   103A      0.511211   104A      0.520132  
     105A      0.527127   106A      0.529311   107A      0.537812  
     108A      0.543448   109A      0.549070   110A      0.557366  
     111A      0.558911   112A      0.569835   113A      0.576642  
     114A      0.582641   115A      0.587727   116A      0.594471  
     117A      0.598034   118A      0.606857   119A      0.610701  
     120A      0.624435   121A      0.629070   122A      0.632382  
     123A      0.643428   124A      0.651948   125A      0.667937  
     126A      0.669338   127A      0.673565   128A      0.675606  
     129A      0.686836   130A      0.695362   131A      0.702539  
     132A      0.703173   133A      0.707244   134A      0.723552  
     135A      0.734201   136A      0.738147   137A      0.745897  
     138A      0.748942   139A      0.770996   140A      0.774436  
     141A      0.783236   142A      0.792896   143A      0.800276  
     144A      0.806435   145A      0.825329   146A      0.825572  
     147A      0.833827   148A      0.840433   149A      0.842041  
     150A      0.855116   151A      0.862938   152A      0.879237  
     153A      0.885370   154A      0.891010   155A      0.904589  
     156A      0.913865   157A      0.922307   158A      0.939330  
     159A      0.947438   160A      0.965606   161A      0.968340  
     162A      0.979021   163A      0.997265   164A      1.014975  
     165A      1.022049   166A      1.029822   167A      1.041027  
     168A      1.060354   169A      1.074590   170A      1.080214  
     171A      1.085457   172A      1.096476   173A      1.103499  
     174A      1.109325   175A      1.116710   176A      1.124156  
     177A      1.135755   178A      1.141459   179A      1.166249  
     180A      1.174892   181A      1.181158   182A      1.188514  
     183A      1.193482   184A      1.208246   185A      1.214410  
     186A      1.225947   187A      1.228674   188A      1.239685  
     189A      1.243067   190A      1.261957   191A      1.272110  
     192A      1.276309   193A      1.280933   194A      1.294023  
     195A      1.300419   196A      1.307147   197A      1.317629  
     198A      1.330038   199A      1.334253   200A      1.340441  
     201A      1.349501   202A      1.353477   203A      1.360300  
     204A      1.370602   205A      1.382716   206A      1.393229  
     207A      1.394562   208A      1.399596   209A      1.412748  
     210A      1.415279   211A      1.420028   212A      1.422524  
     213A      1.428212   214A      1.446143   215A      1.448517  
     216A      1.455893   217A      1.468643   218A      1.472896  
     219A      1.478756   220A      1.485412   221A      1.501568  
     222A      1.508224   223A      1.521319   224A      1.530875  
     225A      1.543637   226A      1.548375   227A      1.559463  
     228A      1.572670   229A      1.574820   230A      1.584537  
     231A      1.586514   232A      1.591826   233A      1.604471  
     234A      1.612754   235A      1.619879   236A      1.623166  
     237A      1.634358   238A      1.636776   239A      1.643240  
     240A      1.650055   241A      1.662499   242A      1.670621  
     243A      1.682900   244A      1.692987   245A      1.701974  
     246A      1.711062   247A      1.721381   248A      1.747334  
     249A      1.759444   250A      1.774437   251A      1.791346  
     252A      1.798130   253A      1.800935   254A      1.825507  
     255A      1.846660   256A      1.857235   257A      1.869216  
     258A      1.887303   259A      1.897745   260A      1.900488  
     261A      1.911002   262A      1.917787   263A      1.925384  
     264A      1.943286   265A      1.969281   266A      1.983097  
     267A      1.989054   268A      1.995408   269A      2.022511  
     270A      2.033013   271A      2.035591   272A      2.068150  
     273A      2.142616   274A      2.165471   275A      2.177723  
     276A      2.189791   277A      2.199913   278A      2.213695  
     279A      2.255855   280A      2.313477   281A      2.319539  
     282A      2.361411   283A      2.390927   284A      2.422651  
     285A      2.440994   286A      2.452611   287A      2.461596  
     288A      2.475753   289A      2.504488   290A      2.540207  
     291A      2.588452   292A      2.590633   293A      2.636439  
     294A      2.668511   295A      2.691570   296A      2.707333  
     297A      2.722846   298A      2.762705   299A      2.776494  
     300A      2.794589   301A      2.829476   302A      2.842589  
     303A      2.871813   304A      2.874992   305A      2.887997  
     306A      2.901435   307A      2.906998   308A      2.929955  
     309A      2.945787   310A      2.961591   311A      2.984918  
     312A      3.017113   313A      3.030441   314A      3.060279  
     315A      3.070713   316A      3.092992   317A      3.109065  
     318A      3.118756   319A      3.123938   320A      3.138860  
     321A      3.155934   322A      3.178144   323A      3.211949  
     324A      3.214810   325A      3.241402   326A      3.269585  
     327A      3.277803   328A      3.306043   329A      3.315291  
     330A      3.328473   331A      3.341198   332A      3.373239  
     333A      3.385641   334A      3.405242   335A      3.431302  
     336A      3.441023   337A      3.459012   338A      3.470621  
     339A      3.483886   340A      3.490997   341A      3.502274  
     342A      3.518372   343A      3.522041   344A      3.531322  
     345A      3.547742   346A      3.551463   347A      3.556491  
     348A      3.569463   349A      3.574539   350A      3.584940  
     351A      3.586152   352A      3.593408   353A      3.604682  
     354A      3.608163   355A      3.615933   356A      3.622015  
     357A      3.636329   358A      3.639270   359A      3.661278  
     360A      3.666937   361A      3.690425   362A      3.731420  
     363A      3.748902   364A      3.754769   365A      3.765947  
     366A      3.778777   367A      3.783861   368A      3.790381  
     369A      3.804812   370A      3.814951   371A      3.834573  
     372A      3.841529   373A      3.848898   374A      3.864617  
     375A      3.869130   376A      3.872137   377A      3.881028  
     378A      3.884943   379A      3.902481   380A      3.907935  
     381A      3.918909   382A      3.923503   383A      3.931742  
     384A      3.937822   385A      3.948503   386A      3.954440  
     387A      3.966470   388A      3.993133   389A      3.995708  
     390A      4.011616   391A      4.023026   392A      4.032662  
     393A      4.049101   394A      4.065307   395A      4.086933  
     396A      4.101815   397A      4.116810   398A      4.123483  
     399A      4.155266   400A      4.170735   401A      4.177148  
     402A      4.184764   403A      4.200013   404A      4.223250  
     405A      4.233453   406A      4.251129   407A      4.262664  
     408A      4.265291   409A      4.288749   410A      4.306465  
     411A      4.318725   412A      4.326230   413A      4.338070  
     414A      4.346485   415A      4.354173   416A      4.369747  
     417A      4.393064   418A      4.399904   419A      4.417387  
     420A      4.424192   421A      4.437864   422A      4.447137  
     423A      4.470703   424A      4.472728   425A      4.481646  
     426A      4.492476   427A      4.496730   428A      4.508518  
     429A      4.522136   430A      4.527069   431A      4.539268  
     432A      4.546892   433A      4.549042   434A      4.553121  
     435A      4.573183   436A      4.583532   437A      4.589166  
     438A      4.598822   439A      4.607041   440A      4.613393  
     441A      4.622972   442A      4.625000   443A      4.639175  
     444A      4.650903   445A      4.665238   446A      4.673917  
     447A      4.688123   448A      4.708446   449A      4.718783  
     450A      4.723339   451A      4.739310   452A      4.748353  
     453A      4.752658   454A      4.762938   455A      4.779416  
     456A      4.789771   457A      4.795050   458A      4.818983  
     459A      4.825000   460A      4.826747   461A      4.840781  
     462A      4.845827   463A      4.861448   464A      4.862748  
     465A      4.871080   466A      4.884288   467A      4.893162  
     468A      4.904606   469A      4.917007   470A      4.922995  
     471A      4.929221   472A      4.945162   473A      4.958447  
     474A      4.972104   475A      4.982361   476A      4.992344  
     477A      4.996589   478A      5.010896   479A      5.019676  
     480A      5.032311   481A      5.043036   482A      5.059544  
     483A      5.065482   484A      5.070616   485A      5.081871  
     486A      5.104237   487A      5.107344   488A      5.126621  
     489A      5.139291   490A      5.140933   491A      5.157921  
     492A      5.194034   493A      5.214247   494A      5.221744  
     495A      5.241108   496A      5.253887   497A      5.265400  
     498A      5.291314   499A      5.319425   500A      5.324096  
     501A      5.332436   502A      5.342229   503A      5.374765  
     504A      5.381932   505A      5.384839   506A      5.393294  
     507A      5.440795   508A      5.443062   509A      5.488624  
     510A      5.518826   511A      5.542891   512A      5.551993  
     513A      5.570027   514A      5.582528   515A      5.618649  
     516A      5.623382   517A      5.629604   518A      5.644728  
     519A      5.686967   520A      5.694997   521A      5.704287  
     522A      5.710242   523A      5.716987   524A      5.760657  
     525A      5.784318   526A      5.790886   527A      5.802979  
     528A      5.843425   529A      5.855152   530A      5.859045  
     531A      5.873013   532A      5.897013   533A      5.921107  
     534A      5.948342   535A      5.967069   536A      6.026453  
     537A      6.030827   538A      6.083516   539A      6.106877  
     540A      6.118596   541A      6.134093   542A      6.204642  
     543A      6.220659   544A      6.235099   545A      6.280763  
     546A      6.291510   547A      6.334315   548A      6.359099  
     549A      6.398791   550A      6.437162   551A      6.477400  
     552A      6.482112   553A      6.495241   554A      6.500233  
     555A      6.509631   556A      6.553385   557A      6.580790  
     558A      6.605729   559A      6.625550   560A      6.666935  
     561A      6.735417   562A      6.777167   563A      6.910739  
     564A      6.950308   565A      6.957219   566A      6.969939  
     567A      6.998845   568A      7.249937   569A      7.273036  
     570A      7.291037   571A      7.316275   572A      7.334804  
     573A      7.484637   574A      7.499901   575A      7.541037  
     576A      7.592664   577A      7.625864   578A      7.635174  
     579A      7.640658   580A      7.674772   581A      7.725977  
     582A      7.735147   583A      7.768575   584A      7.805094  
     585A      7.888232   586A      8.047898   587A      8.205136  
     588A      8.274112   589A      8.366102   590A      8.469472  
     591A      8.666929   592A      9.428714   593A      9.486345  
     594A      9.590070   595A      9.658373   596A      9.788917  
     597A      9.865228   598A      9.904403   599A      9.999835  
     600A     10.080428   601A     10.944917   602A     11.731360  
     603A     11.976675   604A     12.584583   605A     13.691384  
     606A     13.728998   607A     14.029831   608A     14.236584  
     609A     14.291023   610A     43.540816   611A     43.992328  
     612A     45.017435   613A     45.395833   614A     60.649889  

    Final Occupation by Irrep:
              A 
    DOCC [    20 ]

  @DF-RHF Final Energy:  -231.06878747064840

   => Energetics <=

    Nuclear Repulsion Energy =            171.0505430033958021
    One-Electron Energy =                -651.9794139141038158
    Two-Electron Energy =                 249.8600834400596398
    Total Energy =                       -231.0687874706484024

Computation Completed


Properties will be evaluated at   0.000000,   0.000000,   0.000000 [a0]

Properties computed using the SCF density matrix

  Nuclear Dipole Moment: [e a0]
     X:   155.8123      Y:   -43.5283      Z:    -4.1802

  Electronic Dipole Moment: [e a0]
     X:  -155.0940      Y:    43.6552      Z:     5.1866

  Dipole Moment: [e a0]
     X:     0.7183      Y:     0.1269      Z:     1.0064     Total:     1.2429

  Dipole Moment: [D]
     X:     1.8257      Y:     0.3225      Z:     2.5580     Total:     3.1592


*** tstop() called on r282 at Thu Sep  9 10:08:20 2021
Module time:
	user time   =      82.79 seconds =       1.38 minutes
	system time =       1.14 seconds =       0.02 minutes
	total time  =         84 seconds =       1.40 minutes
Total time:
	user time   =     224.97 seconds =       3.75 minutes
	system time =       3.64 seconds =       0.06 minutes
	total time  =        229 seconds =       3.82 minutes

  //>>>>>>>>>>>>>>>>>>>>>>>>>>>>>>>>>>>//
  //            Monomer B HF           //
  //<<<<<<<<<<<<<<<<<<<<<<<<<<<<<<<<<<<//


*** tstart() called on r282
*** at Thu Sep  9 10:08:20 2021

   => Loading Basis Set <=

    Name: JUN-CC-PVTZ
    Role: ORBITAL
    Keyword: BASIS
    atoms 1, 5, 7-9, 11-14, 18, 20-22, 24-26 entry H          line    36 file /home/r08543048/miniconda3/share/psi4/basis/jun-cc-pvtz.gbs 
    atoms 2-3, 6, 10, 15-16, 19, 23          entry C          line   217 file /home/r08543048/miniconda3/share/psi4/basis/jun-cc-pvtz.gbs 
    atoms 4, 17                              entry O          line   305 file /home/r08543048/miniconda3/share/psi4/basis/jun-cc-pvtz.gbs 


         ---------------------------------------------------------
                                   SCF
               by Justin Turney, Rob Parrish, Andy Simmonett
                          and Daniel G. A. Smith
                              RHF Reference
                        1 Threads,  20980 MiB Core
         ---------------------------------------------------------

  ==> Geometry <==

    Molecular point group: c1
    Full point group: C1

    Geometry (in Angstrom), charge = 0, multiplicity = 1:

       Center              X                  Y                   Z               Mass       
    ------------   -----------------  -----------------  -----------------  -----------------
      Gh(H)           0.310057813295    -2.089982686200     1.118254018732     1.007825032230
      Gh(C)           2.061329813295    -0.788708686200     0.662515018732    12.000000000000
      Gh(C)           0.785856813295    -1.503522686200     0.295017018732    12.000000000000
      Gh(O)           0.257444813295    -1.468003686200    -0.813592981268    15.994914619570
      Gh(H)           2.737470813295    -1.538056686200     1.118101018732     1.007825032230
      Gh(C)           2.737418813295    -0.055039686200    -0.494211981268    12.000000000000
      Gh(H)           2.975291813295    -0.776265686200    -1.293723981268     1.007825032230
      Gh(H)           2.024449813295     0.665140313800    -0.926103981268     1.007825032230
      Gh(H)           1.796828813295    -0.087841686200     1.477993018732     1.007825032230
      Gh(C)           4.006691813295     0.672948313800    -0.037353981268    12.000000000000
      Gh(H)           3.771403813295     1.419747313800     0.738524018732     1.007825032230
      Gh(H)           4.739950813295    -0.034416686200     0.384433018732     1.007825032230
      Gh(H)           4.489531813295     1.197435313800    -0.876583981268     1.007825032230
         H           -0.310078186705     2.094220313800    -1.113020981268     1.007825032230
         C           -2.060526186705     0.790137313800    -0.662185981268    12.000000000000
         C           -0.786034186705     1.505125313800    -0.291757981268    12.000000000000
         O           -0.258430186705     1.467095313800     0.817167018732    15.994914619570
         H           -1.794508186705     0.090996313800    -1.478670981268     1.007825032230
         C           -2.737586186705     0.053701313800     0.492212018732    12.000000000000
         H           -2.024867186705    -0.667269686200     0.923154018732     1.007825032230
         H           -2.976542186705     0.773090313800     1.293055018732     1.007825032230
         H           -2.736644186705     1.539823313800    -1.117250981268     1.007825032230
         C           -4.006147186705    -0.673625686200     0.032317018732    12.000000000000
         H           -4.739160186705     0.034475313800    -0.388663981268     1.007825032230
         H           -3.769756186705    -1.418600686200    -0.744976981268     1.007825032230
         H           -4.489739186705    -1.200169686200     0.869824018732     1.007825032230

  Running in c1 symmetry.

  Rotational constants: A =      0.07366  B =      0.01866  C =      0.01655 [cm^-1]
  Rotational constants: A =   2208.18214  B =    559.48886  C =    496.08328 [MHz]
  Nuclear repulsion =  171.050144553097965

  Charge       = 0
  Multiplicity = 1
  Electrons    = 40
  Nalpha       = 20
  Nbeta        = 20

  ==> Algorithm <==

  SCF Algorithm Type is DF.
  DIIS enabled.
  MOM disabled.
  Fractional occupation disabled.
  Guess Type is SAD.
  Energy threshold   = 1.00e-08
  Density threshold  = 1.00e-08
  Integral threshold = 0.00e+00

  ==> Primary Basis <==

  Basis Set: JUN-CC-PVTZ
    Blend: JUN-CC-PVTZ
    Number of shells: 226
    Number of basis function: 614
    Number of Cartesian functions: 690
    Spherical Harmonics?: true
    Max angular momentum: 3

   => Loading Basis Set <=

    Name: (JUN-CC-PVTZ AUX)
    Role: JKFIT
    Keyword: DF_BASIS_SCF
    atoms 1, 5, 7-9, 11-14, 18, 20-22, 24-26 entry H          line    70 file /home/r08543048/miniconda3/share/psi4/basis/jun-cc-pvtz-jkfit.gbs 
    atoms 2-3, 6, 10, 15-16, 19, 23          entry C          line   152 file /home/r08543048/miniconda3/share/psi4/basis/jun-cc-pvtz-jkfit.gbs 
    atoms 4, 17                              entry O          line   272 file /home/r08543048/miniconda3/share/psi4/basis/jun-cc-pvtz-jkfit.gbs 

  ==> Pre-Iterations <==

   -------------------------------------------------------
    Irrep   Nso     Nmo     Nalpha   Nbeta   Ndocc  Nsocc
   -------------------------------------------------------
     A        614     614       0       0       0       0
   -------------------------------------------------------
    Total     614     614      20      20      20       0
   -------------------------------------------------------

  ==> Integral Setup <==

  ==> DiskDFJK: Density-Fitted J/K Matrices <==

    J tasked:                  Yes
    K tasked:                  Yes
    wK tasked:                  No
    OpenMP threads:              1
    Integrals threads:           1
    Memory [MiB]:            15735
    Algorithm:                Core
    Integral Cache:           LOAD
    Schwarz Cutoff:          1E-12
    Fitting Condition:       1E-10

   => Auxiliary Basis Set <=

  Basis Set: (JUN-CC-PVTZ AUX)
    Blend: JUN-CC-PVTZ-JKFIT
    Number of shells: 450
    Number of basis function: 1430
    Number of Cartesian functions: 1720
    Spherical Harmonics?: true
    Max angular momentum: 4

  Minimum eigenvalue in the overlap matrix is 2.7939252738E-05.
  Using Symmetric Orthogonalization.

  SCF Guess: Superposition of Atomic Densities via on-the-fly atomic UHF.

  ==> Iterations <==

                           Total Energy        Delta E     RMS |[F,P]|

   @DF-RHF iter SAD:  -230.12853525277919   -2.30129e+02   0.00000e+00 
   @DF-RHF iter   1:  -230.85960086593596   -7.31066e-01   9.97352e-04 DIIS
   @DF-RHF iter   2:  -231.00825944755601   -1.48659e-01   6.27895e-04 DIIS
   @DF-RHF iter   3:  -231.06451926832406   -5.62598e-02   1.23071e-04 DIIS
   @DF-RHF iter   4:  -231.06805456904340   -3.53530e-03   5.23546e-05 DIIS
   @DF-RHF iter   5:  -231.06873572626145   -6.81157e-04   9.20306e-06 DIIS
   @DF-RHF iter   6:  -231.06877696153430   -4.12353e-05   3.82418e-06 DIIS
   @DF-RHF iter   7:  -231.06878358991082   -6.62838e-06   1.71702e-06 DIIS
   @DF-RHF iter   8:  -231.06878504159693   -1.45169e-06   5.71540e-07 DIIS
   @DF-RHF iter   9:  -231.06878524490199   -2.03305e-07   1.07239e-07 DIIS
   @DF-RHF iter  10:  -231.06878525163856   -6.73657e-09   2.89836e-08 DIIS
   @DF-RHF iter  11:  -231.06878525195012   -3.11559e-10   8.29050e-09 DIIS
  Energy and wave function converged.


  ==> Post-Iterations <==

    Orbital Energies [Eh]
    ---------------------

    Doubly Occupied:                                                      

       1A    -20.558220     2A    -11.337180     3A    -11.248276  
       4A    -11.231690     5A    -11.224517     6A     -1.380008  
       7A     -1.079560     8A     -0.975048     9A     -0.845986  
      10A     -0.768209    11A     -0.669128    12A     -0.647584  
      13A     -0.629524    14A     -0.567474    15A     -0.565388  
      16A     -0.511424    17A     -0.499233    18A     -0.490310  
      19A     -0.479461    20A     -0.421417  

    Virtual:                                                              

      21A      0.032964    22A      0.041760    23A      0.047183  
      24A      0.053206    25A      0.060164    26A      0.065263  
      27A      0.072703    28A      0.081080    29A      0.084335  
      30A      0.086040    31A      0.092907    32A      0.097718  
      33A      0.108181    34A      0.109919    35A      0.116385  
      36A      0.117882    37A      0.119854    38A      0.123458  
      39A      0.128889    40A      0.133245    41A      0.137582  
      42A      0.149046    43A      0.154396    44A      0.162583  
      45A      0.168721    46A      0.174613    47A      0.177394  
      48A      0.181580    49A      0.188459    50A      0.191617  
      51A      0.197952    52A      0.198907    53A      0.219098  
      54A      0.222098    55A      0.228547    56A      0.235749  
      57A      0.241364    58A      0.249430    59A      0.265121  
      60A      0.271416    61A      0.274337    62A      0.280949  
      63A      0.286065    64A      0.288698    65A      0.294141  
      66A      0.303220    67A      0.304419    68A      0.308144  
      69A      0.314069    70A      0.318673    71A      0.328798  
      72A      0.331506    73A      0.333372    74A      0.340843  
      75A      0.343304    76A      0.345559    77A      0.351798  
      78A      0.357732    79A      0.363524    80A      0.371287  
      81A      0.377201    82A      0.379384    83A      0.388988  
      84A      0.392432    85A      0.398849    86A      0.403754  
      87A      0.405231    88A      0.413320    89A      0.418434  
      90A      0.423472    91A      0.433155    92A      0.437433  
      93A      0.439334    94A      0.450165    95A      0.452871  
      96A      0.466023    97A      0.475494    98A      0.484376  
      99A      0.489099   100A      0.491803   101A      0.497115  
     102A      0.508317   103A      0.511289   104A      0.520125  
     105A      0.527206   106A      0.529309   107A      0.537848  
     108A      0.543420   109A      0.549033   110A      0.557304  
     111A      0.558819   112A      0.569902   113A      0.576592  
     114A      0.582600   115A      0.587863   116A      0.594521  
     117A      0.598007   118A      0.606912   119A      0.610605  
     120A      0.624416   121A      0.628986   122A      0.632415  
     123A      0.643494   124A      0.651916   125A      0.667915  
     126A      0.669331   127A      0.673552   128A      0.675597  
     129A      0.686947   130A      0.695323   131A      0.702372  
     132A      0.703116   133A      0.707200   134A      0.723571  
     135A      0.734205   136A      0.738123   137A      0.745882  
     138A      0.749015   139A      0.771070   140A      0.774429  
     141A      0.783358   142A      0.792873   143A      0.800249  
     144A      0.806565   145A      0.825395   146A      0.825588  
     147A      0.833806   148A      0.840510   149A      0.842153  
     150A      0.855152   151A      0.862877   152A      0.879077  
     153A      0.885333   154A      0.890975   155A      0.904546  
     156A      0.913812   157A      0.922363   158A      0.939303  
     159A      0.947355   160A      0.965636   161A      0.968117  
     162A      0.979130   163A      0.997327   164A      1.015221  
     165A      1.022363   166A      1.029808   167A      1.041058  
     168A      1.060396   169A      1.074721   170A      1.080167  
     171A      1.085492   172A      1.096478   173A      1.103720  
     174A      1.109045   175A      1.116627   176A      1.124203  
     177A      1.135640   178A      1.141407   179A      1.166402  
     180A      1.174889   181A      1.180956   182A      1.188471  
     183A      1.193497   184A      1.208238   185A      1.214447  
     186A      1.226058   187A      1.228309   188A      1.239586  
     189A      1.242881   190A      1.261927   191A      1.272119  
     192A      1.276278   193A      1.280906   194A      1.293856  
     195A      1.300245   196A      1.307121   197A      1.317567  
     198A      1.329984   199A      1.334385   200A      1.340470  
     201A      1.349657   202A      1.353536   203A      1.360232  
     204A      1.370474   205A      1.382721   206A      1.393152  
     207A      1.394250   208A      1.399721   209A      1.412726  
     210A      1.415239   211A      1.420115   212A      1.422534  
     213A      1.428144   214A      1.446443   215A      1.448438  
     216A      1.455888   217A      1.468621   218A      1.472978  
     219A      1.478855   220A      1.485286   221A      1.501628  
     222A      1.508169   223A      1.521230   224A      1.530988  
     225A      1.543675   226A      1.548388   227A      1.559718  
     228A      1.572740   229A      1.574852   230A      1.584494  
     231A      1.586444   232A      1.591845   233A      1.604380  
     234A      1.612734   235A      1.619866   236A      1.623136  
     237A      1.634537   238A      1.636753   239A      1.643373  
     240A      1.650172   241A      1.662366   242A      1.670624  
     243A      1.682825   244A      1.693074   245A      1.701972  
     246A      1.711047   247A      1.721564   248A      1.747423  
     249A      1.759395   250A      1.774415   251A      1.791223  
     252A      1.798108   253A      1.800951   254A      1.825532  
     255A      1.846707   256A      1.857304   257A      1.869261  
     258A      1.887513   259A      1.897544   260A      1.900446  
     261A      1.910915   262A      1.917807   263A      1.925237  
     264A      1.943234   265A      1.969199   266A      1.983252  
     267A      1.988977   268A      1.995411   269A      2.022547  
     270A      2.032941   271A      2.035811   272A      2.068102  
     273A      2.142722   274A      2.165492   275A      2.177676  
     276A      2.189733   277A      2.199918   278A      2.213733  
     279A      2.255857   280A      2.313604   281A      2.319530  
     282A      2.361234   283A      2.390890   284A      2.422800  
     285A      2.440960   286A      2.452250   287A      2.461486  
     288A      2.475840   289A      2.504473   290A      2.540091  
     291A      2.588372   292A      2.590611   293A      2.636375  
     294A      2.668406   295A      2.691678   296A      2.707542  
     297A      2.722712   298A      2.762794   299A      2.776452  
     300A      2.794437   301A      2.829434   302A      2.842486  
     303A      2.872132   304A      2.874809   305A      2.888026  
     306A      2.901521   307A      2.906865   308A      2.929990  
     309A      2.945945   310A      2.961554   311A      2.984811  
     312A      3.017059   313A      3.030213   314A      3.060308  
     315A      3.070687   316A      3.093062   317A      3.109159  
     318A      3.118826   319A      3.123890   320A      3.138970  
     321A      3.155798   322A      3.178174   323A      3.212006  
     324A      3.215149   325A      3.241611   326A      3.269505  
     327A      3.277820   328A      3.305989   329A      3.315328  
     330A      3.328597   331A      3.341300   332A      3.373246  
     333A      3.385553   334A      3.405203   335A      3.431329  
     336A      3.441064   337A      3.458962   338A      3.470519  
     339A      3.483882   340A      3.491038   341A      3.502336  
     342A      3.518382   343A      3.522068   344A      3.531342  
     345A      3.547747   346A      3.551364   347A      3.556552  
     348A      3.569408   349A      3.574517   350A      3.584885  
     351A      3.586061   352A      3.593417   353A      3.604735  
     354A      3.608223   355A      3.615982   356A      3.621850  
     357A      3.636276   358A      3.639450   359A      3.661368  
     360A      3.666907   361A      3.690428   362A      3.731378  
     363A      3.748895   364A      3.754841   365A      3.766035  
     366A      3.778789   367A      3.783887   368A      3.790339  
     369A      3.804740   370A      3.815027   371A      3.834487  
     372A      3.841556   373A      3.849049   374A      3.864488  
     375A      3.869118   376A      3.872095   377A      3.880865  
     378A      3.885010   379A      3.902343   380A      3.908014  
     381A      3.918846   382A      3.923515   383A      3.931677  
     384A      3.937848   385A      3.948444   386A      3.954388  
     387A      3.966450   388A      3.993030   389A      3.995701  
     390A      4.011836   391A      4.022966   392A      4.032615  
     393A      4.049081   394A      4.065283   395A      4.086971  
     396A      4.101843   397A      4.116899   398A      4.123468  
     399A      4.155279   400A      4.170721   401A      4.177123  
     402A      4.184819   403A      4.200100   404A      4.223135  
     405A      4.233530   406A      4.251051   407A      4.262718  
     408A      4.265455   409A      4.288751   410A      4.306447  
     411A      4.318749   412A      4.326188   413A      4.337981  
     414A      4.346459   415A      4.354142   416A      4.369752  
     417A      4.393119   418A      4.399796   419A      4.417245  
     420A      4.424118   421A      4.437749   422A      4.447068  
     423A      4.470671   424A      4.472693   425A      4.481647  
     426A      4.492498   427A      4.496773   428A      4.508390  
     429A      4.522200   430A      4.527070   431A      4.539278  
     432A      4.546768   433A      4.548967   434A      4.553036  
     435A      4.573217   436A      4.583595   437A      4.589150  
     438A      4.598869   439A      4.606995   440A      4.613372  
     441A      4.622989   442A      4.624980   443A      4.639158  
     444A      4.650826   445A      4.665320   446A      4.673943  
     447A      4.688093   448A      4.708307   449A      4.718813  
     450A      4.723353   451A      4.739286   452A      4.748416  
     453A      4.752596   454A      4.762932   455A      4.779380  
     456A      4.789677   457A      4.795049   458A      4.819091  
     459A      4.824948   460A      4.826715   461A      4.840607  
     462A      4.845832   463A      4.861662   464A      4.862893  
     465A      4.871030   466A      4.884341   467A      4.893164  
     468A      4.904734   469A      4.916998   470A      4.923112  
     471A      4.929336   472A      4.945089   473A      4.958493  
     474A      4.972070   475A      4.982281   476A      4.992433  
     477A      4.996665   478A      5.010883   479A      5.019705  
     480A      5.032305   481A      5.042877   482A      5.059544  
     483A      5.065383   484A      5.070612   485A      5.081882  
     486A      5.104283   487A      5.107454   488A      5.126658  
     489A      5.139337   490A      5.140924   491A      5.157951  
     492A      5.193943   493A      5.214220   494A      5.221641  
     495A      5.241059   496A      5.253884   497A      5.265393  
     498A      5.291359   499A      5.319368   500A      5.324066  
     501A      5.332477   502A      5.342215   503A      5.374787  
     504A      5.381898   505A      5.384851   506A      5.393217  
     507A      5.440802   508A      5.443056   509A      5.488669  
     510A      5.518738   511A      5.542996   512A      5.552096  
     513A      5.570026   514A      5.582398   515A      5.618616  
     516A      5.623420   517A      5.629631   518A      5.644780  
     519A      5.686886   520A      5.694954   521A      5.704250  
     522A      5.710231   523A      5.716983   524A      5.760638  
     525A      5.784204   526A      5.790922   527A      5.802969  
     528A      5.843380   529A      5.855137   530A      5.859058  
     531A      5.872930   532A      5.896963   533A      5.921214  
     534A      5.948320   535A      5.967083   536A      6.026574  
     537A      6.030758   538A      6.083559   539A      6.106855  
     540A      6.118488   541A      6.134211   542A      6.204672  
     543A      6.220640   544A      6.235123   545A      6.280733  
     546A      6.291396   547A      6.334281   548A      6.359071  
     549A      6.398710   550A      6.437093   551A      6.477365  
     552A      6.482106   553A      6.495188   554A      6.500255  
     555A      6.509630   556A      6.553513   557A      6.580880  
     558A      6.605706   559A      6.625545   560A      6.667154  
     561A      6.735383   562A      6.777102   563A      6.910765  
     564A      6.950280   565A      6.957073   566A      6.969839  
     567A      6.998860   568A      7.249925   569A      7.272999  
     570A      7.291147   571A      7.316453   572A      7.334643  
     573A      7.484614   574A      7.499837   575A      7.541013  
     576A      7.592619   577A      7.625835   578A      7.635106  
     579A      7.640671   580A      7.674748   581A      7.725889  
     582A      7.735142   583A      7.768548   584A      7.805031  
     585A      7.888275   586A      8.047853   587A      8.205150  
     588A      8.274128   589A      8.366122   590A      8.469479  
     591A      8.666923   592A      9.428899   593A      9.486735  
     594A      9.590071   595A      9.658339   596A      9.788859  
     597A      9.865072   598A      9.904475   599A      9.999958  
     600A     10.080474   601A     10.945131   602A     11.731504  
     603A     11.976798   604A     12.584227   605A     13.691330  
     606A     13.729384   607A     14.029290   608A     14.236870  
     609A     14.291168   610A     43.541807   611A     43.991824  
     612A     45.017240   613A     45.395090   614A     60.650939  

    Final Occupation by Irrep:
              A 
    DOCC [    20 ]

  @DF-RHF Final Energy:  -231.06878525195012

   => Energetics <=

    Nuclear Repulsion Energy =            171.0501445530979652
    One-Electron Energy =                -651.9785744683731536
    Two-Electron Energy =                 249.8596446633250423
    Total Energy =                       -231.0687852519501178

Computation Completed


Properties will be evaluated at   0.000000,   0.000000,   0.000000 [a0]

Properties computed using the SCF density matrix

  Nuclear Dipole Moment: [e a0]
     X:  -155.8089      Y:    43.5305      Z:     4.1655

  Electronic Dipole Moment: [e a0]
     X:   155.0914      Y:   -43.6554      Z:    -5.1728

  Dipole Moment: [e a0]
     X:    -0.7175      Y:    -0.1248      Z:    -1.0073     Total:     1.2430

  Dipole Moment: [D]
     X:    -1.8236      Y:    -0.3173      Z:    -2.5603     Total:     3.1594


*** tstop() called on r282 at Thu Sep  9 10:09:43 2021
Module time:
	user time   =      82.26 seconds =       1.37 minutes
	system time =       1.14 seconds =       0.02 minutes
	total time  =         83 seconds =       1.38 minutes
Total time:
	user time   =     307.23 seconds =       5.12 minutes
	system time =       4.78 seconds =       0.08 minutes
	total time  =        312 seconds =       5.20 minutes
  Constructing Basis Sets for SAPT...

   => Loading Basis Set <=

    Name: (JUN-CC-PVTZ AUX)
    Role: RIFIT
    Keyword: DF_BASIS_SAPT
    atoms 1, 5, 7-9, 11-14, 18, 20-22, 24-26 entry H          line    30 file /home/r08543048/miniconda3/share/psi4/basis/jun-cc-pvtz-ri.gbs 
    atoms 2-3, 6, 10, 15-16, 19, 23          entry C          line   132 file /home/r08543048/miniconda3/share/psi4/basis/jun-cc-pvtz-ri.gbs 
    atoms 4, 17                              entry O          line   244 file /home/r08543048/miniconda3/share/psi4/basis/jun-cc-pvtz-ri.gbs 


  //>>>>>>>>>>>>>>>>>>>>>>>>>>>>>>>>>>>//
  //               SAPT0               //
  //<<<<<<<<<<<<<<<<<<<<<<<<<<<<<<<<<<<//


*** tstart() called on r282
*** at Thu Sep  9 10:09:44 2021

        SAPT0  
    Ed Hohenstein
     6 June 2009

      Orbital Information
  --------------------------
    NSO        =       614
    NMO        =       614
    NRI        =      1450
    NOCC A     =        20
    NOCC B     =        20
    FOCC A     =         5
    FOCC B     =         5
    NVIR A     =       594
    NVIR B     =       594

    Elst10,r            =    -0.009451507071 [Eh]
    Exch10              =     0.009129879970 [Eh]
    Exch10 (S^2)        =     0.009104853483 [Eh]

    Iter     Energy [mEh]          dE [mEh]         Residual      Time [s]
       1      -1.65343241       1.653432414       8.989338221             2
       2      -1.79688397       0.143451558       4.115067887             4
       3      -1.95861106       0.161727084       1.183827840             6
       4      -1.96677333       0.008162273       0.442928531             7
       5      -1.95686127      -0.009912063       0.152212702             9
       6      -1.95754570       0.000684430       0.057860356            11
       7      -1.95833158       0.000785889       0.014603824            13
       8      -1.95825323      -0.000078359       0.004077018            15
       9      -1.95821530      -0.000037925       0.001317643            17
      10      -1.95822354       0.000008241       0.000891743            19
      11      -1.95822718       0.000003640       0.000301177            21
      12      -1.95822471      -0.000002474       0.000094493            23
      13      -1.95822464      -0.000000066       0.000024405            25
      14      -1.95822479       0.000000149       0.000007240            26
      15      -1.95822480       0.000000010       0.000001965            28
      16      -1.95822479      -0.000000012       0.000000525            30

    CHF Iterations converged


    Iter     Energy [mEh]          dE [mEh]         Residual      Time [s]
       1      -1.65448433       1.654484326       8.987460552             2
       2      -1.79834476       0.143860438       4.116713538             4
       3      -1.96006247       0.161717707       1.184660668             6
       4      -1.96825883       0.008196357       0.443085802             8
       5      -1.95833623      -0.009922593       0.152468320            10
       6      -1.95901478       0.000678542       0.057966668            11
       7      -1.95980467       0.000789890       0.014641052            13
       8      -1.95972594      -0.000078727       0.004122479            15
       9      -1.95968744      -0.000038497       0.001368595            17
      10      -1.95969628       0.000008841       0.000932349            19
      11      -1.95969995       0.000003668       0.000306347            21
      12      -1.95969743      -0.000002521       0.000094727            22
      13      -1.95969737      -0.000000064       0.000024436            24
      14      -1.95969752       0.000000150       0.000007240            26
      15      -1.95969753       0.000000010       0.000001964            28
      16      -1.95969751      -0.000000012       0.000000525            30

    CHF Iterations converged

    Ind20,r (A<-B)      =    -0.001958224788 [Eh]
    Ind20,r (B<-A)      =    -0.001959697514 [Eh]
    Ind20,r             =    -0.003917922302 [Eh]
    Exch-Ind20,r (A<-B) =     0.001210436417 [Eh]
    Exch-Ind20,r (B<-A) =     0.001211745533 [Eh]
    Exch-Ind20,r        =     0.002422181950 [Eh]
    Disp20              =    -0.010370222916 [Eh]
    Disp20 (SS)         =    -0.005185111458 [Eh]
    Disp20 (OS)         =    -0.005185111458 [Eh]
    Exch-Disp20         =     0.001045989386 [Eh]
    Exch-Disp20 (SS)    =     0.000665248022 [Eh]
    Exch-Disp20 (OS)    =     0.000380741365 [Eh]

    SAPT Results 
  --------------------------------------------------------------------------------------------------------
    Electrostatics                 -9.45150707 [mEh]      -5.93091023 [kcal/mol]     -24.81492840 [kJ/mol]
      Elst10,r                     -9.45150707 [mEh]      -5.93091023 [kcal/mol]     -24.81492840 [kJ/mol]

    Exchange                        9.12987997 [mEh]       5.72908618 [kcal/mol]      23.97049656 [kJ/mol]
      Exch10                        9.12987997 [mEh]       5.72908618 [kcal/mol]      23.97049656 [kJ/mol]
      Exch10(S^2)                   9.10485348 [mEh]       5.71338182 [kcal/mol]      23.90478953 [kJ/mol]

    Induction                      -2.24168800 [mEh]      -1.40668046 [kcal/mol]      -5.88555104 [kJ/mol]
      Ind20,r                      -3.91792230 [mEh]      -2.45853336 [kcal/mol]     -10.28650359 [kJ/mol]
      Exch-Ind20,r                  2.42218195 [mEh]       1.51994212 [kcal/mol]       6.35943783 [kJ/mol]
      delta HF,r (2)               -0.74594765 [mEh]      -0.46808922 [kcal/mol]      -1.95848529 [kJ/mol]

    Dispersion                     -9.32423353 [mEh]      -5.85104488 [kcal/mol]     -24.48077176 [kJ/mol]
      Disp20                      -10.37022292 [mEh]      -6.50741313 [kcal/mol]     -27.22701652 [kJ/mol]
      Exch-Disp20                   1.04598939 [mEh]       0.65636825 [kcal/mol]       2.74624476 [kJ/mol]
      Disp20 (SS)                  -5.18511146 [mEh]      -3.25370656 [kcal/mol]     -13.61350826 [kJ/mol]
      Disp20 (OS)                  -5.18511146 [mEh]      -3.25370656 [kcal/mol]     -13.61350826 [kJ/mol]
      Exch-Disp20 (SS)              0.66524802 [mEh]       0.41744944 [kcal/mol]       1.74660844 [kJ/mol]
      Exch-Disp20 (OS)              0.38074136 [mEh]       0.23891881 [kcal/mol]       0.99963632 [kJ/mol]

  Total HF                         -2.56331511 [mEh]      -1.60850451 [kcal/mol]      -6.72998288 [kJ/mol]
  Total SAPT0                     -11.88754864 [mEh]      -7.45954939 [kcal/mol]     -31.21075464 [kJ/mol]

  Special recipe for scaled SAPT0 (see Manual):
    Electrostatics sSAPT0          -9.45150707 [mEh]      -5.93091023 [kcal/mol]     -24.81492840 [kJ/mol]
    Exchange sSAPT0                 9.12987997 [mEh]       5.72908618 [kcal/mol]      23.97049656 [kJ/mol]
    Induction sSAPT0               -2.22165952 [mEh]      -1.39411240 [kcal/mol]      -5.83296626 [kJ/mol]
    Dispersion sSAPT0              -9.31558448 [mEh]      -5.84561751 [kcal/mol]     -24.45806367 [kJ/mol]
  Total sSAPT0                    -11.85887109 [mEh]      -7.44155396 [kcal/mol]     -31.13546177 [kJ/mol]
  --------------------------------------------------------------------------------------------------------

*** tstop() called on r282 at Thu Sep  9 10:13:44 2021
Module time:
	user time   =     203.20 seconds =       3.39 minutes
	system time =      36.67 seconds =       0.61 minutes
	total time  =        240 seconds =       4.00 minutes
Total time:
	user time   =     510.61 seconds =       8.51 minutes
	system time =      41.45 seconds =       0.69 minutes
	total time  =        553 seconds =       9.22 minutes

    Psi4 stopped on: Thursday, 09 September 2021 10:13AM
    Psi4 wall time for execution: 0:09:12.87

*** Psi4 exiting successfully. Buy a developer a beer!
