
    -----------------------------------------------------------------------
          Psi4: An Open-Source Ab Initio Electronic Structure Package
                               Psi4 1.3.2 release

                         Git: Rev {HEAD} ecbda83 


    R. M. Parrish, L. A. Burns, D. G. A. Smith, A. C. Simmonett,
    A. E. DePrince III, E. G. Hohenstein, U. Bozkaya, A. Yu. Sokolov,
    R. Di Remigio, R. M. Richard, J. F. Gonthier, A. M. James,
    H. R. McAlexander, A. Kumar, M. Saitow, X. Wang, B. P. Pritchard,
    P. Verma, H. F. Schaefer III, K. Patkowski, R. A. King, E. F. Valeev,
    F. A. Evangelista, J. M. Turney, T. D. Crawford, and C. D. Sherrill,
    J. Chem. Theory Comput. 13(7) pp 3185--3197 (2017).
    (doi: 10.1021/acs.jctc.7b00174)


                         Additional Contributions by
    P. Kraus, H. Kruse, M. H. Lechner, M. C. Schieber, R. A. Shaw,
    A. Alenaizan, R. Galvelis, Z. L. Glick, S. Lehtola, and J. P. Misiewicz

    -----------------------------------------------------------------------


    Psi4 started on: Thursday, 09 September 2021 09:28AM

    Process ID: 53697
    Host:       r282
    PSIDATADIR: /home/r08543048/miniconda3/share/psi4
    Memory:     500.0 MiB
    Threads:    1
    
  ==> Input File <==

--------------------------------------------------------------------------
# Any line starting with the # character is a comment line
#! Sample  computation

memory 22 gb

molecule Dimer {
 
0 1                               
 H   -0.87481700    1.86393900    1.08859200
 C   -2.18925900    0.13856800    0.67056600
 C   -1.17392600    1.16878000    0.28251300
 O   -0.67718300    1.27132600   -0.82465800
 H   -3.03868900    0.67522000    1.10507900
 C   -2.61290400   -0.76598200   -0.47136900
 H   -3.02411300   -0.18533200   -1.29529500
 H   -1.76035300   -1.32468600   -0.85176600
 H   -3.36603600   -1.47672000   -0.13658000
 H   -1.74417400   -0.43173400    1.49198200





 --
0 1
 H    0.87439800   -1.86655600   -1.08493700
 C    2.18854400   -0.13988400   -0.67142300
 C    1.17372400   -1.16952300   -0.28054700
 O    0.67753300   -1.26976100    0.82708400
 H    3.03747400   -0.67713200   -1.10616200
 C    2.61347300    0.76659700    0.46850300
 H    3.36670300    1.47632300    0.13179200
 H    1.76148800    1.32646200    0.84842800
 H    3.02504000    0.18727800    1.29318800
 H    1.74236400    0.42908500   -1.49319000








 
 
 
units angstrom

no_reorient
symmetry c1
}

set globals{
  basis jun-cc-pVTZ
  scf_type DF 
  freeze_core True
}

energy('sapt0')


--------------------------------------------------------------------------

  Memory set to  20.489 GiB by Python driver.

  //>>>>>>>>>>>>>>>>>>>>>>>>>>>>>>>>>>>//
  //              Dimer HF             //
  //<<<<<<<<<<<<<<<<<<<<<<<<<<<<<<<<<<<//


*** tstart() called on r282
*** at Thu Sep  9 09:28:07 2021

   => Loading Basis Set <=

    Name: JUN-CC-PVTZ
    Role: ORBITAL
    Keyword: BASIS
    atoms 1, 5, 7-11, 15, 17-20 entry H          line    36 file /home/r08543048/miniconda3/share/psi4/basis/jun-cc-pvtz.gbs 
    atoms 2-3, 6, 12-13, 16     entry C          line   217 file /home/r08543048/miniconda3/share/psi4/basis/jun-cc-pvtz.gbs 
    atoms 4, 14                 entry O          line   305 file /home/r08543048/miniconda3/share/psi4/basis/jun-cc-pvtz.gbs 


         ---------------------------------------------------------
                                   SCF
               by Justin Turney, Rob Parrish, Andy Simmonett
                          and Daniel G. A. Smith
                              RHF Reference
                        1 Threads,  20980 MiB Core
         ---------------------------------------------------------

  ==> Geometry <==

    Molecular point group: c1
    Full point group: C1

    Geometry (in Angstrom), charge = 0, multiplicity = 1:

       Center              X                  Y                   Z               Mass       
    ------------   -----------------  -----------------  -----------------  -----------------
         H           -0.874823044131     1.863906085038     1.088516354062     1.007825032230
         C           -2.189265044131     0.138535085038     0.670490354062    12.000000000000
         C           -1.173932044131     1.168747085038     0.282437354062    12.000000000000
         O           -0.677189044131     1.271293085038    -0.824733645938    15.994914619570
         H           -3.038695044131     0.675187085038     1.105003354062     1.007825032230
         C           -2.612910044131    -0.766014914962    -0.471444645938    12.000000000000
         H           -3.024119044131    -0.185364914962    -1.295370645938     1.007825032230
         H           -1.760359044131    -1.324718914962    -0.851841645938     1.007825032230
         H           -3.366042044131    -1.476752914962    -0.136655645938     1.007825032230
         H           -1.744180044131    -0.431766914962     1.491906354062     1.007825032230
         H            0.874391955869    -1.866588914962    -1.085012645938     1.007825032230
         C            2.188537955869    -0.139916914962    -0.671498645938    12.000000000000
         C            1.173717955869    -1.169555914962    -0.280622645938    12.000000000000
         O            0.677526955869    -1.269793914962     0.827008354062    15.994914619570
         H            3.037467955869    -0.677164914962    -1.106237645938     1.007825032230
         C            2.613466955869     0.766564085038     0.468427354062    12.000000000000
         H            3.366696955869     1.476290085038     0.131716354062     1.007825032230
         H            1.761481955869     1.326429085038     0.848352354062     1.007825032230
         H            3.025033955869     0.187245085038     1.293112354062     1.007825032230
         H            1.742357955869     0.429052085038    -1.493265645938     1.007825032230

  Running in c1 symmetry.

  Rotational constants: A =      0.09975  B =      0.03714  C =      0.03263 [cm^-1]
  Rotational constants: A =   2990.42159  B =   1113.30123  C =    978.24969 [MHz]
  Nuclear repulsion =  378.835865784344719

  Charge       = 0
  Multiplicity = 1
  Electrons    = 64
  Nalpha       = 32
  Nbeta        = 32

  ==> Algorithm <==

  SCF Algorithm Type is DF.
  DIIS enabled.
  MOM disabled.
  Fractional occupation disabled.
  Guess Type is SAD.
  Energy threshold   = 1.00e-08
  Density threshold  = 1.00e-08
  Integral threshold = 0.00e+00

  ==> Primary Basis <==

  Basis Set: JUN-CC-PVTZ
    Blend: JUN-CC-PVTZ
    Number of shells: 176
    Number of basis function: 480
    Number of Cartesian functions: 540
    Spherical Harmonics?: true
    Max angular momentum: 3

   => Loading Basis Set <=

    Name: (JUN-CC-PVTZ AUX)
    Role: JKFIT
    Keyword: DF_BASIS_SCF
    atoms 1, 5, 7-11, 15, 17-20 entry H          line    70 file /home/r08543048/miniconda3/share/psi4/basis/jun-cc-pvtz-jkfit.gbs 
    atoms 2-3, 6, 12-13, 16     entry C          line   152 file /home/r08543048/miniconda3/share/psi4/basis/jun-cc-pvtz-jkfit.gbs 
    atoms 4, 14                 entry O          line   272 file /home/r08543048/miniconda3/share/psi4/basis/jun-cc-pvtz-jkfit.gbs 

  ==> Pre-Iterations <==

   -------------------------------------------------------
    Irrep   Nso     Nmo     Nalpha   Nbeta   Ndocc  Nsocc
   -------------------------------------------------------
     A        480     480       0       0       0       0
   -------------------------------------------------------
    Total     480     480      32      32      32       0
   -------------------------------------------------------

  ==> Integral Setup <==

  ==> DiskDFJK: Density-Fitted J/K Matrices <==

    J tasked:                  Yes
    K tasked:                  Yes
    wK tasked:                  No
    OpenMP threads:              1
    Integrals threads:           1
    Memory [MiB]:            15735
    Algorithm:                Core
    Integral Cache:           SAVE
    Schwarz Cutoff:          1E-12
    Fitting Condition:       1E-10

   => Auxiliary Basis Set <=

  Basis Set: (JUN-CC-PVTZ AUX)
    Blend: JUN-CC-PVTZ-JKFIT
    Number of shells: 352
    Number of basis function: 1120
    Number of Cartesian functions: 1348
    Spherical Harmonics?: true
    Max angular momentum: 4

  Minimum eigenvalue in the overlap matrix is 4.7478117766E-05.
  Using Symmetric Orthogonalization.

  SCF Guess: Superposition of Atomic Densities via on-the-fly atomic UHF.

  ==> Iterations <==

                           Total Energy        Delta E     RMS |[F,P]|

   @DF-RHF iter SAD:  -382.50257614869224   -3.82503e+02   0.00000e+00 
   @DF-RHF iter   1:  -383.72976660709395   -1.22719e+00   1.61037e-03 DIIS
   @DF-RHF iter   2:  -383.96211873145285   -2.32352e-01   9.79879e-04 DIIS
   @DF-RHF iter   3:  -384.04435306010464   -8.22343e-02   1.83574e-04 DIIS
   @DF-RHF iter   4:  -384.04948049279835   -5.12743e-03   7.81759e-05 DIIS
   @DF-RHF iter   5:  -384.05042185901522   -9.41366e-04   1.38666e-05 DIIS
   @DF-RHF iter   6:  -384.05048585750808   -6.39985e-05   4.77271e-06 DIIS
   @DF-RHF iter   7:  -384.05049330320873   -7.44570e-06   2.01764e-06 DIIS
   @DF-RHF iter   8:  -384.05049459890955   -1.29570e-06   6.49741e-07 DIIS
   @DF-RHF iter   9:  -384.05049476021071   -1.61301e-07   1.57138e-07 DIIS
   @DF-RHF iter  10:  -384.05049476903542   -8.82471e-09   3.84674e-08 DIIS
   @DF-RHF iter  11:  -384.05049476943549   -4.00064e-10   1.23337e-08 DIIS
   @DF-RHF iter  12:  -384.05049476949080   -5.53086e-11   5.01476e-09 DIIS
  Energy and wave function converged.


  ==> Post-Iterations <==

    Orbital Energies [Eh]
    ---------------------

    Doubly Occupied:                                                      

       1A    -20.553633     2A    -20.553600     3A    -11.331102  
       4A    -11.331076     5A    -11.234675     6A    -11.234670  
       7A    -11.214940     8A    -11.214908     9A     -1.388452  
      10A     -1.384619    11A     -1.058358    12A     -1.056115  
      13A     -0.909467    14A     -0.905847    15A     -0.771367  
      16A     -0.767550    17A     -0.678005    18A     -0.677403  
      19A     -0.640151    20A     -0.629206    21A     -0.622158  
      22A     -0.615703    23A     -0.538004    24A     -0.534929  
      25A     -0.528279    26A     -0.520364    27A     -0.514485  
      28A     -0.511356    29A     -0.486275    30A     -0.484814  
      31A     -0.420479    32A     -0.420109  

    Virtual:                                                              

      33A      0.050639    34A      0.050813    35A      0.053966  
      36A      0.065582    37A      0.066413    38A      0.071442  
      39A      0.084616    40A      0.092154    41A      0.098934  
      42A      0.101107    43A      0.106147    44A      0.114261  
      45A      0.119024    46A      0.119168    47A      0.134030  
      48A      0.138808    49A      0.142424    50A      0.146289  
      51A      0.149654    52A      0.158695    53A      0.179024  
      54A      0.179752    55A      0.190379    56A      0.202705  
      57A      0.206961    58A      0.210635    59A      0.233588  
      60A      0.241911    61A      0.254993    62A      0.263541  
      63A      0.271314    64A      0.271688    65A      0.277870  
      66A      0.280003    67A      0.280867    68A      0.296006  
      69A      0.299795    70A      0.307217    71A      0.316198  
      72A      0.323223    73A      0.325112    74A      0.325927  
      75A      0.335324    76A      0.342571    77A      0.344427  
      78A      0.349641    79A      0.353041    80A      0.357308  
      81A      0.361561    82A      0.374410    83A      0.382886  
      84A      0.383131    85A      0.391171    86A      0.405561  
      87A      0.409775    88A      0.428629    89A      0.432262  
      90A      0.434000    91A      0.442231    92A      0.451795  
      93A      0.462373    94A      0.481077    95A      0.482074  
      96A      0.494993    97A      0.495480    98A      0.501499  
      99A      0.520567   100A      0.526220   101A      0.532658  
     102A      0.540115   103A      0.542588   104A      0.551927  
     105A      0.557906   106A      0.565984   107A      0.570449  
     108A      0.579516   109A      0.605896   110A      0.610829  
     111A      0.621178   112A      0.626931   113A      0.639648  
     114A      0.665899   115A      0.669213   116A      0.670794  
     117A      0.674037   118A      0.692074   119A      0.698243  
     120A      0.706816   121A      0.721057   122A      0.722845  
     123A      0.734127   124A      0.748742   125A      0.751144  
     126A      0.762265   127A      0.773005   128A      0.775103  
     129A      0.790160   130A      0.794245   131A      0.807746  
     132A      0.817898   133A      0.823395   134A      0.837367  
     135A      0.841343   136A      0.857321   137A      0.865366  
     138A      0.868263   139A      0.882187   140A      0.885296  
     141A      0.893551   142A      0.895357   143A      0.897621  
     144A      0.921423   145A      0.928315   146A      0.937378  
     147A      0.960413   148A      0.964601   149A      0.994182  
     150A      1.000080   151A      1.003875   152A      1.007945  
     153A      1.020270   154A      1.022910   155A      1.056599  
     156A      1.062358   157A      1.073315   158A      1.078502  
     159A      1.103940   160A      1.110165   161A      1.130306  
     162A      1.136694   163A      1.150711   164A      1.180418  
     165A      1.183363   166A      1.191605   167A      1.205093  
     168A      1.225994   169A      1.227744   170A      1.263837  
     171A      1.273919   172A      1.289279   173A      1.297633  
     174A      1.300983   175A      1.316679   176A      1.319361  
     177A      1.363938   178A      1.368156   179A      1.374103  
     180A      1.386383   181A      1.388519   182A      1.392084  
     183A      1.414107   184A      1.416723   185A      1.427049  
     186A      1.439761   187A      1.443031   188A      1.455382  
     189A      1.465559   190A      1.479466   191A      1.493852  
     192A      1.501963   193A      1.512532   194A      1.512976  
     195A      1.526726   196A      1.535089   197A      1.550811  
     198A      1.571623   199A      1.579651   200A      1.592716  
     201A      1.607462   202A      1.613400   203A      1.625336  
     204A      1.630423   205A      1.647525   206A      1.647707  
     207A      1.654212   208A      1.676567   209A      1.687310  
     210A      1.699367   211A      1.700421   212A      1.705392  
     213A      1.717633   214A      1.747641   215A      1.759123  
     216A      1.801931   217A      1.808485   218A      1.811368  
     219A      1.822290   220A      1.834504   221A      1.840747  
     222A      1.859109   223A      1.865009   224A      1.897083  
     225A      1.939421   226A      1.947194   227A      1.953030  
     228A      1.954259   229A      1.961873   230A      1.987184  
     231A      2.108624   232A      2.132892   233A      2.321051  
     234A      2.350619   235A      2.405718   236A      2.423037  
     237A      2.434807   238A      2.455649   239A      2.486226  
     240A      2.507548   241A      2.568554   242A      2.584178  
     243A      2.690839   244A      2.714545   245A      2.744216  
     246A      2.753612   247A      2.773270   248A      2.809682  
     249A      2.829946   250A      2.853374   251A      2.864370  
     252A      2.868629   253A      2.905183   254A      2.929354  
     255A      2.933134   256A      2.935761   257A      2.941235  
     258A      2.957800   259A      2.969768   260A      2.978101  
     261A      2.990240   262A      3.000056   263A      3.001092  
     264A      3.032254   265A      3.067521   266A      3.068419  
     267A      3.082963   268A      3.093771   269A      3.104265  
     270A      3.122457   271A      3.145258   272A      3.152490  
     273A      3.160996   274A      3.164520   275A      3.178346  
     276A      3.184046   277A      3.251388   278A      3.256069  
     279A      3.289052   280A      3.303892   281A      3.304044  
     282A      3.317416   283A      3.327854   284A      3.335918  
     285A      3.365644   286A      3.365679   287A      3.387439  
     288A      3.388164   289A      3.405562   290A      3.413199  
     291A      3.414713   292A      3.420471   293A      3.432486  
     294A      3.439328   295A      3.478683   296A      3.478856  
     297A      3.488187   298A      3.500162   299A      3.500393  
     300A      3.523544   301A      3.525830   302A      3.547050  
     303A      3.553526   304A      3.561777   305A      3.562081  
     306A      3.563676   307A      3.597614   308A      3.611711  
     309A      3.614042   310A      3.620955   311A      3.623848  
     312A      3.644974   313A      3.659456   314A      3.673904  
     315A      3.687280   316A      3.699712   317A      3.716272  
     318A      3.719534   319A      3.730563   320A      3.736681  
     321A      3.782170   322A      3.798898   323A      3.808743  
     324A      3.831527   325A      3.839377   326A      3.863100  
     327A      3.868889   328A      3.884625   329A      3.891201  
     330A      3.895213   331A      3.910244   332A      3.920545  
     333A      3.921750   334A      3.950253   335A      3.964972  
     336A      3.973886   337A      4.011135   338A      4.028273  
     339A      4.039835   340A      4.045936   341A      4.109781  
     342A      4.113617   343A      4.139382   344A      4.144239  
     345A      4.148751   346A      4.166160   347A      4.223648  
     348A      4.229227   349A      4.229927   350A      4.247149  
     351A      4.264563   352A      4.272242   353A      4.313595  
     354A      4.316898   355A      4.326560   356A      4.333844  
     357A      4.334499   358A      4.340090   359A      4.361247  
     360A      4.368411   361A      4.382622   362A      4.409785  
     363A      4.440184   364A      4.440316   365A      4.445037  
     366A      4.460509   367A      4.468605   368A      4.474090  
     369A      4.504498   370A      4.509712   371A      4.516978  
     372A      4.533482   373A      4.542531   374A      4.551683  
     375A      4.577727   376A      4.580164   377A      4.638153  
     378A      4.646861   379A      4.663276   380A      4.675618  
     381A      4.687255   382A      4.699166   383A      4.709314  
     384A      4.724106   385A      4.739404   386A      4.760639  
     387A      4.824225   388A      4.830671   389A      4.840772  
     390A      4.905228   391A      4.913106   392A      4.922223  
     393A      4.955998   394A      4.956396   395A      4.982316  
     396A      4.990677   397A      5.023903   398A      5.025285  
     399A      5.032411   400A      5.080224   401A      5.096314  
     402A      5.099404   403A      5.173412   404A      5.192956  
     405A      5.249754   406A      5.261145   407A      5.284922  
     408A      5.287695   409A      5.297513   410A      5.300200  
     411A      5.313380   412A      5.324857   413A      5.357046  
     414A      5.357702   415A      5.386404   416A      5.391860  
     417A      5.435059   418A      5.439926   419A      5.472731  
     420A      5.473416   421A      5.525995   422A      5.528053  
     423A      5.638741   424A      5.639388   425A      5.676384  
     426A      5.692498   427A      5.703469   428A      5.708747  
     429A      5.726786   430A      5.729994   431A      5.753530  
     432A      5.754371   433A      5.754844   434A      5.765422  
     435A      5.818898   436A      5.826918   437A      5.852145  
     438A      5.862964   439A      5.912496   440A      5.918678  
     441A      5.936452   442A      5.950382   443A      5.975687  
     444A      5.986107   445A      6.126973   446A      6.130804  
     447A      6.195537   448A      6.208090   449A      6.320199  
     450A      6.330029   451A      6.488193   452A      6.502076  
     453A      6.515042   454A      6.528175   455A      6.552901  
     456A      6.558894   457A      6.808049   458A      6.812326  
     459A      6.959984   460A      6.976989   461A      7.279552  
     462A      7.280920   463A      7.303300   464A      7.303863  
     465A      7.317611   466A      7.346463   467A      7.504637  
     468A      7.506879   469A      7.628610   470A      7.641331  
     471A      7.735427   472A      7.740142   473A     12.587137  
     474A     12.602109   475A     14.055500   476A     14.092806  
     477A     14.244561   478A     14.327048   479A     14.740520  
     480A     14.748410  

    Final Occupation by Irrep:
              A 
    DOCC [    32 ]

  @DF-RHF Final Energy:  -384.05049476949080

   => Energetics <=

    Nuclear Repulsion Energy =            378.8358657843447190
    One-Electron Energy =               -1274.3085168254619930
    Two-Electron Energy =                 511.4221562716264771
    Total Energy =                       -384.0504947694907969

Computation Completed


Properties will be evaluated at   0.000000,   0.000000,   0.000000 [a0]

Properties computed using the SCF density matrix

  Nuclear Dipole Moment: [e a0]
     X:    -0.0007      Y:    -0.0040      Z:    -0.0092

  Electronic Dipole Moment: [e a0]
     X:     0.0001      Y:     0.0020      Z:     0.0084

  Dipole Moment: [e a0]
     X:    -0.0006      Y:    -0.0020      Z:    -0.0008     Total:     0.0022

  Dipole Moment: [D]
     X:    -0.0015      Y:    -0.0051      Z:    -0.0020     Total:     0.0057


*** tstop() called on r282 at Thu Sep  9 09:29:08 2021
Module time:
	user time   =      58.83 seconds =       0.98 minutes
	system time =       1.35 seconds =       0.02 minutes
	total time  =         61 seconds =       1.02 minutes
Total time:
	user time   =      58.83 seconds =       0.98 minutes
	system time =       1.35 seconds =       0.02 minutes
	total time  =         61 seconds =       1.02 minutes

  //>>>>>>>>>>>>>>>>>>>>>>>>>>>>>>>>>>>//
  //            Monomer A HF           //
  //<<<<<<<<<<<<<<<<<<<<<<<<<<<<<<<<<<<//


*** tstart() called on r282
*** at Thu Sep  9 09:29:08 2021

   => Loading Basis Set <=

    Name: JUN-CC-PVTZ
    Role: ORBITAL
    Keyword: BASIS
    atoms 1, 5, 7-11, 15, 17-20 entry H          line    36 file /home/r08543048/miniconda3/share/psi4/basis/jun-cc-pvtz.gbs 
    atoms 2-3, 6, 12-13, 16     entry C          line   217 file /home/r08543048/miniconda3/share/psi4/basis/jun-cc-pvtz.gbs 
    atoms 4, 14                 entry O          line   305 file /home/r08543048/miniconda3/share/psi4/basis/jun-cc-pvtz.gbs 


         ---------------------------------------------------------
                                   SCF
               by Justin Turney, Rob Parrish, Andy Simmonett
                          and Daniel G. A. Smith
                              RHF Reference
                        1 Threads,  20980 MiB Core
         ---------------------------------------------------------

  ==> Geometry <==

    Molecular point group: c1
    Full point group: C1

    Geometry (in Angstrom), charge = 0, multiplicity = 1:

       Center              X                  Y                   Z               Mass       
    ------------   -----------------  -----------------  -----------------  -----------------
         H           -0.874823044131     1.863906085038     1.088516354062     1.007825032230
         C           -2.189265044131     0.138535085038     0.670490354062    12.000000000000
         C           -1.173932044131     1.168747085038     0.282437354062    12.000000000000
         O           -0.677189044131     1.271293085038    -0.824733645938    15.994914619570
         H           -3.038695044131     0.675187085038     1.105003354062     1.007825032230
         C           -2.612910044131    -0.766014914962    -0.471444645938    12.000000000000
         H           -3.024119044131    -0.185364914962    -1.295370645938     1.007825032230
         H           -1.760359044131    -1.324718914962    -0.851841645938     1.007825032230
         H           -3.366042044131    -1.476752914962    -0.136655645938     1.007825032230
         H           -1.744180044131    -0.431766914962     1.491906354062     1.007825032230
      Gh(H)           0.874391955869    -1.866588914962    -1.085012645938     1.007825032230
      Gh(C)           2.188537955869    -0.139916914962    -0.671498645938    12.000000000000
      Gh(C)           1.173717955869    -1.169555914962    -0.280622645938    12.000000000000
      Gh(O)           0.677526955869    -1.269793914962     0.827008354062    15.994914619570
      Gh(H)           3.037467955869    -0.677164914962    -1.106237645938     1.007825032230
      Gh(C)           2.613466955869     0.766564085038     0.468427354062    12.000000000000
      Gh(H)           3.366696955869     1.476290085038     0.131716354062     1.007825032230
      Gh(H)           1.761481955869     1.326429085038     0.848352354062     1.007825032230
      Gh(H)           3.025033955869     0.187245085038     1.293112354062     1.007825032230
      Gh(H)           1.742357955869     0.429052085038    -1.493265645938     1.007825032230

  Running in c1 symmetry.

  Rotational constants: A =      0.09975  B =      0.03714  C =      0.03263 [cm^-1]
  Rotational constants: A =   2990.42159  B =   1113.30123  C =    978.24969 [MHz]
  Nuclear repulsion =  118.672202147196302

  Charge       = 0
  Multiplicity = 1
  Electrons    = 32
  Nalpha       = 16
  Nbeta        = 16

  ==> Algorithm <==

  SCF Algorithm Type is DF.
  DIIS enabled.
  MOM disabled.
  Fractional occupation disabled.
  Guess Type is SAD.
  Energy threshold   = 1.00e-08
  Density threshold  = 1.00e-08
  Integral threshold = 0.00e+00

  ==> Primary Basis <==

  Basis Set: JUN-CC-PVTZ
    Blend: JUN-CC-PVTZ
    Number of shells: 176
    Number of basis function: 480
    Number of Cartesian functions: 540
    Spherical Harmonics?: true
    Max angular momentum: 3

   => Loading Basis Set <=

    Name: (JUN-CC-PVTZ AUX)
    Role: JKFIT
    Keyword: DF_BASIS_SCF
    atoms 1, 5, 7-11, 15, 17-20 entry H          line    70 file /home/r08543048/miniconda3/share/psi4/basis/jun-cc-pvtz-jkfit.gbs 
    atoms 2-3, 6, 12-13, 16     entry C          line   152 file /home/r08543048/miniconda3/share/psi4/basis/jun-cc-pvtz-jkfit.gbs 
    atoms 4, 14                 entry O          line   272 file /home/r08543048/miniconda3/share/psi4/basis/jun-cc-pvtz-jkfit.gbs 

  ==> Pre-Iterations <==

   -------------------------------------------------------
    Irrep   Nso     Nmo     Nalpha   Nbeta   Ndocc  Nsocc
   -------------------------------------------------------
     A        480     480       0       0       0       0
   -------------------------------------------------------
    Total     480     480      16      16      16       0
   -------------------------------------------------------

  ==> Integral Setup <==

  ==> DiskDFJK: Density-Fitted J/K Matrices <==

    J tasked:                  Yes
    K tasked:                  Yes
    wK tasked:                  No
    OpenMP threads:              1
    Integrals threads:           1
    Memory [MiB]:            15735
    Algorithm:                Core
    Integral Cache:           LOAD
    Schwarz Cutoff:          1E-12
    Fitting Condition:       1E-10

   => Auxiliary Basis Set <=

  Basis Set: (JUN-CC-PVTZ AUX)
    Blend: JUN-CC-PVTZ-JKFIT
    Number of shells: 352
    Number of basis function: 1120
    Number of Cartesian functions: 1348
    Spherical Harmonics?: true
    Max angular momentum: 4

  Minimum eigenvalue in the overlap matrix is 4.7478117766E-05.
  Using Symmetric Orthogonalization.

  SCF Guess: Superposition of Atomic Densities via on-the-fly atomic UHF.

  ==> Iterations <==

                           Total Energy        Delta E     RMS |[F,P]|

   @DF-RHF iter SAD:  -191.18091504565339   -1.91181e+02   0.00000e+00 
   @DF-RHF iter   1:  -191.85915516974777   -6.78240e-01   1.15844e-03 DIIS
   @DF-RHF iter   2:  -191.97459939243399   -1.15444e-01   7.42614e-04 DIIS
   @DF-RHF iter   3:  -192.02082122598799   -4.62218e-02   1.37618e-04 DIIS
   @DF-RHF iter   4:  -192.02361055534791   -2.78933e-03   5.85342e-05 DIIS
   @DF-RHF iter   5:  -192.02415977466134   -5.49219e-04   1.05642e-05 DIIS
   @DF-RHF iter   6:  -192.02419776321673   -3.79886e-05   4.02003e-06 DIIS
   @DF-RHF iter   7:  -192.02420296739186   -5.20418e-06   1.73850e-06 DIIS
   @DF-RHF iter   8:  -192.02420384781104   -8.80419e-07   5.46374e-07 DIIS
   @DF-RHF iter   9:  -192.02420395414509   -1.06334e-07   1.10586e-07 DIIS
   @DF-RHF iter  10:  -192.02420395829159   -4.14650e-09   2.29178e-08 DIIS
   @DF-RHF iter  11:  -192.02420395843049   -1.38897e-10   4.68173e-09 DIIS
  Energy and wave function converged.


  ==> Post-Iterations <==

    Orbital Energies [Eh]
    ---------------------

    Doubly Occupied:                                                      

       1A    -20.557715     2A    -11.332870     3A    -11.245488  
       4A    -11.221355     5A     -1.387338     6A     -1.065601  
       7A     -0.913898     8A     -0.773901     9A     -0.680978  
      10A     -0.637569    11A     -0.627127    12A     -0.542314  
      13A     -0.527993    14A     -0.520642    15A     -0.491236  
      16A     -0.423317  

    Virtual:                                                              

      17A      0.035222    18A      0.047049    19A      0.048274  
      20A      0.059471    21A      0.065300    22A      0.069238  
      23A      0.082095    24A      0.087554    25A      0.090096  
      26A      0.101621    27A      0.104100    28A      0.113485  
      29A      0.115122    30A      0.118213    31A      0.122926  
      32A      0.134226    33A      0.140194    34A      0.143886  
      35A      0.152399    36A      0.155074    37A      0.168786  
      38A      0.171546    39A      0.172939    40A      0.191491  
      41A      0.198788    42A      0.201842    43A      0.219139  
      44A      0.231413    45A      0.241122    46A      0.247769  
      47A      0.258948    48A      0.267182    49A      0.276564  
      50A      0.279087    51A      0.286473    52A      0.289602  
      53A      0.297090    54A      0.315227    55A      0.318984  
      56A      0.320861    57A      0.327513    58A      0.327836  
      59A      0.335302    60A      0.339517    61A      0.346132  
      62A      0.352765    63A      0.358025    64A      0.366374  
      65A      0.374251    66A      0.378546    67A      0.389643  
      68A      0.395605    69A      0.397158    70A      0.405971  
      71A      0.419943    72A      0.422033    73A      0.430864  
      74A      0.445699    75A      0.457145    76A      0.464967  
      77A      0.473978    78A      0.476636    79A      0.485688  
      80A      0.492388    81A      0.493025    82A      0.510750  
      83A      0.513618    84A      0.515545    85A      0.530673  
      86A      0.535917    87A      0.544443    88A      0.555993  
      89A      0.559692    90A      0.577652    91A      0.587030  
      92A      0.593023    93A      0.602507    94A      0.610730  
      95A      0.617890    96A      0.634356    97A      0.643581  
      98A      0.648134    99A      0.657430   100A      0.666695  
     101A      0.674363   102A      0.677390   103A      0.694169  
     104A      0.696084   105A      0.710723   106A      0.712674  
     107A      0.723734   108A      0.735161   109A      0.747037  
     110A      0.756935   111A      0.770408   112A      0.786592  
     113A      0.794899   114A      0.811197   115A      0.812994  
     116A      0.823766   117A      0.839292   118A      0.849248  
     119A      0.868511   120A      0.873784   121A      0.892976  
     122A      0.899391   123A      0.907956   124A      0.917150  
     125A      0.925397   126A      0.947057   127A      0.968369  
     128A      0.973776   129A      0.981202   130A      1.005514  
     131A      1.016117   132A      1.042673   133A      1.051987  
     134A      1.064282   135A      1.072070   136A      1.094301  
     137A      1.101459   138A      1.112352   139A      1.122273  
     140A      1.123117   141A      1.145256   142A      1.149793  
     143A      1.168597   144A      1.172020   145A      1.182509  
     146A      1.212252   147A      1.215203   148A      1.225979  
     149A      1.252158   150A      1.260340   151A      1.262672  
     152A      1.277758   153A      1.287074   154A      1.297484  
     155A      1.304537   156A      1.311097   157A      1.325654  
     158A      1.349408   159A      1.353344   160A      1.360388  
     161A      1.373425   162A      1.375607   163A      1.382046  
     164A      1.394422   165A      1.402361   166A      1.411072  
     167A      1.425015   168A      1.433259   169A      1.436112  
     170A      1.447547   171A      1.470389   172A      1.477960  
     173A      1.487459   174A      1.495525   175A      1.514723  
     176A      1.523701   177A      1.541532   178A      1.558543  
     179A      1.563038   180A      1.573541   181A      1.581974  
     182A      1.586188   183A      1.604445   184A      1.616637  
     185A      1.620881   186A      1.631760   187A      1.640129  
     188A      1.653498   189A      1.664278   190A      1.666899  
     191A      1.683292   192A      1.691036   193A      1.705150  
     194A      1.730674   195A      1.737478   196A      1.755693  
     197A      1.775815   198A      1.794026   199A      1.805302  
     200A      1.821625   201A      1.822547   202A      1.849724  
     203A      1.869712   204A      1.894753   205A      1.927886  
     206A      1.939124   207A      1.944651   208A      1.953817  
     209A      1.971765   210A      1.980307   211A      2.001983  
     212A      2.111738   213A      2.114517   214A      2.124092  
     215A      2.153702   216A      2.190678   217A      2.208050  
     218A      2.268661   219A      2.351358   220A      2.367506  
     221A      2.403652   222A      2.422617   223A      2.439972  
     224A      2.460734   225A      2.478485   226A      2.524490  
     227A      2.545581   228A      2.581145   229A      2.602464  
     230A      2.656221   231A      2.679878   232A      2.708659  
     233A      2.760034   234A      2.795735   235A      2.813059  
     236A      2.837749   237A      2.845713   238A      2.881515  
     239A      2.884591   240A      2.896631   241A      2.929515  
     242A      2.937874   243A      2.958706   244A      2.981399  
     245A      3.000874   246A      3.018512   247A      3.047211  
     248A      3.085944   249A      3.101025   250A      3.110015  
     251A      3.139726   252A      3.149545   253A      3.187715  
     254A      3.211374   255A      3.226921   256A      3.255871  
     257A      3.303469   258A      3.318167   259A      3.334184  
     260A      3.357977   261A      3.387458   262A      3.398192  
     263A      3.418707   264A      3.436402   265A      3.456894  
     266A      3.490551   267A      3.499049   268A      3.505449  
     269A      3.522912   270A      3.533397   271A      3.546777  
     272A      3.564981   273A      3.583052   274A      3.590386  
     275A      3.596524   276A      3.605071   277A      3.616268  
     278A      3.629202   279A      3.635402   280A      3.653117  
     281A      3.666651   282A      3.681063   283A      3.694468  
     284A      3.708389   285A      3.715742   286A      3.741138  
     287A      3.766041   288A      3.804313   289A      3.818087  
     290A      3.825958   291A      3.832238   292A      3.847823  
     293A      3.863808   294A      3.867969   295A      3.882087  
     296A      3.890586   297A      3.902567   298A      3.910549  
     299A      3.922659   300A      3.940424   301A      3.943352  
     302A      3.958373   303A      3.991625   304A      4.009019  
     305A      4.020223   306A      4.033689   307A      4.052509  
     308A      4.056142   309A      4.105323   310A      4.126135  
     311A      4.144109   312A      4.148024   313A      4.158925  
     314A      4.209452   315A      4.224076   316A      4.240308  
     317A      4.253962   318A      4.281365   319A      4.296280  
     320A      4.309933   321A      4.320385   322A      4.328287  
     323A      4.332283   324A      4.347963   325A      4.388197  
     326A      4.416869   327A      4.434440   328A      4.440841  
     329A      4.453187   330A      4.457899   331A      4.467047  
     332A      4.491836   333A      4.502120   334A      4.512738  
     335A      4.520709   336A      4.537027   337A      4.538995  
     338A      4.549345   339A      4.573129   340A      4.585757  
     341A      4.601149   342A      4.615747   343A      4.631993  
     344A      4.637671   345A      4.646490   346A      4.660552  
     347A      4.684544   348A      4.704484   349A      4.707751  
     350A      4.719392   351A      4.726963   352A      4.735682  
     353A      4.741981   354A      4.793708   355A      4.798475  
     356A      4.813711   357A      4.826287   358A      4.846866  
     359A      4.855701   360A      4.872229   361A      4.882541  
     362A      4.887617   363A      4.901842   364A      4.908380  
     365A      4.930867   366A      4.941990   367A      4.949485  
     368A      4.967340   369A      4.977686   370A      4.984294  
     371A      4.998696   372A      5.003739   373A      5.006800  
     374A      5.025936   375A      5.047598   376A      5.055761  
     377A      5.081990   378A      5.095103   379A      5.126253  
     380A      5.131990   381A      5.158670   382A      5.178712  
     383A      5.215654   384A      5.251987   385A      5.278596  
     386A      5.287119   387A      5.290633   388A      5.308402  
     389A      5.341322   390A      5.350875   391A      5.373676  
     392A      5.394892   393A      5.431944   394A      5.462764  
     395A      5.466114   396A      5.518923   397A      5.584538  
     398A      5.621808   399A      5.634003   400A      5.665656  
     401A      5.685691   402A      5.708739   403A      5.725193  
     404A      5.746697   405A      5.748534   406A      5.755910  
     407A      5.810645   408A      5.819062   409A      5.846804  
     410A      5.872428   411A      5.892077   412A      5.915523  
     413A      5.925988   414A      5.971721   415A      6.036328  
     416A      6.088237   417A      6.123682   418A      6.128974  
     419A      6.168439   420A      6.191532   421A      6.254517  
     422A      6.321550   423A      6.346497   424A      6.373959  
     425A      6.393477   426A      6.451492   427A      6.458731  
     428A      6.486883   429A      6.504075   430A      6.505953  
     431A      6.538249   432A      6.553167   433A      6.638440  
     434A      6.657682   435A      6.808685   436A      6.883525  
     437A      6.921452   438A      6.969382   439A      6.986333  
     440A      7.022709   441A      7.283561   442A      7.300251  
     443A      7.311879   444A      7.351940   445A      7.372118  
     446A      7.494779   447A      7.553697   448A      7.577683  
     449A      7.634984   450A      7.709250   451A      7.724403  
     452A      7.736207   453A      7.810346   454A      7.897406  
     455A      7.914580   456A      8.036202   457A      8.147313  
     458A      8.262594   459A      8.471508   460A      8.576467  
     461A      9.453081   462A      9.496641   463A      9.691545  
     464A      9.857406   465A      9.886989   466A      9.942318  
     467A      9.993241   468A     10.097279   469A     11.017361  
     470A     11.735816   471A     11.980284   472A     12.600479  
     473A     13.748065   474A     14.064335   475A     14.286342  
     476A     14.738188   477A     43.747861   478A     45.011628  
     479A     45.940033   480A     60.798261  

    Final Occupation by Irrep:
              A 
    DOCC [    16 ]

  @DF-RHF Final Energy:  -192.02420395843049

   => Energetics <=

    Nuclear Repulsion Energy =            118.6722021471963018
    One-Electron Energy =                -495.4941306558513361
    Two-Electron Energy =                 184.7977245502245580
    Total Energy =                       -192.0242039584304905

Computation Completed


Properties will be evaluated at   0.000000,   0.000000,   0.000000 [a0]

Properties computed using the SCF density matrix

  Nuclear Dipole Moment: [e a0]
     X:  -104.0906      Y:    23.6942      Z:    -4.3604

  Electronic Dipole Moment: [e a0]
     X:   103.4630      Y:   -23.9821      Z:     5.4065

  Dipole Moment: [e a0]
     X:    -0.6276      Y:    -0.2879      Z:     1.0462     Total:     1.2535

  Dipole Moment: [D]
     X:    -1.5953      Y:    -0.7318      Z:     2.6591     Total:     3.1861


*** tstop() called on r282 at Thu Sep  9 09:29:41 2021
Module time:
	user time   =      33.00 seconds =       0.55 minutes
	system time =       0.59 seconds =       0.01 minutes
	total time  =         33 seconds =       0.55 minutes
Total time:
	user time   =      91.83 seconds =       1.53 minutes
	system time =       1.94 seconds =       0.03 minutes
	total time  =         94 seconds =       1.57 minutes

  //>>>>>>>>>>>>>>>>>>>>>>>>>>>>>>>>>>>//
  //            Monomer B HF           //
  //<<<<<<<<<<<<<<<<<<<<<<<<<<<<<<<<<<<//


*** tstart() called on r282
*** at Thu Sep  9 09:29:41 2021

   => Loading Basis Set <=

    Name: JUN-CC-PVTZ
    Role: ORBITAL
    Keyword: BASIS
    atoms 1, 5, 7-11, 15, 17-20 entry H          line    36 file /home/r08543048/miniconda3/share/psi4/basis/jun-cc-pvtz.gbs 
    atoms 2-3, 6, 12-13, 16     entry C          line   217 file /home/r08543048/miniconda3/share/psi4/basis/jun-cc-pvtz.gbs 
    atoms 4, 14                 entry O          line   305 file /home/r08543048/miniconda3/share/psi4/basis/jun-cc-pvtz.gbs 


         ---------------------------------------------------------
                                   SCF
               by Justin Turney, Rob Parrish, Andy Simmonett
                          and Daniel G. A. Smith
                              RHF Reference
                        1 Threads,  20980 MiB Core
         ---------------------------------------------------------

  ==> Geometry <==

    Molecular point group: c1
    Full point group: C1

    Geometry (in Angstrom), charge = 0, multiplicity = 1:

       Center              X                  Y                   Z               Mass       
    ------------   -----------------  -----------------  -----------------  -----------------
      Gh(H)          -0.874823044131     1.863906085038     1.088516354062     1.007825032230
      Gh(C)          -2.189265044131     0.138535085038     0.670490354062    12.000000000000
      Gh(C)          -1.173932044131     1.168747085038     0.282437354062    12.000000000000
      Gh(O)          -0.677189044131     1.271293085038    -0.824733645938    15.994914619570
      Gh(H)          -3.038695044131     0.675187085038     1.105003354062     1.007825032230
      Gh(C)          -2.612910044131    -0.766014914962    -0.471444645938    12.000000000000
      Gh(H)          -3.024119044131    -0.185364914962    -1.295370645938     1.007825032230
      Gh(H)          -1.760359044131    -1.324718914962    -0.851841645938     1.007825032230
      Gh(H)          -3.366042044131    -1.476752914962    -0.136655645938     1.007825032230
      Gh(H)          -1.744180044131    -0.431766914962     1.491906354062     1.007825032230
         H            0.874391955869    -1.866588914962    -1.085012645938     1.007825032230
         C            2.188537955869    -0.139916914962    -0.671498645938    12.000000000000
         C            1.173717955869    -1.169555914962    -0.280622645938    12.000000000000
         O            0.677526955869    -1.269793914962     0.827008354062    15.994914619570
         H            3.037467955869    -0.677164914962    -1.106237645938     1.007825032230
         C            2.613466955869     0.766564085038     0.468427354062    12.000000000000
         H            3.366696955869     1.476290085038     0.131716354062     1.007825032230
         H            1.761481955869     1.326429085038     0.848352354062     1.007825032230
         H            3.025033955869     0.187245085038     1.293112354062     1.007825032230
         H            1.742357955869     0.429052085038    -1.493265645938     1.007825032230

  Running in c1 symmetry.

  Rotational constants: A =      0.09975  B =      0.03714  C =      0.03263 [cm^-1]
  Rotational constants: A =   2990.42159  B =   1113.30123  C =    978.24969 [MHz]
  Nuclear repulsion =  118.671406178410692

  Charge       = 0
  Multiplicity = 1
  Electrons    = 32
  Nalpha       = 16
  Nbeta        = 16

  ==> Algorithm <==

  SCF Algorithm Type is DF.
  DIIS enabled.
  MOM disabled.
  Fractional occupation disabled.
  Guess Type is SAD.
  Energy threshold   = 1.00e-08
  Density threshold  = 1.00e-08
  Integral threshold = 0.00e+00

  ==> Primary Basis <==

  Basis Set: JUN-CC-PVTZ
    Blend: JUN-CC-PVTZ
    Number of shells: 176
    Number of basis function: 480
    Number of Cartesian functions: 540
    Spherical Harmonics?: true
    Max angular momentum: 3

   => Loading Basis Set <=

    Name: (JUN-CC-PVTZ AUX)
    Role: JKFIT
    Keyword: DF_BASIS_SCF
    atoms 1, 5, 7-11, 15, 17-20 entry H          line    70 file /home/r08543048/miniconda3/share/psi4/basis/jun-cc-pvtz-jkfit.gbs 
    atoms 2-3, 6, 12-13, 16     entry C          line   152 file /home/r08543048/miniconda3/share/psi4/basis/jun-cc-pvtz-jkfit.gbs 
    atoms 4, 14                 entry O          line   272 file /home/r08543048/miniconda3/share/psi4/basis/jun-cc-pvtz-jkfit.gbs 

  ==> Pre-Iterations <==

   -------------------------------------------------------
    Irrep   Nso     Nmo     Nalpha   Nbeta   Ndocc  Nsocc
   -------------------------------------------------------
     A        480     480       0       0       0       0
   -------------------------------------------------------
    Total     480     480      16      16      16       0
   -------------------------------------------------------

  ==> Integral Setup <==

  ==> DiskDFJK: Density-Fitted J/K Matrices <==

    J tasked:                  Yes
    K tasked:                  Yes
    wK tasked:                  No
    OpenMP threads:              1
    Integrals threads:           1
    Memory [MiB]:            15735
    Algorithm:                Core
    Integral Cache:           LOAD
    Schwarz Cutoff:          1E-12
    Fitting Condition:       1E-10

   => Auxiliary Basis Set <=

  Basis Set: (JUN-CC-PVTZ AUX)
    Blend: JUN-CC-PVTZ-JKFIT
    Number of shells: 352
    Number of basis function: 1120
    Number of Cartesian functions: 1348
    Spherical Harmonics?: true
    Max angular momentum: 4

  Minimum eigenvalue in the overlap matrix is 4.7478117766E-05.
  Using Symmetric Orthogonalization.

  SCF Guess: Superposition of Atomic Densities via on-the-fly atomic UHF.

  ==> Iterations <==

                           Total Energy        Delta E     RMS |[F,P]|

   @DF-RHF iter SAD:  -191.18090670461629   -1.91181e+02   0.00000e+00 
   @DF-RHF iter   1:  -191.85915383096946   -6.78247e-01   1.15844e-03 DIIS
   @DF-RHF iter   2:  -191.97459795302845   -1.15444e-01   7.42618e-04 DIIS
   @DF-RHF iter   3:  -192.02081989910388   -4.62219e-02   1.37619e-04 DIIS
   @DF-RHF iter   4:  -192.02360924020323   -2.78934e-03   5.85337e-05 DIIS
   @DF-RHF iter   5:  -192.02415845606438   -5.49216e-04   1.05642e-05 DIIS
   @DF-RHF iter   6:  -192.02419644368368   -3.79876e-05   4.02001e-06 DIIS
   @DF-RHF iter   7:  -192.02420164781503   -5.20413e-06   1.73851e-06 DIIS
   @DF-RHF iter   8:  -192.02420252824044   -8.80425e-07   5.46397e-07 DIIS
   @DF-RHF iter   9:  -192.02420263458342   -1.06343e-07   1.10588e-07 DIIS
   @DF-RHF iter  10:  -192.02420263873151   -4.14809e-09   2.29183e-08 DIIS
   @DF-RHF iter  11:  -192.02420263886918   -1.37675e-10   4.68167e-09 DIIS
  Energy and wave function converged.


  ==> Post-Iterations <==

    Orbital Energies [Eh]
    ---------------------

    Doubly Occupied:                                                      

       1A    -20.557714     2A    -11.332870     3A    -11.245490  
       4A    -11.221358     5A     -1.387335     6A     -1.065604  
       7A     -0.913902     8A     -0.773898     9A     -0.680976  
      10A     -0.637573    11A     -0.627123    12A     -0.542322  
      13A     -0.528002    14A     -0.520637    15A     -0.491235  
      16A     -0.423315  

    Virtual:                                                              

      17A      0.035215    18A      0.047047    19A      0.048274  
      20A      0.059486    21A      0.065290    22A      0.069238  
      23A      0.082091    24A      0.087565    25A      0.090084  
      26A      0.101616    27A      0.104097    28A      0.113482  
      29A      0.115137    30A      0.118193    31A      0.122912  
      32A      0.134261    33A      0.140205    34A      0.143868  
      35A      0.152411    36A      0.155059    37A      0.168830  
      38A      0.171550    39A      0.172903    40A      0.191477  
      41A      0.198778    42A      0.201905    43A      0.219075  
      44A      0.231396    45A      0.241095    46A      0.247771  
      47A      0.258911    48A      0.267190    49A      0.276621  
      50A      0.279083    51A      0.286453    52A      0.289637  
      53A      0.297186    54A      0.315152    55A      0.319021  
      56A      0.320813    57A      0.327506    58A      0.327826  
      59A      0.335267    60A      0.339526    61A      0.346137  
      62A      0.352740    63A      0.358098    64A      0.366387  
      65A      0.374160    66A      0.378531    67A      0.389640  
      68A      0.395592    69A      0.397322    70A      0.405972  
      71A      0.419884    72A      0.422052    73A      0.430893  
      74A      0.445685    75A      0.457151    76A      0.464885  
      77A      0.474007    78A      0.476650    79A      0.485689  
      80A      0.492412    81A      0.492933    82A      0.510772  
      83A      0.513507    84A      0.515458    85A      0.530662  
      86A      0.535946    87A      0.544553    88A      0.556036  
      89A      0.559664    90A      0.577658    91A      0.587011  
      92A      0.593155    93A      0.602241    94A      0.610719  
      95A      0.617899    96A      0.634341    97A      0.643663  
      98A      0.648080    99A      0.657555   100A      0.666715  
     101A      0.674331   102A      0.677597   103A      0.694189  
     104A      0.695892   105A      0.710630   106A      0.712714  
     107A      0.723635   108A      0.735204   109A      0.746995  
     110A      0.756951   111A      0.770688   112A      0.786551  
     113A      0.794851   114A      0.811259   115A      0.813071  
     116A      0.823752   117A      0.839094   118A      0.849522  
     119A      0.868480   120A      0.873652   121A      0.892992  
     122A      0.899429   123A      0.907915   124A      0.917051  
     125A      0.925464   126A      0.947189   127A      0.968172  
     128A      0.973817   129A      0.981185   130A      1.005561  
     131A      1.016314   132A      1.042702   133A      1.051963  
     134A      1.064412   135A      1.072060   136A      1.094255  
     137A      1.101476   138A      1.112231   139A      1.122246  
     140A      1.123002   141A      1.145337   142A      1.149788  
     143A      1.168577   144A      1.172047   145A      1.182269  
     146A      1.212272   147A      1.215186   148A      1.225944  
     149A      1.252161   150A      1.260121   151A      1.262939  
     152A      1.277720   153A      1.287070   154A      1.297479  
     155A      1.304475   156A      1.311186   157A      1.325487  
     158A      1.349529   159A      1.353284   160A      1.360400  
     161A      1.373281   162A      1.375322   163A      1.382004  
     164A      1.394346   165A      1.402409   166A      1.411071  
     167A      1.425179   168A      1.433454   169A      1.436129  
     170A      1.447563   171A      1.470478   172A      1.477829  
     173A      1.487313   174A      1.495627   175A      1.514573  
     176A      1.523622   177A      1.541675   178A      1.558635  
     179A      1.563233   180A      1.573545   181A      1.581895  
     182A      1.586239   183A      1.604446   184A      1.616516  
     185A      1.620891   186A      1.631674   187A      1.640202  
     188A      1.653711   189A      1.664265   190A      1.666964  
     191A      1.683330   192A      1.691053   193A      1.704991  
     194A      1.730766   195A      1.737408   196A      1.755706  
     197A      1.776000   198A      1.794061   199A      1.805359  
     200A      1.821691   201A      1.822660   202A      1.849703  
     203A      1.869571   204A      1.894465   205A      1.927912  
     206A      1.938964   207A      1.944604   208A      1.953764  
     209A      1.971912   210A      1.980405   211A      2.001874  
     212A      2.111822   213A      2.114440   214A      2.124058  
     215A      2.153729   216A      2.190745   217A      2.208039  
     218A      2.268740   219A      2.351191   220A      2.367525  
     221A      2.403672   222A      2.422571   223A      2.439993  
     224A      2.460895   225A      2.478494   226A      2.524390  
     227A      2.545478   228A      2.581171   229A      2.602524  
     230A      2.656221   231A      2.679863   232A      2.708620  
     233A      2.759889   234A      2.795746   235A      2.812952  
     236A      2.837970   237A      2.845686   238A      2.881758  
     239A      2.884597   240A      2.896460   241A      2.929488  
     242A      2.937899   243A      2.958694   244A      2.981353  
     245A      3.000865   246A      3.018431   247A      3.047332  
     248A      3.085850   249A      3.101281   250A      3.109949  
     251A      3.139785   252A      3.149593   253A      3.187741  
     254A      3.211420   255A      3.226929   256A      3.255891  
     257A      3.303492   258A      3.318175   259A      3.334119  
     260A      3.357962   261A      3.387352   262A      3.398161  
     263A      3.418776   264A      3.436452   265A      3.456859  
     266A      3.490578   267A      3.499097   268A      3.505458  
     269A      3.522932   270A      3.533365   271A      3.546763  
     272A      3.564971   273A      3.583008   274A      3.590635  
     275A      3.596523   276A      3.605077   277A      3.616207  
     278A      3.629267   279A      3.635379   280A      3.653159  
     281A      3.666539   282A      3.681100   283A      3.694387  
     284A      3.708352   285A      3.715781   286A      3.741092  
     287A      3.766135   288A      3.804320   289A      3.817983  
     290A      3.825991   291A      3.832211   292A      3.847894  
     293A      3.863763   294A      3.867966   295A      3.882111  
     296A      3.890620   297A      3.902572   298A      3.910600  
     299A      3.922581   300A      3.940436   301A      3.943285  
     302A      3.958373   303A      3.991468   304A      4.008912  
     305A      4.020362   306A      4.033671   307A      4.052559  
     308A      4.056255   309A      4.105314   310A      4.125959  
     311A      4.144112   312A      4.148011   313A      4.158987  
     314A      4.209395   315A      4.224176   316A      4.240253  
     317A      4.254016   318A      4.281405   319A      4.296237  
     320A      4.309881   321A      4.320319   322A      4.328271  
     323A      4.332236   324A      4.347920   325A      4.388129  
     326A      4.416915   327A      4.434419   328A      4.440711  
     329A      4.453139   330A      4.457784   331A      4.467137  
     332A      4.491719   333A      4.502087   334A      4.512648  
     335A      4.520797   336A      4.536925   337A      4.539069  
     338A      4.549254   339A      4.573110   340A      4.585723  
     341A      4.601109   342A      4.615591   343A      4.631936  
     344A      4.637647   345A      4.646297   346A      4.660583  
     347A      4.684672   348A      4.704487   349A      4.707914  
     350A      4.719378   351A      4.726975   352A      4.735602  
     353A      4.741942   354A      4.793710   355A      4.798400  
     356A      4.813668   357A      4.826284   358A      4.846877  
     359A      4.855687   360A      4.872228   361A      4.882560  
     362A      4.887790   363A      4.901795   364A      4.908220  
     365A      4.931035   366A      4.942126   367A      4.949498  
     368A      4.967401   369A      4.977694   370A      4.984269  
     371A      4.998699   372A      5.003721   373A      5.006791  
     374A      5.025844   375A      5.047539   376A      5.056059  
     377A      5.081887   378A      5.095151   379A      5.126413  
     380A      5.131897   381A      5.158678   382A      5.178746  
     383A      5.215664   384A      5.251933   385A      5.278580  
     386A      5.287114   387A      5.290701   388A      5.308331  
     389A      5.341324   390A      5.350878   391A      5.373566  
     392A      5.394938   393A      5.431909   394A      5.462690  
     395A      5.466132   396A      5.518907   397A      5.584469  
     398A      5.621899   399A      5.633970   400A      5.665663  
     401A      5.685679   402A      5.708703   403A      5.725239  
     404A      5.746703   405A      5.748560   406A      5.755905  
     407A      5.810553   408A      5.819038   409A      5.846783  
     410A      5.872510   411A      5.892120   412A      5.915429  
     413A      5.925923   414A      5.971749   415A      6.036337  
     416A      6.088305   417A      6.123665   418A      6.129017  
     419A      6.168419   420A      6.191626   421A      6.254559  
     422A      6.321487   423A      6.346483   424A      6.373965  
     425A      6.393481   426A      6.451393   427A      6.458726  
     428A      6.486831   429A      6.504059   430A      6.505930  
     431A      6.538286   432A      6.553216   433A      6.638439  
     434A      6.657790   435A      6.808648   436A      6.883527  
     437A      6.921446   438A      6.969303   439A      6.986307  
     440A      7.022725   441A      7.283803   442A      7.300288  
     443A      7.311960   444A      7.351842   445A      7.372128  
     446A      7.494714   447A      7.553737   448A      7.577698  
     449A      7.635027   450A      7.709220   451A      7.724394  
     452A      7.736083   453A      7.810312   454A      7.897363  
     455A      7.914597   456A      8.036185   457A      8.147252  
     458A      8.262575   459A      8.471559   460A      8.576501  
     461A      9.453351   462A      9.496979   463A      9.691560  
     464A      9.857160   465A      9.887055   466A      9.942316  
     467A      9.993365   468A     10.097224   469A     11.017451  
     470A     11.735896   471A     11.980317   472A     12.600257  
     473A     13.748159   474A     14.064284   475A     14.285997  
     476A     14.738150   477A     43.748555   478A     45.011812  
     479A     45.939812   480A     60.798719  

    Final Occupation by Irrep:
              A 
    DOCC [    16 ]

  @DF-RHF Final Energy:  -192.02420263886918

   => Energetics <=

    Nuclear Repulsion Energy =            118.6714061784106917
    One-Electron Energy =                -495.4925072399176429
    Two-Electron Energy =                 184.7968984226377813
    Total Energy =                       -192.0242026388691841

Computation Completed


Properties will be evaluated at   0.000000,   0.000000,   0.000000 [a0]

Properties computed using the SCF density matrix

  Nuclear Dipole Moment: [e a0]
     X:   104.0899      Y:   -23.6982      Z:     4.3512

  Electronic Dipole Moment: [e a0]
     X:  -103.4628      Y:    23.9840      Z:    -5.3983

  Dipole Moment: [e a0]
     X:     0.6271      Y:     0.2858      Z:    -1.0471     Total:     1.2535

  Dipole Moment: [D]
     X:     1.5939      Y:     0.7265      Z:    -2.6615     Total:     3.1862


*** tstop() called on r282 at Thu Sep  9 09:30:15 2021
Module time:
	user time   =      32.81 seconds =       0.55 minutes
	system time =       0.60 seconds =       0.01 minutes
	total time  =         34 seconds =       0.57 minutes
Total time:
	user time   =     124.64 seconds =       2.08 minutes
	system time =       2.54 seconds =       0.04 minutes
	total time  =        128 seconds =       2.13 minutes
  Constructing Basis Sets for SAPT...

   => Loading Basis Set <=

    Name: (JUN-CC-PVTZ AUX)
    Role: RIFIT
    Keyword: DF_BASIS_SAPT
    atoms 1, 5, 7-11, 15, 17-20 entry H          line    30 file /home/r08543048/miniconda3/share/psi4/basis/jun-cc-pvtz-ri.gbs 
    atoms 2-3, 6, 12-13, 16     entry C          line   132 file /home/r08543048/miniconda3/share/psi4/basis/jun-cc-pvtz-ri.gbs 
    atoms 4, 14                 entry O          line   244 file /home/r08543048/miniconda3/share/psi4/basis/jun-cc-pvtz-ri.gbs 


  //>>>>>>>>>>>>>>>>>>>>>>>>>>>>>>>>>>>//
  //               SAPT0               //
  //<<<<<<<<<<<<<<<<<<<<<<<<<<<<<<<<<<<//


*** tstart() called on r282
*** at Thu Sep  9 09:30:15 2021

        SAPT0  
    Ed Hohenstein
     6 June 2009

      Orbital Information
  --------------------------
    NSO        =       480
    NMO        =       480
    NRI        =      1136
    NOCC A     =        16
    NOCC B     =        16
    FOCC A     =         4
    FOCC B     =         4
    NVIR A     =       464
    NVIR B     =       464

    Elst10,r            =    -0.010095302862 [Eh]
    Exch10              =     0.010344373138 [Eh]
    Exch10 (S^2)        =     0.010310576234 [Eh]

    Iter     Energy [mEh]          dE [mEh]         Residual      Time [s]
       1      -1.84043969       1.840439694       9.189272524             1
       2      -2.02913297       0.188693279       4.408967583             1
       3      -2.20843145       0.179298482       1.127173447             2
       4      -2.21086874       0.002437284       0.452705178             3
       5      -2.20188879      -0.008979948       0.146830344             4
       6      -2.20290054       0.001011746       0.053591583             5
       7      -2.20356805       0.000667510       0.012776960             6
       8      -2.20346326      -0.000104781       0.003536793             7
       9      -2.20343575      -0.000027516       0.001116667             7
      10      -2.20344434       0.000008593       0.000774072             8
      11      -2.20344713       0.000002784       0.000268526             9
      12      -2.20344458      -0.000002549       0.000069519            10
      13      -2.20344477       0.000000192       0.000017667            11
      14      -2.20344486       0.000000092       0.000005071            12
      15      -2.20344485      -0.000000010       0.000001496            12
      16      -2.20344484      -0.000000008       0.000000389            13

    CHF Iterations converged


    Iter     Energy [mEh]          dE [mEh]         Residual      Time [s]
       1      -1.84092291       1.840922906       9.185563614             1
       2      -2.03006927       0.189146362       4.410307347             2
       3      -2.20928468       0.179215417       1.127421212             3
       4      -2.21172912       0.002444437       0.452682679             4
       5      -2.20274693      -0.008982188       0.146940191             4
       6      -2.20375565       0.001008718       0.053651657             5
       7      -2.20442515       0.000669501       0.012807087             6
       8      -2.20432006      -0.000105096       0.003574983             7
       9      -2.20429209      -0.000027963       0.001160154             8
      10      -2.20430123       0.000009132       0.000809713             8
      11      -2.20430401       0.000002788       0.000273437             9
      12      -2.20430142      -0.000002597       0.000069667            10
      13      -2.20430161       0.000000195       0.000017676            11
      14      -2.20430170       0.000000092       0.000005067            12
      15      -2.20430169      -0.000000010       0.000001493            13
      16      -2.20430169      -0.000000008       0.000000388            13

    CHF Iterations converged

    Ind20,r (A<-B)      =    -0.002203444844 [Eh]
    Ind20,r (B<-A)      =    -0.002204301687 [Eh]
    Ind20,r             =    -0.004407746530 [Eh]
    Exch-Ind20,r (A<-B) =     0.001433886876 [Eh]
    Exch-Ind20,r (B<-A) =     0.001434674659 [Eh]
    Exch-Ind20,r        =     0.002868561535 [Eh]
    Disp20              =    -0.010449107966 [Eh]
    Disp20 (SS)         =    -0.005224553983 [Eh]
    Disp20 (OS)         =    -0.005224553983 [Eh]
    Exch-Disp20         =     0.001134003888 [Eh]
    Exch-Disp20 (SS)    =     0.000719329115 [Eh]
    Exch-Disp20 (OS)    =     0.000414674773 [Eh]

    SAPT Results 
  --------------------------------------------------------------------------------------------------------
    Electrostatics                -10.09530286 [mEh]      -6.33489819 [kcal/mol]     -26.50521401 [kJ/mol]
      Elst10,r                    -10.09530286 [mEh]      -6.33489819 [kcal/mol]     -26.50521401 [kJ/mol]

    Exchange                       10.34437314 [mEh]       6.49119214 [kcal/mol]      27.15914793 [kJ/mol]
      Exch10                       10.34437314 [mEh]       6.49119214 [kcal/mol]      27.15914793 [kJ/mol]
      Exch10(S^2)                  10.31057623 [mEh]       6.46998427 [kcal/mol]      27.07041417 [kJ/mol]

    Induction                      -2.33724247 [mEh]      -1.46664179 [kcal/mol]      -6.13642925 [kJ/mol]
      Ind20,r                      -4.40774653 [mEh]      -2.76590271 [kcal/mol]     -11.57253692 [kJ/mol]
      Exch-Ind20,r                  2.86856153 [mEh]       1.80004954 [kcal/mol]       7.53140727 [kJ/mol]
      delta HF,r (2)               -0.79805747 [mEh]      -0.50078862 [kcal/mol]      -2.09529960 [kJ/mol]

    Dispersion                     -9.31510408 [mEh]      -5.84531606 [kcal/mol]     -24.45680239 [kJ/mol]
      Disp20                      -10.44910797 [mEh]      -6.55691424 [kcal/mol]     -27.43412919 [kJ/mol]
      Exch-Disp20                   1.13400389 [mEh]       0.71159818 [kcal/mol]       2.97732680 [kJ/mol]
      Disp20 (SS)                  -5.22455398 [mEh]      -3.27845712 [kcal/mol]     -13.71706459 [kJ/mol]
      Disp20 (OS)                  -5.22455398 [mEh]      -3.27845712 [kcal/mol]     -13.71706459 [kJ/mol]
      Exch-Disp20 (SS)              0.71932911 [mEh]       0.45138583 [kcal/mol]       1.88859833 [kJ/mol]
      Exch-Disp20 (OS)              0.41467477 [mEh]       0.26021235 [kcal/mol]       1.08872847 [kJ/mol]

  Total HF                         -2.08817219 [mEh]      -1.31034783 [kcal/mol]      -5.48249533 [kJ/mol]
  Total SAPT0                     -11.40327627 [mEh]      -7.15566389 [kcal/mol]     -29.93929772 [kJ/mol]

  Special recipe for scaled SAPT0 (see Manual):
    Electrostatics sSAPT0         -10.09530286 [mEh]      -6.33489819 [kcal/mol]     -26.50521401 [kJ/mol]
    Exchange sSAPT0                10.34437314 [mEh]       6.49119214 [kcal/mol]      27.15914793 [kJ/mol]
    Induction sSAPT0               -2.30894144 [mEh]      -1.44888263 [kcal/mol]      -6.06212491 [kJ/mol]
    Dispersion sSAPT0              -9.30391608 [mEh]      -5.83829548 [kcal/mol]     -24.42742829 [kJ/mol]
  Total sSAPT0                    -11.36378724 [mEh]      -7.13088415 [kcal/mol]     -29.83561929 [kJ/mol]
  --------------------------------------------------------------------------------------------------------

*** tstop() called on r282 at Thu Sep  9 09:31:51 2021
Module time:
	user time   =      78.61 seconds =       1.31 minutes
	system time =      16.05 seconds =       0.27 minutes
	total time  =         96 seconds =       1.60 minutes
Total time:
	user time   =     203.38 seconds =       3.39 minutes
	system time =      18.59 seconds =       0.31 minutes
	total time  =        224 seconds =       3.73 minutes

    Psi4 stopped on: Thursday, 09 September 2021 09:31AM
    Psi4 wall time for execution: 0:03:43.81

*** Psi4 exiting successfully. Buy a developer a beer!
