
    -----------------------------------------------------------------------
          Psi4: An Open-Source Ab Initio Electronic Structure Package
                               Psi4 1.3.2 release

                         Git: Rev {HEAD} ecbda83 


    R. M. Parrish, L. A. Burns, D. G. A. Smith, A. C. Simmonett,
    A. E. DePrince III, E. G. Hohenstein, U. Bozkaya, A. Yu. Sokolov,
    R. Di Remigio, R. M. Richard, J. F. Gonthier, A. M. James,
    H. R. McAlexander, A. Kumar, M. Saitow, X. Wang, B. P. Pritchard,
    P. Verma, H. F. Schaefer III, K. Patkowski, R. A. King, E. F. Valeev,
    F. A. Evangelista, J. M. Turney, T. D. Crawford, and C. D. Sherrill,
    J. Chem. Theory Comput. 13(7) pp 3185--3197 (2017).
    (doi: 10.1021/acs.jctc.7b00174)


                         Additional Contributions by
    P. Kraus, H. Kruse, M. H. Lechner, M. C. Schieber, R. A. Shaw,
    A. Alenaizan, R. Galvelis, Z. L. Glick, S. Lehtola, and J. P. Misiewicz

    -----------------------------------------------------------------------


    Psi4 started on: Thursday, 09 September 2021 11:12AM

    Process ID: 53907
    Host:       r282
    PSIDATADIR: /home/r08543048/miniconda3/share/psi4
    Memory:     500.0 MiB
    Threads:    1
    
  ==> Input File <==

--------------------------------------------------------------------------
# Any line starting with the # character is a comment line
#! Sample  computation

memory 22 gb

molecule Dimer {
 
0 1
 C    1.89974000    1.91181200   -0.35129900                                    
 H    1.11651600    1.94221100   -1.11022000                                  
 H    2.85969400    2.00149100   -0.86170400                                  
 H    1.77731400    2.78503600    0.28928200                                  
 C    1.83181700    0.61550300    0.44574900                                  
 H    2.60818500    0.61356800    1.21594400
 H    0.87547200    0.55450000    0.97233700
 C    1.99625900   -0.62155200   -0.42822100
 H    2.95550000   -0.56634500   -0.95040500
 H    1.22410600   -0.61829300   -1.20303300
 C    1.91796200   -1.91470000    0.37351800
 H    0.95819000   -1.99439200    0.88612300 
 H    2.03048800   -2.79188100   -0.26345600 
 H    2.70253300   -1.94695000    1.13073400 
 
 --
0 1
 C   -1.92518200   -1.91027500   -0.37346500  
 H   -0.96530900   -1.99372900   -0.88528500
 H   -2.70925700   -1.93948400   -1.13131800
 H   -2.04165100   -2.78698600    0.26344600
 C   -1.99907200   -0.61680200    0.42816500
 H   -2.95851200   -0.55779000    0.94956300
 H   -1.22752200   -0.61652900    1.20359800
 C   -1.82896000    0.61955700   -0.44569800
 H   -2.60454700    0.62067100   -1.21667900 
 H   -0.87232200    0.55472600   -0.97128400 
 C   -1.89257800    1.91615100    0.35124400 
 H   -1.11017200    1.94341000    1.11112300 
 H   -1.76584500    2.78886200   -0.28920200 
 H   -2.85278100    2.00973500    0.86048200 
 
 
 
units angstrom

no_reorient
symmetry c1
}

set globals{
  basis jun-cc-pVTZ
  scf_type DF 
  freeze_core True
}

energy('sapt0')


--------------------------------------------------------------------------

  Memory set to  20.489 GiB by Python driver.

  //>>>>>>>>>>>>>>>>>>>>>>>>>>>>>>>>>>>//
  //              Dimer HF             //
  //<<<<<<<<<<<<<<<<<<<<<<<<<<<<<<<<<<<//


*** tstart() called on r282
*** at Thu Sep  9 11:12:22 2021

   => Loading Basis Set <=

    Name: JUN-CC-PVTZ
    Role: ORBITAL
    Keyword: BASIS
    atoms 1, 5, 8, 11, 15, 19, 22, 25                       entry C          line   217 file /home/r08543048/miniconda3/share/psi4/basis/jun-cc-pvtz.gbs 
    atoms 2-4, 6-7, 9-10, 12-14, 16-18, 20-21, 23-24, 26-28 entry H          line    36 file /home/r08543048/miniconda3/share/psi4/basis/jun-cc-pvtz.gbs 


         ---------------------------------------------------------
                                   SCF
               by Justin Turney, Rob Parrish, Andy Simmonett
                          and Daniel G. A. Smith
                              RHF Reference
                        1 Threads,  20980 MiB Core
         ---------------------------------------------------------

  ==> Geometry <==

    Molecular point group: c1
    Full point group: C1

    Geometry (in Angstrom), charge = 0, multiplicity = 1:

       Center              X                  Y                   Z               Mass       
    ------------   -----------------  -----------------  -----------------  -----------------
         C            1.899740752209     1.911827725959    -0.351298675954    12.000000000000
         H            1.116516752209     1.942226725959    -1.110219675954     1.007825032230
         H            2.859694752209     2.001506725959    -0.861703675954     1.007825032230
         H            1.777314752209     2.785051725959     0.289282324046     1.007825032230
         C            1.831817752209     0.615518725959     0.445749324046    12.000000000000
         H            2.608185752209     0.613583725959     1.215944324046     1.007825032230
         H            0.875472752209     0.554515725959     0.972337324046     1.007825032230
         C            1.996259752209    -0.621536274041    -0.428220675954    12.000000000000
         H            2.955500752209    -0.566329274041    -0.950404675954     1.007825032230
         H            1.224106752209    -0.618277274041    -1.203032675954     1.007825032230
         C            1.917962752209    -1.914684274041     0.373518324046    12.000000000000
         H            0.958190752209    -1.994376274041     0.886123324046     1.007825032230
         H            2.030488752209    -2.791865274041    -0.263455675954     1.007825032230
         H            2.702533752209    -1.946934274041     1.130734324046     1.007825032230
         C           -1.925181247791    -1.910259274041    -0.373464675954    12.000000000000
         H           -0.965308247791    -1.993713274041    -0.885284675954     1.007825032230
         H           -2.709256247791    -1.939468274041    -1.131317675954     1.007825032230
         H           -2.041650247791    -2.786970274041     0.263446324046     1.007825032230
         C           -1.999071247791    -0.616786274041     0.428165324046    12.000000000000
         H           -2.958511247791    -0.557774274041     0.949563324046     1.007825032230
         H           -1.227521247791    -0.616513274041     1.203598324046     1.007825032230
         C           -1.828959247791     0.619572725959    -0.445697675954    12.000000000000
         H           -2.604546247791     0.620686725959    -1.216678675954     1.007825032230
         H           -0.872321247791     0.554741725959    -0.971283675954     1.007825032230
         C           -1.892577247791     1.916166725959     0.351244324046    12.000000000000
         H           -1.110171247791     1.943425725959     1.111123324046     1.007825032230
         H           -1.765844247791     2.788877725959    -0.289201675954     1.007825032230
         H           -2.852780247791     2.009750725959     0.860482324046     1.007825032230

  Running in c1 symmetry.

  Rotational constants: A =      0.05752  B =      0.03581  C =      0.02419 [cm^-1]
  Rotational constants: A =   1724.36731  B =   1073.50189  C =    725.33091 [MHz]
  Nuclear repulsion =  403.698049815625666

  Charge       = 0
  Multiplicity = 1
  Electrons    = 68
  Nalpha       = 34
  Nbeta        = 34

  ==> Algorithm <==

  SCF Algorithm Type is DF.
  DIIS enabled.
  MOM disabled.
  Fractional occupation disabled.
  Guess Type is SAD.
  Energy threshold   = 1.00e-08
  Density threshold  = 1.00e-08
  Integral threshold = 0.00e+00

  ==> Primary Basis <==

  Basis Set: JUN-CC-PVTZ
    Blend: JUN-CC-PVTZ
    Number of shells: 224
    Number of basis function: 592
    Number of Cartesian functions: 660
    Spherical Harmonics?: true
    Max angular momentum: 3

   => Loading Basis Set <=

    Name: (JUN-CC-PVTZ AUX)
    Role: JKFIT
    Keyword: DF_BASIS_SCF
    atoms 1, 5, 8, 11, 15, 19, 22, 25                       entry C          line   152 file /home/r08543048/miniconda3/share/psi4/basis/jun-cc-pvtz-jkfit.gbs 
    atoms 2-4, 6-7, 9-10, 12-14, 16-18, 20-21, 23-24, 26-28 entry H          line    70 file /home/r08543048/miniconda3/share/psi4/basis/jun-cc-pvtz-jkfit.gbs 

  ==> Pre-Iterations <==

   -------------------------------------------------------
    Irrep   Nso     Nmo     Nalpha   Nbeta   Ndocc  Nsocc
   -------------------------------------------------------
     A        592     592       0       0       0       0
   -------------------------------------------------------
    Total     592     592      34      34      34       0
   -------------------------------------------------------

  ==> Integral Setup <==

  ==> DiskDFJK: Density-Fitted J/K Matrices <==

    J tasked:                  Yes
    K tasked:                  Yes
    wK tasked:                  No
    OpenMP threads:              1
    Integrals threads:           1
    Memory [MiB]:            15735
    Algorithm:                Core
    Integral Cache:           SAVE
    Schwarz Cutoff:          1E-12
    Fitting Condition:       1E-10

   => Auxiliary Basis Set <=

  Basis Set: (JUN-CC-PVTZ AUX)
    Blend: JUN-CC-PVTZ-JKFIT
    Number of shells: 432
    Number of basis function: 1360
    Number of Cartesian functions: 1628
    Spherical Harmonics?: true
    Max angular momentum: 4

  Minimum eigenvalue in the overlap matrix is 4.2656413431E-05.
  Using Symmetric Orthogonalization.

  SCF Guess: Superposition of Atomic Densities via on-the-fly atomic UHF.

  ==> Iterations <==

                           Total Energy        Delta E     RMS |[F,P]|

   @DF-RHF iter SAD:  -313.79927249335822   -3.13799e+02   0.00000e+00 
   @DF-RHF iter   1:  -314.29861492969826   -4.99342e-01   1.36608e-03 DIIS
   @DF-RHF iter   2:  -314.62898366314784   -3.30369e-01   6.35118e-04 DIIS
   @DF-RHF iter   3:  -314.70259894789825   -7.36153e-02   1.15776e-04 DIIS
   @DF-RHF iter   4:  -314.70747230039586   -4.87335e-03   2.79316e-05 DIIS
   @DF-RHF iter   5:  -314.70767513017455   -2.02830e-04   6.85193e-06 DIIS
   @DF-RHF iter   6:  -314.70769072131543   -1.55911e-05   9.09203e-07 DIIS
   @DF-RHF iter   7:  -314.70769109335367   -3.72038e-07   2.01805e-07 DIIS
   @DF-RHF iter   8:  -314.70769110720909   -1.38554e-08   4.98728e-08 DIIS
   @DF-RHF iter   9:  -314.70769110808567   -8.76582e-10   1.26401e-08 DIIS
   @DF-RHF iter  10:  -314.70769110815957   -7.38964e-11   3.27732e-09 DIIS
  Energy and wave function converged.


  ==> Post-Iterations <==

    Orbital Energies [Eh]
    ---------------------

    Doubly Occupied:                                                      

       1A    -11.213760     2A    -11.213759     3A    -11.212931  
       4A    -11.212927     5A    -11.207587     6A    -11.207585  
       7A    -11.207581     8A    -11.207579     9A     -1.074617  
      10A     -1.069571    11A     -0.983051    12A     -0.978636  
      13A     -0.862016    14A     -0.859360    15A     -0.790799  
      16A     -0.785778    17A     -0.653857    18A     -0.626263  
      19A     -0.587042    20A     -0.583066    21A     -0.577612  
      22A     -0.575907    23A     -0.575691    24A     -0.557711  
      25A     -0.514814    26A     -0.514064    27A     -0.497211  
      28A     -0.492218    29A     -0.473312    30A     -0.470887  
      31A     -0.466086    32A     -0.457785    33A     -0.454526  
      34A     -0.453543  

    Virtual:                                                              

      35A      0.049169    36A      0.050083    37A      0.051730  
      38A      0.058605    39A      0.069418    40A      0.073942  
      41A      0.076036    42A      0.077467    43A      0.085416  
      44A      0.102831    45A      0.108467    46A      0.109973  
      47A      0.116291    48A      0.117286    49A      0.117906  
      50A      0.124784    51A      0.135972    52A      0.141006  
      53A      0.145946    54A      0.149557    55A      0.155684  
      56A      0.165469    57A      0.166151    58A      0.171492  
      59A      0.185086    60A      0.188516    61A      0.189249  
      62A      0.200334    63A      0.210334    64A      0.216738  
      65A      0.219828    66A      0.225891    67A      0.259677  
      68A      0.262251    69A      0.265844    70A      0.273771  
      71A      0.276546    72A      0.289673    73A      0.293600  
      74A      0.294953    75A      0.296143    76A      0.309702  
      77A      0.313624    78A      0.317117    79A      0.323901  
      80A      0.326529    81A      0.328318    82A      0.328521  
      83A      0.334248    84A      0.339960    85A      0.343880  
      86A      0.344844    87A      0.351413    88A      0.356760  
      89A      0.365633    90A      0.370954    91A      0.376606  
      92A      0.382123    93A      0.383542    94A      0.392050  
      95A      0.399532    96A      0.403008    97A      0.403318  
      98A      0.407696    99A      0.410291   100A      0.434499  
     101A      0.435190   102A      0.444991   103A      0.445579  
     104A      0.458533   105A      0.464556   106A      0.467726  
     107A      0.470231   108A      0.480377   109A      0.491905  
     110A      0.492992   111A      0.505054   112A      0.510439  
     113A      0.522812   114A      0.528398   115A      0.532199  
     116A      0.537313   117A      0.541452   118A      0.543005  
     119A      0.559451   120A      0.560436   121A      0.569850  
     122A      0.571823   123A      0.575505   124A      0.581950  
     125A      0.583846   126A      0.602182   127A      0.606604  
     128A      0.614701   129A      0.621517   130A      0.622241  
     131A      0.630812   132A      0.631445   133A      0.657870  
     134A      0.684356   135A      0.686357   136A      0.699208  
     137A      0.703241   138A      0.719910   139A      0.727618  
     140A      0.731424   141A      0.740758   142A      0.747320  
     143A      0.754097   144A      0.769151   145A      0.774716  
     146A      0.779943   147A      0.783756   148A      0.793816  
     149A      0.801148   150A      0.806802   151A      0.811941  
     152A      0.817096   153A      0.826708   154A      0.829186  
     155A      0.840134   156A      0.845388   157A      0.847996  
     158A      0.856714   159A      0.866599   160A      0.875914  
     161A      0.879270   162A      0.886620   163A      0.892732  
     164A      0.893967   165A      0.895386   166A      0.896477  
     167A      0.899064   168A      0.903344   169A      0.923667  
     170A      0.925712   171A      0.935877   172A      0.951329  
     173A      0.956426   174A      0.977420   175A      0.985810  
     176A      1.004275   177A      1.008526   178A      1.013985  
     179A      1.019799   180A      1.033698   181A      1.044247  
     182A      1.075310   183A      1.076202   184A      1.095294  
     185A      1.102502   186A      1.127848   187A      1.135272  
     188A      1.144136   189A      1.176143   190A      1.185052  
     191A      1.190280   192A      1.193133   193A      1.204584  
     194A      1.211705   195A      1.227737   196A      1.235879  
     197A      1.249901   198A      1.252663   199A      1.269375  
     200A      1.285578   201A      1.290016   202A      1.302344  
     203A      1.317307   204A      1.325373   205A      1.328534  
     206A      1.343487   207A      1.347931   208A      1.369749  
     209A      1.376204   210A      1.378508   211A      1.393608  
     212A      1.395444   213A      1.401772   214A      1.418224  
     215A      1.420288   216A      1.422955   217A      1.444729  
     218A      1.453548   219A      1.455285   220A      1.460659  
     221A      1.481386   222A      1.481731   223A      1.495003  
     224A      1.495757   225A      1.504934   226A      1.510642  
     227A      1.518268   228A      1.522502   229A      1.536994  
     230A      1.541364   231A      1.544594   232A      1.560384  
     233A      1.570898   234A      1.581273   235A      1.588719  
     236A      1.591134   237A      1.602390   238A      1.614496  
     239A      1.614921   240A      1.616691   241A      1.627538  
     242A      1.627798   243A      1.635138   244A      1.642034  
     245A      1.645310   246A      1.652879   247A      1.663454  
     248A      1.676247   249A      1.696716   250A      1.704771  
     251A      1.712217   252A      1.722694   253A      1.737847  
     254A      1.750571   255A      1.759940   256A      1.779025  
     257A      1.782893   258A      1.796073   259A      1.800393  
     260A      1.826965   261A      1.842553   262A      1.855691  
     263A      1.870869   264A      1.883778   265A      1.892302  
     266A      1.899080   267A      1.907128   268A      1.935778  
     269A      1.938566   270A      1.940497   271A      1.945606  
     272A      1.955867   273A      1.977850   274A      1.984296  
     275A      1.999589   276A      2.004517   277A      2.034800  
     278A      2.036827   279A      2.056562   280A      2.061594  
     281A      2.085510   282A      2.118328   283A      2.192575  
     284A      2.201194   285A      2.719635   286A      2.740097  
     287A      2.754894   288A      2.760471   289A      2.768814  
     290A      2.803562   291A      2.825435   292A      2.839184  
     293A      2.843533   294A      2.858935   295A      2.866846  
     296A      2.873201   297A      2.885647   298A      2.887802  
     299A      2.892867   300A      2.911079   301A      2.925495  
     302A      2.925704   303A      2.934006   304A      2.958791  
     305A      2.971514   306A      2.980065   307A      2.998468  
     308A      3.007287   309A      3.025443   310A      3.033280  
     311A      3.043061   312A      3.064109   313A      3.069486  
     314A      3.099260   315A      3.119637   316A      3.122487  
     317A      3.127297   318A      3.136433   319A      3.142658  
     320A      3.146268   321A      3.152676   322A      3.156712  
     323A      3.168143   324A      3.170878   325A      3.178399  
     326A      3.200358   327A      3.207185   328A      3.243642  
     329A      3.252336   330A      3.252840   331A      3.264773  
     332A      3.272721   333A      3.278865   334A      3.289541  
     335A      3.303073   336A      3.310260   337A      3.325434  
     338A      3.330471   339A      3.334764   340A      3.345836  
     341A      3.351024   342A      3.360930   343A      3.363266  
     344A      3.376080   345A      3.394938   346A      3.399091  
     347A      3.407023   348A      3.412804   349A      3.422421  
     350A      3.424053   351A      3.427775   352A      3.434389  
     353A      3.434407   354A      3.463646   355A      3.468962  
     356A      3.469535   357A      3.477995   358A      3.491419  
     359A      3.496649   360A      3.499987   361A      3.502377  
     362A      3.507932   363A      3.522479   364A      3.525734  
     365A      3.535474   366A      3.548532   367A      3.553775  
     368A      3.557628   369A      3.560864   370A      3.580879  
     371A      3.592537   372A      3.598284   373A      3.600578  
     374A      3.609249   375A      3.613327   376A      3.622064  
     377A      3.637430   378A      3.642465   379A      3.654743  
     380A      3.662022   381A      3.668783   382A      3.672771  
     383A      3.685542   384A      3.697814   385A      3.709229  
     386A      3.732216   387A      3.745623   388A      3.757033  
     389A      3.762290   390A      3.773816   391A      3.791077  
     392A      3.801105   393A      3.827757   394A      3.833917  
     395A      3.836525   396A      3.840865   397A      3.852515  
     398A      3.864680   399A      3.873590   400A      3.881879  
     401A      3.893046   402A      3.913098   403A      3.937050  
     404A      3.944714   405A      3.954238   406A      3.958877  
     407A      3.960709   408A      3.961682   409A      3.964040  
     410A      3.974751   411A      3.984578   412A      4.002523  
     413A      4.006059   414A      4.007086   415A      4.020972  
     416A      4.034943   417A      4.039725   418A      4.088492  
     419A      4.113938   420A      4.140741   421A      4.161717  
     422A      4.168962   423A      4.177284   424A      4.186563  
     425A      4.197383   426A      4.200548   427A      4.224608  
     428A      4.226912   429A      4.227836   430A      4.249740  
     431A      4.255478   432A      4.270675   433A      4.273099  
     434A      4.275810   435A      4.300366   436A      4.301411  
     437A      4.305667   438A      4.312930   439A      4.321889  
     440A      4.332408   441A      4.338137   442A      4.350851  
     443A      4.361722   444A      4.365748   445A      4.383101  
     446A      4.388273   447A      4.398798   448A      4.399389  
     449A      4.412153   450A      4.421118   451A      4.431398  
     452A      4.438205   453A      4.450556   454A      4.458913  
     455A      4.460534   456A      4.478081   457A      4.480217  
     458A      4.503956   459A      4.511660   460A      4.512115  
     461A      4.521005   462A      4.531776   463A      4.544360  
     464A      4.545852   465A      4.561851   466A      4.565928  
     467A      4.568403   468A      4.573533   469A      4.595079  
     470A      4.596355   471A      4.603581   472A      4.613206  
     473A      4.625340   474A      4.641596   475A      4.646092  
     476A      4.656311   477A      4.671285   478A      4.679009  
     479A      4.683573   480A      4.709792   481A      4.722897  
     482A      4.726473   483A      4.745034   484A      4.747740  
     485A      4.748246   486A      4.769471   487A      4.819291  
     488A      4.839187   489A      4.839327   490A      4.848993  
     491A      4.854277   492A      4.869082   493A      4.898801  
     494A      4.907797   495A      4.924120   496A      4.929449  
     497A      4.973872   498A      4.986060   499A      5.023411  
     500A      5.053719   501A      5.058233   502A      5.071527  
     503A      5.118476   504A      5.120639   505A      5.126288  
     506A      5.135776   507A      5.136470   508A      5.137703  
     509A      5.150975   510A      5.196040   511A      5.248508  
     512A      5.259712   513A      5.264912   514A      5.267298  
     515A      5.274079   516A      5.274946   517A      5.294744  
     518A      5.295795   519A      5.309088   520A      5.321407  
     521A      5.322601   522A      5.353568   523A      5.360376  
     524A      5.361446   525A      5.365018   526A      5.374346  
     527A      5.375260   528A      5.381328   529A      5.424187  
     530A      5.442112   531A      5.447023   532A      5.461354  
     533A      5.465052   534A      5.495143   535A      5.533042  
     536A      5.551092   537A      5.559607   538A      5.563817  
     539A      5.628078   540A      5.634538   541A      5.653853  
     542A      5.661492   543A      5.675673   544A      5.677863  
     545A      5.750882   546A      5.757329   547A      5.759270  
     548A      5.763091   549A      5.780041   550A      5.789933  
     551A      5.802800   552A      5.804242   553A      5.815290  
     554A      5.825731   555A      5.861593   556A      5.865881  
     557A      5.903250   558A      5.912840   559A      5.914148  
     560A      5.929610   561A      5.957283   562A      5.960015  
     563A      5.966112   564A      5.968196   565A      5.977619  
     566A      6.010125   567A      6.017875   568A      6.034345  
     569A      6.086831   570A      6.088346   571A      6.196880  
     572A      6.200852   573A      6.494943   574A      6.500874  
     575A      6.506820   576A      6.541395   577A      6.550748  
     578A      6.555801   579A      6.566510   580A      6.577119  
     581A      6.589111   582A      6.636710   583A      6.654134  
     584A      6.688871   585A     13.687660   586A     13.842954  
     587A     14.269277   588A     14.277879   589A     14.495033  
     590A     14.615410   591A     14.683495   592A     14.783919  

    Final Occupation by Irrep:
              A 
    DOCC [    34 ]

  @DF-RHF Final Energy:  -314.70769110815957

   => Energetics <=

    Nuclear Repulsion Energy =            403.6980498156256658
    One-Electron Energy =               -1223.5732161696514595
    Two-Electron Energy =                 505.1674752458662851
    Total Energy =                       -314.7076911081595654

Computation Completed


Properties will be evaluated at   0.000000,   0.000000,   0.000000 [a0]

Properties computed using the SCF density matrix

  Nuclear Dipole Moment: [e a0]
     X:     0.0001      Y:     0.0020      Z:     0.0000

  Electronic Dipole Moment: [e a0]
     X:    -0.0000      Y:    -0.0001      Z:    -0.0001

  Dipole Moment: [e a0]
     X:     0.0000      Y:     0.0019      Z:    -0.0000     Total:     0.0019

  Dipole Moment: [D]
     X:     0.0001      Y:     0.0049      Z:    -0.0000     Total:     0.0049


*** tstop() called on r282 at Thu Sep  9 11:14:18 2021
Module time:
	user time   =     113.83 seconds =       1.90 minutes
	system time =       2.13 seconds =       0.04 minutes
	total time  =        116 seconds =       1.93 minutes
Total time:
	user time   =     113.83 seconds =       1.90 minutes
	system time =       2.13 seconds =       0.04 minutes
	total time  =        116 seconds =       1.93 minutes

  //>>>>>>>>>>>>>>>>>>>>>>>>>>>>>>>>>>>//
  //            Monomer A HF           //
  //<<<<<<<<<<<<<<<<<<<<<<<<<<<<<<<<<<<//


*** tstart() called on r282
*** at Thu Sep  9 11:14:18 2021

   => Loading Basis Set <=

    Name: JUN-CC-PVTZ
    Role: ORBITAL
    Keyword: BASIS
    atoms 1, 5, 8, 11, 15, 19, 22, 25                       entry C          line   217 file /home/r08543048/miniconda3/share/psi4/basis/jun-cc-pvtz.gbs 
    atoms 2-4, 6-7, 9-10, 12-14, 16-18, 20-21, 23-24, 26-28 entry H          line    36 file /home/r08543048/miniconda3/share/psi4/basis/jun-cc-pvtz.gbs 


         ---------------------------------------------------------
                                   SCF
               by Justin Turney, Rob Parrish, Andy Simmonett
                          and Daniel G. A. Smith
                              RHF Reference
                        1 Threads,  20980 MiB Core
         ---------------------------------------------------------

  ==> Geometry <==

    Molecular point group: c1
    Full point group: C1

    Geometry (in Angstrom), charge = 0, multiplicity = 1:

       Center              X                  Y                   Z               Mass       
    ------------   -----------------  -----------------  -----------------  -----------------
         C            1.899740752209     1.911827725959    -0.351298675954    12.000000000000
         H            1.116516752209     1.942226725959    -1.110219675954     1.007825032230
         H            2.859694752209     2.001506725959    -0.861703675954     1.007825032230
         H            1.777314752209     2.785051725959     0.289282324046     1.007825032230
         C            1.831817752209     0.615518725959     0.445749324046    12.000000000000
         H            2.608185752209     0.613583725959     1.215944324046     1.007825032230
         H            0.875472752209     0.554515725959     0.972337324046     1.007825032230
         C            1.996259752209    -0.621536274041    -0.428220675954    12.000000000000
         H            2.955500752209    -0.566329274041    -0.950404675954     1.007825032230
         H            1.224106752209    -0.618277274041    -1.203032675954     1.007825032230
         C            1.917962752209    -1.914684274041     0.373518324046    12.000000000000
         H            0.958190752209    -1.994376274041     0.886123324046     1.007825032230
         H            2.030488752209    -2.791865274041    -0.263455675954     1.007825032230
         H            2.702533752209    -1.946934274041     1.130734324046     1.007825032230
      Gh(C)          -1.925181247791    -1.910259274041    -0.373464675954    12.000000000000
      Gh(H)          -0.965308247791    -1.993713274041    -0.885284675954     1.007825032230
      Gh(H)          -2.709256247791    -1.939468274041    -1.131317675954     1.007825032230
      Gh(H)          -2.041650247791    -2.786970274041     0.263446324046     1.007825032230
      Gh(C)          -1.999071247791    -0.616786274041     0.428165324046    12.000000000000
      Gh(H)          -2.958511247791    -0.557774274041     0.949563324046     1.007825032230
      Gh(H)          -1.227521247791    -0.616513274041     1.203598324046     1.007825032230
      Gh(C)          -1.828959247791     0.619572725959    -0.445697675954    12.000000000000
      Gh(H)          -2.604546247791     0.620686725959    -1.216678675954     1.007825032230
      Gh(H)          -0.872321247791     0.554741725959    -0.971283675954     1.007825032230
      Gh(C)          -1.892577247791     1.916166725959     0.351244324046    12.000000000000
      Gh(H)          -1.110171247791     1.943425725959     1.111123324046     1.007825032230
      Gh(H)          -1.765844247791     2.788877725959    -0.289201675954     1.007825032230
      Gh(H)          -2.852780247791     2.009750725959     0.860482324046     1.007825032230

  Running in c1 symmetry.

  Rotational constants: A =      0.05752  B =      0.03581  C =      0.02419 [cm^-1]
  Rotational constants: A =   1724.36731  B =   1073.50189  C =    725.33091 [MHz]
  Nuclear repulsion =  131.077741570532652

  Charge       = 0
  Multiplicity = 1
  Electrons    = 34
  Nalpha       = 17
  Nbeta        = 17

  ==> Algorithm <==

  SCF Algorithm Type is DF.
  DIIS enabled.
  MOM disabled.
  Fractional occupation disabled.
  Guess Type is SAD.
  Energy threshold   = 1.00e-08
  Density threshold  = 1.00e-08
  Integral threshold = 0.00e+00

  ==> Primary Basis <==

  Basis Set: JUN-CC-PVTZ
    Blend: JUN-CC-PVTZ
    Number of shells: 224
    Number of basis function: 592
    Number of Cartesian functions: 660
    Spherical Harmonics?: true
    Max angular momentum: 3

   => Loading Basis Set <=

    Name: (JUN-CC-PVTZ AUX)
    Role: JKFIT
    Keyword: DF_BASIS_SCF
    atoms 1, 5, 8, 11, 15, 19, 22, 25                       entry C          line   152 file /home/r08543048/miniconda3/share/psi4/basis/jun-cc-pvtz-jkfit.gbs 
    atoms 2-4, 6-7, 9-10, 12-14, 16-18, 20-21, 23-24, 26-28 entry H          line    70 file /home/r08543048/miniconda3/share/psi4/basis/jun-cc-pvtz-jkfit.gbs 

  ==> Pre-Iterations <==

   -------------------------------------------------------
    Irrep   Nso     Nmo     Nalpha   Nbeta   Ndocc  Nsocc
   -------------------------------------------------------
     A        592     592       0       0       0       0
   -------------------------------------------------------
    Total     592     592      17      17      17       0
   -------------------------------------------------------

  ==> Integral Setup <==

  ==> DiskDFJK: Density-Fitted J/K Matrices <==

    J tasked:                  Yes
    K tasked:                  Yes
    wK tasked:                  No
    OpenMP threads:              1
    Integrals threads:           1
    Memory [MiB]:            15735
    Algorithm:                Core
    Integral Cache:           LOAD
    Schwarz Cutoff:          1E-12
    Fitting Condition:       1E-10

   => Auxiliary Basis Set <=

  Basis Set: (JUN-CC-PVTZ AUX)
    Blend: JUN-CC-PVTZ-JKFIT
    Number of shells: 432
    Number of basis function: 1360
    Number of Cartesian functions: 1628
    Spherical Harmonics?: true
    Max angular momentum: 4

  Minimum eigenvalue in the overlap matrix is 4.2656413431E-05.
  Using Symmetric Orthogonalization.

  SCF Guess: Superposition of Atomic Densities via on-the-fly atomic UHF.

  ==> Iterations <==

                           Total Energy        Delta E     RMS |[F,P]|

   @DF-RHF iter SAD:  -156.79437126035049   -1.56794e+02   0.00000e+00 
   @DF-RHF iter   1:  -157.14981618164686   -3.55445e-01   9.73636e-04 DIIS
   @DF-RHF iter   2:  -157.31621998189553   -1.66404e-01   4.52546e-04 DIIS
   @DF-RHF iter   3:  -157.35345676452917   -3.72368e-02   7.97737e-05 DIIS
   @DF-RHF iter   4:  -157.35585067047066   -2.39391e-03   1.86291e-05 DIIS
   @DF-RHF iter   5:  -157.35594240777803   -9.17373e-05   4.81492e-06 DIIS
   @DF-RHF iter   6:  -157.35595006812457   -7.66035e-06   6.02669e-07 DIIS
   @DF-RHF iter   7:  -157.35595024789703   -1.79772e-07   1.06183e-07 DIIS
   @DF-RHF iter   8:  -157.35595025289814   -5.00111e-09   2.37030e-08 DIIS
   @DF-RHF iter   9:  -157.35595025317173   -2.73587e-10   5.34611e-09 DIIS
  Energy and wave function converged.


  ==> Post-Iterations <==

    Orbital Energies [Eh]
    ---------------------

    Doubly Occupied:                                                      

       1A    -11.213425     2A    -11.212797     3A    -11.207585  
       4A    -11.207573     5A     -1.071377     6A     -0.980347  
       7A     -0.860229     8A     -0.787426     9A     -0.638986  
      10A     -0.584209    11A     -0.575562    12A     -0.567024  
      13A     -0.513998    14A     -0.494181    15A     -0.469326  
      16A     -0.461508    17A     -0.455994  

    Virtual:                                                              

      18A      0.030656    19A      0.043085    20A      0.048221  
      21A      0.054631    22A      0.065362    23A      0.070837  
      24A      0.072031    25A      0.075331    26A      0.083010  
      27A      0.098317    28A      0.099267    29A      0.105407  
      30A      0.109971    31A      0.113937    32A      0.116946  
      33A      0.119629    34A      0.123335    35A      0.132748  
      36A      0.134638    37A      0.142623    38A      0.149439  
      39A      0.154721    40A      0.157219    41A      0.161220  
      42A      0.170515    43A      0.171453    44A      0.180316  
      45A      0.182643    46A      0.193280    47A      0.203165  
      48A      0.208149    49A      0.209564    50A      0.231150  
      51A      0.252784    52A      0.259652    53A      0.263448  
      54A      0.274245    55A      0.281505    56A      0.286565  
      57A      0.291588    58A      0.298441    59A      0.302274  
      60A      0.306260    61A      0.314522    62A      0.320202  
      63A      0.322573    64A      0.329051    65A      0.329280  
      66A      0.336255    67A      0.337684    68A      0.350148  
      69A      0.353193    70A      0.363099    71A      0.364695  
      72A      0.371732    73A      0.375019    74A      0.379035  
      75A      0.380222    76A      0.387173    77A      0.390140  
      78A      0.392149    79A      0.402447    80A      0.405684  
      81A      0.414850    82A      0.418895    83A      0.428217  
      84A      0.440287    85A      0.443370    86A      0.447526  
      87A      0.455203    88A      0.457797    89A      0.471224  
      90A      0.477588    91A      0.480470    92A      0.497672  
      93A      0.509082    94A      0.515018    95A      0.521584  
      96A      0.526364    97A      0.532180    98A      0.535049  
      99A      0.538302   100A      0.549286   101A      0.552997  
     102A      0.567154   103A      0.570709   104A      0.579442  
     105A      0.582286   106A      0.589720   107A      0.592205  
     108A      0.604393   109A      0.607864   110A      0.610186  
     111A      0.617179   112A      0.623345   113A      0.630418  
     114A      0.643769   115A      0.645949   116A      0.647584  
     117A      0.661645   118A      0.665737   119A      0.675865  
     120A      0.683799   121A      0.687562   122A      0.701138  
     123A      0.706457   124A      0.710976   125A      0.725421  
     126A      0.735318   127A      0.738256   128A      0.753061  
     129A      0.764382   130A      0.771167   131A      0.782699  
     132A      0.788805   133A      0.808057   134A      0.810257  
     135A      0.826914   136A      0.834236   137A      0.838808  
     138A      0.846206   139A      0.848870   140A      0.857711  
     141A      0.864549   142A      0.878299   143A      0.884518  
     144A      0.886869   145A      0.896018   146A      0.906880  
     147A      0.922913   148A      0.946588   149A      0.950652  
     150A      0.979842   151A      0.999110   152A      1.019011  
     153A      1.027055   154A      1.053661   155A      1.062587  
     156A      1.073942   157A      1.098743   158A      1.103333  
     159A      1.103676   160A      1.119488   161A      1.127353  
     162A      1.136160   163A      1.153008   164A      1.161100  
     165A      1.168112   166A      1.182278   167A      1.187964  
     168A      1.195784   169A      1.199635   170A      1.219616  
     171A      1.230908   172A      1.234244   173A      1.242418  
     174A      1.244786   175A      1.251973   176A      1.255910  
     177A      1.274346   178A      1.284718   179A      1.288248  
     180A      1.292404   181A      1.307276   182A      1.314143  
     183A      1.317889   184A      1.320707   185A      1.331205  
     186A      1.341339   187A      1.350218   188A      1.360355  
     189A      1.361512   190A      1.376761   191A      1.383324  
     192A      1.394949   193A      1.398941   194A      1.401106  
     195A      1.409147   196A      1.416610   197A      1.426060  
     198A      1.434747   199A      1.444627   200A      1.457235  
     201A      1.467216   202A      1.478972   203A      1.481818  
     204A      1.489876   205A      1.502967   206A      1.505531  
     207A      1.516596   208A      1.520848   209A      1.525816  
     210A      1.540362   211A      1.544612   212A      1.548338  
     213A      1.554617   214A      1.566723   215A      1.577621  
     216A      1.586032   217A      1.595530   218A      1.603278  
     219A      1.606413   220A      1.618438   221A      1.621194  
     222A      1.627141   223A      1.630930   224A      1.644530  
     225A      1.648181   226A      1.662980   227A      1.665461  
     228A      1.669992   229A      1.689593   230A      1.691705  
     231A      1.702353   232A      1.726022   233A      1.732274  
     234A      1.741657   235A      1.750303   236A      1.765278  
     237A      1.771877   238A      1.777294   239A      1.792620  
     240A      1.804205   241A      1.830732   242A      1.847611  
     243A      1.856240   244A      1.878639   245A      1.890557  
     246A      1.903198   247A      1.912527   248A      1.920788  
     249A      1.930699   250A      1.940636   251A      1.958584  
     252A      1.973031   253A      1.980389   254A      1.999288  
     255A      2.011719   256A      2.018847   257A      2.039461  
     258A      2.058741   259A      2.078156   260A      2.110008  
     261A      2.125550   262A      2.131662   263A      2.174074  
     264A      2.184469   265A      2.186275   266A      2.240333  
     267A      2.276057   268A      2.322871   269A      2.334837  
     270A      2.341266   271A      2.408416   272A      2.428059  
     273A      2.466436   274A      2.492151   275A      2.496842  
     276A      2.532393   277A      2.624826   278A      2.639495  
     279A      2.676065   280A      2.687345   281A      2.749796  
     282A      2.771557   283A      2.818146   284A      2.834731  
     285A      2.877452   286A      2.888590   287A      2.902732  
     288A      2.914829   289A      2.921307   290A      2.946868  
     291A      2.967237   292A      3.004582   293A      3.028600  
     294A      3.054829   295A      3.089686   296A      3.136472  
     297A      3.140845   298A      3.153611   299A      3.157693  
     300A      3.168819   301A      3.180995   302A      3.214944  
     303A      3.246245   304A      3.279973   305A      3.288952  
     306A      3.304626   307A      3.319787   308A      3.343019  
     309A      3.352643   310A      3.366678   311A      3.403092  
     312A      3.411065   313A      3.412784   314A      3.417128  
     315A      3.437738   316A      3.461988   317A      3.471835  
     318A      3.478087   319A      3.494948   320A      3.498647  
     321A      3.510285   322A      3.522398   323A      3.531307  
     324A      3.539757   325A      3.549327   326A      3.558726  
     327A      3.574503   328A      3.578123   329A      3.587103  
     330A      3.588145   331A      3.592259   332A      3.597747  
     333A      3.610471   334A      3.628239   335A      3.632978  
     336A      3.644310   337A      3.652167   338A      3.658620  
     339A      3.664756   340A      3.666620   341A      3.681903  
     342A      3.687833   343A      3.691867   344A      3.727164  
     345A      3.732499   346A      3.756937   347A      3.783461  
     348A      3.790200   349A      3.800136   350A      3.808645  
     351A      3.817858   352A      3.825229   353A      3.832113  
     354A      3.842886   355A      3.849777   356A      3.857884  
     357A      3.866196   358A      3.870307   359A      3.881105  
     360A      3.895272   361A      3.902743   362A      3.905364  
     363A      3.918238   364A      3.922073   365A      3.939463  
     366A      3.957372   367A      3.961983   368A      3.963482  
     369A      3.970176   370A      3.983047   371A      3.987459  
     372A      4.006844   373A      4.011541   374A      4.020160  
     375A      4.043392   376A      4.078229   377A      4.088083  
     378A      4.103275   379A      4.113906   380A      4.142532  
     381A      4.162563   382A      4.167631   383A      4.186602  
     384A      4.193242   385A      4.198914   386A      4.207244  
     387A      4.215741   388A      4.231581   389A      4.249612  
     390A      4.259213   391A      4.266912   392A      4.276373  
     393A      4.284537   394A      4.288835   395A      4.310917  
     396A      4.316837   397A      4.325082   398A      4.333299  
     399A      4.344231   400A      4.355802   401A      4.377446  
     402A      4.383854   403A      4.388870   404A      4.393592  
     405A      4.403239   406A      4.414414   407A      4.424742  
     408A      4.447374   409A      4.453310   410A      4.470456  
     411A      4.486746   412A      4.499160   413A      4.503609  
     414A      4.514479   415A      4.517577   416A      4.521795  
     417A      4.527444   418A      4.540585   419A      4.542932  
     420A      4.548788   421A      4.551117   422A      4.561796  
     423A      4.566794   424A      4.581934   425A      4.585907  
     426A      4.597920   427A      4.612262   428A      4.617282  
     429A      4.623542   430A      4.633267   431A      4.645745  
     432A      4.650873   433A      4.676217   434A      4.677185  
     435A      4.681968   436A      4.700894   437A      4.703829  
     438A      4.721646   439A      4.723116   440A      4.738925  
     441A      4.740663   442A      4.746499   443A      4.754254  
     444A      4.761257   445A      4.772395   446A      4.780696  
     447A      4.803164   448A      4.807450   449A      4.819137  
     450A      4.830172   451A      4.840315   452A      4.846597  
     453A      4.857145   454A      4.878826   455A      4.890099  
     456A      4.895940   457A      4.897726   458A      4.912139  
     459A      4.914982   460A      4.928233   461A      4.932856  
     462A      4.937112   463A      4.942831   464A      4.955006  
     465A      4.970037   466A      4.974500   467A      4.981619  
     468A      4.991468   469A      4.995962   470A      5.016265  
     471A      5.017610   472A      5.033271   473A      5.048716  
     474A      5.058542   475A      5.071495   476A      5.075813  
     477A      5.094721   478A      5.115201   479A      5.121682  
     480A      5.136159   481A      5.147368   482A      5.158028  
     483A      5.183506   484A      5.205504   485A      5.212259  
     486A      5.232037   487A      5.258311   488A      5.263252  
     489A      5.273389   490A      5.282621   491A      5.289914  
     492A      5.304823   493A      5.319825   494A      5.322498  
     495A      5.351399   496A      5.359235   497A      5.368560  
     498A      5.371800   499A      5.381353   500A      5.405696  
     501A      5.436345   502A      5.455986   503A      5.464799  
     504A      5.469931   505A      5.489254   506A      5.523469  
     507A      5.546590   508A      5.556996   509A      5.559290  
     510A      5.567336   511A      5.626437   512A      5.645808  
     513A      5.659464   514A      5.672246   515A      5.676646  
     516A      5.692026   517A      5.756624   518A      5.761659  
     519A      5.784355   520A      5.796059   521A      5.804804  
     522A      5.816359   523A      5.823127   524A      5.836641  
     525A      5.871339   526A      5.908540   527A      5.914269  
     528A      5.927092   529A      5.951750   530A      5.960961  
     531A      5.971095   532A      5.992914   533A      6.015677  
     534A      6.029057   535A      6.039611   536A      6.071709  
     537A      6.088638   538A      6.113029   539A      6.139667  
     540A      6.198765   541A      6.268870   542A      6.329823  
     543A      6.356867   544A      6.384203   545A      6.397780  
     546A      6.400554   547A      6.433627   548A      6.482843  
     549A      6.486447   550A      6.506648   551A      6.512620  
     552A      6.533346   553A      6.556611   554A      6.566447  
     555A      6.573466   556A      6.614177   557A      6.667338  
     558A      6.742338   559A      6.795797   560A      6.817350  
     561A      6.947841   562A      7.061053   563A      7.268971  
     564A      7.517795   565A      7.542717   566A      7.584619  
     567A      7.597765   568A      7.601147   569A      7.687938  
     570A      7.723375   571A      7.752914   572A      7.809746  
     573A      7.816670   574A      7.849505   575A      7.937866  
     576A      7.949138   577A      8.126687   578A      8.306866  
     579A      8.452746   580A      8.653370   581A      9.602238  
     582A      9.701321   583A      9.910434   584A      9.935799  
     585A     13.771215   586A     14.277952   587A     14.587425  
     588A     14.696994   589A     43.902163   590A     45.455620  
     591A     45.637898   592A     45.820343  

    Final Occupation by Irrep:
              A 
    DOCC [    17 ]

  @DF-RHF Final Energy:  -157.35595025317173

   => Energetics <=

    Nuclear Repulsion Energy =            131.0777415705326518
    One-Electron Energy =                -470.2642859772648762
    Two-Electron Energy =                 181.8305941535604688
    Total Energy =                       -157.3559502531717271

Computation Completed


Properties will be evaluated at   0.000000,   0.000000,   0.000000 [a0]

Properties computed using the SCF density matrix

  Nuclear Dipole Moment: [e a0]
     X:   122.7995      Y:    -0.1401      Z:     0.6502

  Electronic Dipole Moment: [e a0]
     X:  -122.7991      Y:     0.1401      Z:    -0.6502

  Dipole Moment: [e a0]
     X:     0.0004      Y:    -0.0000      Z:     0.0001     Total:     0.0004

  Dipole Moment: [D]
     X:     0.0010      Y:    -0.0001      Z:     0.0002     Total:     0.0011


*** tstop() called on r282 at Thu Sep  9 11:15:21 2021
Module time:
	user time   =      61.69 seconds =       1.03 minutes
	system time =       0.94 seconds =       0.02 minutes
	total time  =         63 seconds =       1.05 minutes
Total time:
	user time   =     175.53 seconds =       2.93 minutes
	system time =       3.07 seconds =       0.05 minutes
	total time  =        179 seconds =       2.98 minutes

  //>>>>>>>>>>>>>>>>>>>>>>>>>>>>>>>>>>>//
  //            Monomer B HF           //
  //<<<<<<<<<<<<<<<<<<<<<<<<<<<<<<<<<<<//


*** tstart() called on r282
*** at Thu Sep  9 11:15:21 2021

   => Loading Basis Set <=

    Name: JUN-CC-PVTZ
    Role: ORBITAL
    Keyword: BASIS
    atoms 1, 5, 8, 11, 15, 19, 22, 25                       entry C          line   217 file /home/r08543048/miniconda3/share/psi4/basis/jun-cc-pvtz.gbs 
    atoms 2-4, 6-7, 9-10, 12-14, 16-18, 20-21, 23-24, 26-28 entry H          line    36 file /home/r08543048/miniconda3/share/psi4/basis/jun-cc-pvtz.gbs 


         ---------------------------------------------------------
                                   SCF
               by Justin Turney, Rob Parrish, Andy Simmonett
                          and Daniel G. A. Smith
                              RHF Reference
                        1 Threads,  20980 MiB Core
         ---------------------------------------------------------

  ==> Geometry <==

    Molecular point group: c1
    Full point group: C1

    Geometry (in Angstrom), charge = 0, multiplicity = 1:

       Center              X                  Y                   Z               Mass       
    ------------   -----------------  -----------------  -----------------  -----------------
      Gh(C)           1.899740752209     1.911827725959    -0.351298675954    12.000000000000
      Gh(H)           1.116516752209     1.942226725959    -1.110219675954     1.007825032230
      Gh(H)           2.859694752209     2.001506725959    -0.861703675954     1.007825032230
      Gh(H)           1.777314752209     2.785051725959     0.289282324046     1.007825032230
      Gh(C)           1.831817752209     0.615518725959     0.445749324046    12.000000000000
      Gh(H)           2.608185752209     0.613583725959     1.215944324046     1.007825032230
      Gh(H)           0.875472752209     0.554515725959     0.972337324046     1.007825032230
      Gh(C)           1.996259752209    -0.621536274041    -0.428220675954    12.000000000000
      Gh(H)           2.955500752209    -0.566329274041    -0.950404675954     1.007825032230
      Gh(H)           1.224106752209    -0.618277274041    -1.203032675954     1.007825032230
      Gh(C)           1.917962752209    -1.914684274041     0.373518324046    12.000000000000
      Gh(H)           0.958190752209    -1.994376274041     0.886123324046     1.007825032230
      Gh(H)           2.030488752209    -2.791865274041    -0.263455675954     1.007825032230
      Gh(H)           2.702533752209    -1.946934274041     1.130734324046     1.007825032230
         C           -1.925181247791    -1.910259274041    -0.373464675954    12.000000000000
         H           -0.965308247791    -1.993713274041    -0.885284675954     1.007825032230
         H           -2.709256247791    -1.939468274041    -1.131317675954     1.007825032230
         H           -2.041650247791    -2.786970274041     0.263446324046     1.007825032230
         C           -1.999071247791    -0.616786274041     0.428165324046    12.000000000000
         H           -2.958511247791    -0.557774274041     0.949563324046     1.007825032230
         H           -1.227521247791    -0.616513274041     1.203598324046     1.007825032230
         C           -1.828959247791     0.619572725959    -0.445697675954    12.000000000000
         H           -2.604546247791     0.620686725959    -1.216678675954     1.007825032230
         H           -0.872321247791     0.554741725959    -0.971283675954     1.007825032230
         C           -1.892577247791     1.916166725959     0.351244324046    12.000000000000
         H           -1.110171247791     1.943425725959     1.111123324046     1.007825032230
         H           -1.765844247791     2.788877725959    -0.289201675954     1.007825032230
         H           -2.852780247791     2.009750725959     0.860482324046     1.007825032230

  Running in c1 symmetry.

  Rotational constants: A =      0.05752  B =      0.03581  C =      0.02419 [cm^-1]
  Rotational constants: A =   1724.36731  B =   1073.50189  C =    725.33091 [MHz]
  Nuclear repulsion =  131.077929310354563

  Charge       = 0
  Multiplicity = 1
  Electrons    = 34
  Nalpha       = 17
  Nbeta        = 17

  ==> Algorithm <==

  SCF Algorithm Type is DF.
  DIIS enabled.
  MOM disabled.
  Fractional occupation disabled.
  Guess Type is SAD.
  Energy threshold   = 1.00e-08
  Density threshold  = 1.00e-08
  Integral threshold = 0.00e+00

  ==> Primary Basis <==

  Basis Set: JUN-CC-PVTZ
    Blend: JUN-CC-PVTZ
    Number of shells: 224
    Number of basis function: 592
    Number of Cartesian functions: 660
    Spherical Harmonics?: true
    Max angular momentum: 3

   => Loading Basis Set <=

    Name: (JUN-CC-PVTZ AUX)
    Role: JKFIT
    Keyword: DF_BASIS_SCF
    atoms 1, 5, 8, 11, 15, 19, 22, 25                       entry C          line   152 file /home/r08543048/miniconda3/share/psi4/basis/jun-cc-pvtz-jkfit.gbs 
    atoms 2-4, 6-7, 9-10, 12-14, 16-18, 20-21, 23-24, 26-28 entry H          line    70 file /home/r08543048/miniconda3/share/psi4/basis/jun-cc-pvtz-jkfit.gbs 

  ==> Pre-Iterations <==

   -------------------------------------------------------
    Irrep   Nso     Nmo     Nalpha   Nbeta   Ndocc  Nsocc
   -------------------------------------------------------
     A        592     592       0       0       0       0
   -------------------------------------------------------
    Total     592     592      17      17      17       0
   -------------------------------------------------------

  ==> Integral Setup <==

  ==> DiskDFJK: Density-Fitted J/K Matrices <==

    J tasked:                  Yes
    K tasked:                  Yes
    wK tasked:                  No
    OpenMP threads:              1
    Integrals threads:           1
    Memory [MiB]:            15735
    Algorithm:                Core
    Integral Cache:           LOAD
    Schwarz Cutoff:          1E-12
    Fitting Condition:       1E-10

   => Auxiliary Basis Set <=

  Basis Set: (JUN-CC-PVTZ AUX)
    Blend: JUN-CC-PVTZ-JKFIT
    Number of shells: 432
    Number of basis function: 1360
    Number of Cartesian functions: 1628
    Spherical Harmonics?: true
    Max angular momentum: 4

  Minimum eigenvalue in the overlap matrix is 4.2656413431E-05.
  Using Symmetric Orthogonalization.

  SCF Guess: Superposition of Atomic Densities via on-the-fly atomic UHF.

  ==> Iterations <==

                           Total Energy        Delta E     RMS |[F,P]|

   @DF-RHF iter SAD:  -156.79438397666090   -1.56794e+02   0.00000e+00 
   @DF-RHF iter   1:  -157.14981522038383   -3.55431e-01   9.73638e-04 DIIS
   @DF-RHF iter   2:  -157.31621948883856   -1.66404e-01   4.52548e-04 DIIS
   @DF-RHF iter   3:  -157.35345656282641   -3.72371e-02   7.97739e-05 DIIS
   @DF-RHF iter   4:  -157.35585047352785   -2.39391e-03   1.86291e-05 DIIS
   @DF-RHF iter   5:  -157.35594221073393   -9.17372e-05   4.81492e-06 DIIS
   @DF-RHF iter   6:  -157.35594987108601   -7.66035e-06   6.02669e-07 DIIS
   @DF-RHF iter   7:  -157.35595005085781   -1.79772e-07   1.06184e-07 DIIS
   @DF-RHF iter   8:  -157.35595005585921   -5.00140e-09   2.37032e-08 DIIS
   @DF-RHF iter   9:  -157.35595005613106   -2.71854e-10   5.34634e-09 DIIS
  Energy and wave function converged.


  ==> Post-Iterations <==

    Orbital Energies [Eh]
    ---------------------

    Doubly Occupied:                                                      

       1A    -11.213425     2A    -11.212797     3A    -11.207586  
       4A    -11.207573     5A     -1.071379     6A     -0.980347  
       7A     -0.860230     8A     -0.787425     9A     -0.638988  
      10A     -0.584207    11A     -0.575562    12A     -0.567024  
      13A     -0.513998    14A     -0.494181    15A     -0.469325  
      16A     -0.461510    17A     -0.455993  

    Virtual:                                                              

      18A      0.030656    19A      0.043084    20A      0.048221  
      21A      0.054631    22A      0.065362    23A      0.070839  
      24A      0.072029    25A      0.075330    26A      0.083012  
      27A      0.098318    28A      0.099270    29A      0.105405  
      30A      0.109972    31A      0.113934    32A      0.116945  
      33A      0.119628    34A      0.123333    35A      0.132744  
      36A      0.134640    37A      0.142625    38A      0.149440  
      39A      0.154730    40A      0.157207    41A      0.161227  
      42A      0.170518    43A      0.171446    44A      0.180318  
      45A      0.182639    46A      0.193280    47A      0.203169  
      48A      0.208131    49A      0.209568    50A      0.231163  
      51A      0.252788    52A      0.259619    53A      0.263471  
      54A      0.274231    55A      0.281503    56A      0.286524  
      57A      0.291656    58A      0.298435    59A      0.302295  
      60A      0.306262    61A      0.314528    62A      0.320224  
      63A      0.322587    64A      0.328989    65A      0.329288  
      66A      0.336250    67A      0.337684    68A      0.350138  
      69A      0.353233    70A      0.363093    71A      0.364695  
      72A      0.371754    73A      0.375004    74A      0.379021  
      75A      0.380230    76A      0.387136    77A      0.390119  
      78A      0.392138    79A      0.402475    80A      0.405692  
      81A      0.414846    82A      0.418890    83A      0.428187  
      84A      0.440331    85A      0.443376    86A      0.447478  
      87A      0.455157    88A      0.457806    89A      0.471274  
      90A      0.477545    91A      0.480457    92A      0.497760  
      93A      0.509155    94A      0.514955    95A      0.521621  
      96A      0.526365    97A      0.532230    98A      0.535052  
      99A      0.538266   100A      0.549390   101A      0.553026  
     102A      0.567037   103A      0.570677   104A      0.579391  
     105A      0.582208   106A      0.589714   107A      0.592323  
     108A      0.604391   109A      0.607834   110A      0.610075  
     111A      0.617176   112A      0.623447   113A      0.630436  
     114A      0.643728   115A      0.645952   116A      0.647661  
     117A      0.661628   118A      0.665692   119A      0.675873  
     120A      0.683759   121A      0.687601   122A      0.701132  
     123A      0.706465   124A      0.710985   125A      0.725376  
     126A      0.735296   127A      0.738244   128A      0.752982  
     129A      0.764361   130A      0.771136   131A      0.782799  
     132A      0.788852   133A      0.808098   134A      0.810133  
     135A      0.826962   136A      0.834228   137A      0.838830  
     138A      0.846165   139A      0.848891   140A      0.857649  
     141A      0.864699   142A      0.878233   143A      0.884626  
     144A      0.886988   145A      0.895991   146A      0.906895  
     147A      0.922946   148A      0.946606   149A      0.950669  
     150A      0.979822   151A      0.999106   152A      1.019035  
     153A      1.027079   154A      1.053618   155A      1.062559  
     156A      1.073870   157A      1.098721   158A      1.103225  
     159A      1.103639   160A      1.119556   161A      1.127296  
     162A      1.136303   163A      1.153005   164A      1.161163  
     165A      1.167988   166A      1.182349   167A      1.187976  
     168A      1.195602   169A      1.199600   170A      1.219712  
     171A      1.230889   172A      1.234175   173A      1.242560  
     174A      1.244859   175A      1.251792   176A      1.255967  
     177A      1.274294   178A      1.284813   179A      1.288151  
     180A      1.292392   181A      1.307333   182A      1.314140  
     183A      1.318014   184A      1.320692   185A      1.331113  
     186A      1.341376   187A      1.350164   188A      1.360280  
     189A      1.361608   190A      1.376754   191A      1.383164  
     192A      1.394850   193A      1.399065   194A      1.401099  
     195A      1.409189   196A      1.416521   197A      1.426123  
     198A      1.434659   199A      1.444630   200A      1.457326  
     201A      1.467420   202A      1.478876   203A      1.481745  
     204A      1.489628   205A      1.503119   206A      1.505598  
     207A      1.516538   208A      1.520829   209A      1.525827  
     210A      1.540299   211A      1.544661   212A      1.548357  
     213A      1.554610   214A      1.566841   215A      1.577563  
     216A      1.586117   217A      1.595528   218A      1.603316  
     219A      1.606346   220A      1.618445   221A      1.621058  
     222A      1.626910   223A      1.630992   224A      1.644516  
     225A      1.648327   226A      1.663050   227A      1.665372  
     228A      1.669979   229A      1.689804   230A      1.691886  
     231A      1.702451   232A      1.726053   233A      1.732259  
     234A      1.741659   235A      1.750275   236A      1.765132  
     237A      1.771738   238A      1.777332   239A      1.792645  
     240A      1.804313   241A      1.830880   242A      1.847426  
     243A      1.856249   244A      1.878818   245A      1.890438  
     246A      1.903033   247A      1.912363   248A      1.920779  
     249A      1.930699   250A      1.940605   251A      1.958595  
     252A      1.973428   253A      1.980288   254A      1.999230  
     255A      2.011823   256A      2.018553   257A      2.039479  
     258A      2.058767   259A      2.078143   260A      2.110033  
     261A      2.125536   262A      2.131849   263A      2.174182  
     264A      2.184416   265A      2.186098   266A      2.240548  
     267A      2.276052   268A      2.322768   269A      2.334863  
     270A      2.341252   271A      2.408439   272A      2.428010  
     273A      2.466427   274A      2.492324   275A      2.496631  
     276A      2.532389   277A      2.624828   278A      2.639467  
     279A      2.676114   280A      2.687246   281A      2.749799  
     282A      2.771622   283A      2.818171   284A      2.834705  
     285A      2.877445   286A      2.888590   287A      2.902605  
     288A      2.914970   289A      2.921254   290A      2.946817  
     291A      2.967355   292A      3.004688   293A      3.028669  
     294A      3.054810   295A      3.089707   296A      3.136485  
     297A      3.140860   298A      3.153621   299A      3.157706  
     300A      3.168818   301A      3.180956   302A      3.215032  
     303A      3.246253   304A      3.279945   305A      3.288952  
     306A      3.304638   307A      3.319759   308A      3.343001  
     309A      3.352716   310A      3.366672   311A      3.403070  
     312A      3.411013   313A      3.412768   314A      3.417161  
     315A      3.437629   316A      3.462019   317A      3.471948  
     318A      3.478025   319A      3.494901   320A      3.498573  
     321A      3.510302   322A      3.522298   323A      3.531238  
     324A      3.539748   325A      3.549340   326A      3.558723  
     327A      3.574535   328A      3.578103   329A      3.587117  
     330A      3.588141   331A      3.592195   332A      3.597892  
     333A      3.610489   334A      3.628221   335A      3.632933  
     336A      3.644337   337A      3.652167   338A      3.658652  
     339A      3.664655   340A      3.666496   341A      3.681930  
     342A      3.687905   343A      3.691939   344A      3.727032  
     345A      3.732526   346A      3.757041   347A      3.783480  
     348A      3.790146   349A      3.800207   350A      3.808715  
     351A      3.817915   352A      3.825210   353A      3.831986  
     354A      3.842888   355A      3.849741   356A      3.857947  
     357A      3.866306   358A      3.870351   359A      3.881096  
     360A      3.895239   361A      3.902722   362A      3.905317  
     363A      3.918195   364A      3.922060   365A      3.939484  
     366A      3.957383   367A      3.962072   368A      3.963525  
     369A      3.970152   370A      3.983026   371A      3.987470  
     372A      4.006703   373A      4.011541   374A      4.020187  
     375A      4.043510   376A      4.078244   377A      4.088051  
     378A      4.103344   379A      4.113863   380A      4.142520  
     381A      4.162511   382A      4.167655   383A      4.186683  
     384A      4.193218   385A      4.198926   386A      4.207184  
     387A      4.215803   388A      4.231551   389A      4.249581  
     390A      4.259324   391A      4.266868   392A      4.276380  
     393A      4.284568   394A      4.288745   395A      4.310860  
     396A      4.316900   397A      4.325059   398A      4.333224  
     399A      4.344220   400A      4.355891   401A      4.377474  
     402A      4.383853   403A      4.388994   404A      4.393606  
     405A      4.403267   406A      4.414248   407A      4.424742  
     408A      4.447350   409A      4.453369   410A      4.470386  
     411A      4.486687   412A      4.498971   413A      4.503794  
     414A      4.514577   415A      4.517487   416A      4.521824  
     417A      4.527490   418A      4.540594   419A      4.543002  
     420A      4.548785   421A      4.551142   422A      4.561780  
     423A      4.566780   424A      4.581956   425A      4.585944  
     426A      4.597939   427A      4.612058   428A      4.617298  
     429A      4.623612   430A      4.633259   431A      4.645732  
     432A      4.650823   433A      4.676326   434A      4.677221  
     435A      4.681999   436A      4.700820   437A      4.703782  
     438A      4.721647   439A      4.723031   440A      4.738765  
     441A      4.740612   442A      4.746394   443A      4.754307  
     444A      4.761276   445A      4.772318   446A      4.780678  
     447A      4.803159   448A      4.807402   449A      4.819245  
     450A      4.830102   451A      4.840313   452A      4.846635  
     453A      4.857271   454A      4.878777   455A      4.890111  
     456A      4.895930   457A      4.897654   458A      4.912359  
     459A      4.915095   460A      4.928221   461A      4.932862  
     462A      4.937097   463A      4.942854   464A      4.955050  
     465A      4.970064   466A      4.974515   467A      4.981603  
     468A      4.991364   469A      4.995885   470A      5.016243  
     471A      5.017376   472A      5.033358   473A      5.048817  
     474A      5.058735   475A      5.071293   476A      5.075860  
     477A      5.094688   478A      5.115240   479A      5.121682  
     480A      5.136275   481A      5.147331   482A      5.158146  
     483A      5.183520   484A      5.205688   485A      5.212243  
     486A      5.231950   487A      5.258267   488A      5.263263  
     489A      5.273364   490A      5.282649   491A      5.289912  
     492A      5.304836   493A      5.319794   494A      5.322501  
     495A      5.351338   496A      5.359292   497A      5.368465  
     498A      5.371808   499A      5.381263   500A      5.405738  
     501A      5.436313   502A      5.456078   503A      5.464803  
     504A      5.469842   505A      5.489323   506A      5.523453  
     507A      5.546613   508A      5.556986   509A      5.559384  
     510A      5.567200   511A      5.626402   512A      5.645720  
     513A      5.659436   514A      5.672326   515A      5.676640  
     516A      5.691986   517A      5.756587   518A      5.761627  
     519A      5.784397   520A      5.796060   521A      5.804865  
     522A      5.816401   523A      5.823099   524A      5.836639  
     525A      5.871365   526A      5.908508   527A      5.914244  
     528A      5.927096   529A      5.951805   530A      5.960960  
     531A      5.971110   532A      5.992911   533A      6.015896  
     534A      6.029062   535A      6.039548   536A      6.071734  
     537A      6.088554   538A      6.112916   539A      6.139674  
     540A      6.198760   541A      6.268796   542A      6.329838  
     543A      6.356873   544A      6.384169   545A      6.397816  
     546A      6.400545   547A      6.433622   548A      6.482881  
     549A      6.486434   550A      6.506614   551A      6.512622  
     552A      6.533370   553A      6.556590   554A      6.566342  
     555A      6.573485   556A      6.614207   557A      6.667507  
     558A      6.742316   559A      6.795823   560A      6.817312  
     561A      6.947833   562A      7.061025   563A      7.268963  
     564A      7.517784   565A      7.542753   566A      7.584604  
     567A      7.597729   568A      7.601147   569A      7.687941  
     570A      7.723376   571A      7.752893   572A      7.809751  
     573A      7.816620   574A      7.849508   575A      7.937865  
     576A      7.949107   577A      8.126696   578A      8.306833  
     579A      8.452740   580A      8.653365   581A      9.602096  
     582A      9.701350   583A      9.910573   584A      9.935675  
     585A     13.771280   586A     14.278399   587A     14.587107  
     588A     14.697061   589A     43.901948   590A     45.455051  
     591A     45.638411   592A     45.820192  

    Final Occupation by Irrep:
              A 
    DOCC [    17 ]

  @DF-RHF Final Energy:  -157.35595005613106

   => Energetics <=

    Nuclear Repulsion Energy =            131.0779293103545626
    One-Electron Energy =                -470.2646592394144704
    Two-Electron Energy =                 181.8307798729288152
    Total Energy =                       -157.3559500561310642

Computation Completed


Properties will be evaluated at   0.000000,   0.000000,   0.000000 [a0]

Properties computed using the SCF density matrix

  Nuclear Dipole Moment: [e a0]
     X:  -122.7994      Y:     0.1421      Z:    -0.6502

  Electronic Dipole Moment: [e a0]
     X:   122.7990      Y:    -0.1421      Z:     0.6501

  Dipole Moment: [e a0]
     X:    -0.0004      Y:    -0.0000      Z:    -0.0001     Total:     0.0004

  Dipole Moment: [D]
     X:    -0.0010      Y:    -0.0001      Z:    -0.0002     Total:     0.0010


*** tstop() called on r282 at Thu Sep  9 11:16:21 2021
Module time:
	user time   =      58.78 seconds =       0.98 minutes
	system time =       0.95 seconds =       0.02 minutes
	total time  =         60 seconds =       1.00 minutes
Total time:
	user time   =     234.32 seconds =       3.91 minutes
	system time =       4.02 seconds =       0.07 minutes
	total time  =        239 seconds =       3.98 minutes
  Constructing Basis Sets for SAPT...

   => Loading Basis Set <=

    Name: (JUN-CC-PVTZ AUX)
    Role: RIFIT
    Keyword: DF_BASIS_SAPT
    atoms 1, 5, 8, 11, 15, 19, 22, 25                       entry C          line   132 file /home/r08543048/miniconda3/share/psi4/basis/jun-cc-pvtz-ri.gbs 
    atoms 2-4, 6-7, 9-10, 12-14, 16-18, 20-21, 23-24, 26-28 entry H          line    30 file /home/r08543048/miniconda3/share/psi4/basis/jun-cc-pvtz-ri.gbs 


  //>>>>>>>>>>>>>>>>>>>>>>>>>>>>>>>>>>>//
  //               SAPT0               //
  //<<<<<<<<<<<<<<<<<<<<<<<<<<<<<<<<<<<//


*** tstart() called on r282
*** at Thu Sep  9 11:16:21 2021

        SAPT0  
    Ed Hohenstein
     6 June 2009

      Orbital Information
  --------------------------
    NSO        =       592
    NMO        =       592
    NRI        =      1376
    NOCC A     =        17
    NOCC B     =        17
    FOCC A     =         4
    FOCC B     =         4
    NVIR A     =       575
    NVIR B     =       575

    Elst10,r            =    -0.002037144385 [Eh]
    Exch10              =     0.006861736980 [Eh]
    Exch10 (S^2)        =     0.006851215808 [Eh]

    Iter     Energy [mEh]          dE [mEh]         Residual      Time [s]
       1      -0.43207785       0.432077847       2.643669968             2
       2      -0.52623498       0.094157134       0.474106016             4
       3      -0.52606190      -0.000173085       0.156677332             5
       4      -0.52482016      -0.001241738       0.038065906             7
       5      -0.52490056       0.000080403       0.011141361             9
       6      -0.52496209       0.000061532       0.002166439            10
       7      -0.52495613      -0.000005968       0.000626863            12
       8      -0.52495431      -0.000001818       0.000148193            13
       9      -0.52495477       0.000000466       0.000027870            15
      10      -0.52495478       0.000000007       0.000006119            17
      11      -0.52495477      -0.000000013       0.000001693            18
      12      -0.52495477      -0.000000001       0.000000455            21

    CHF Iterations converged


    Iter     Energy [mEh]          dE [mEh]         Residual      Time [s]
       1      -0.43255568       0.432555684       2.645382250             2
       2      -0.52684977       0.094294086       0.474658715             3
       3      -0.52667622      -0.000173545       0.156976432             5
       4      -0.52543129      -0.001244937       0.038126697             7
       5      -0.52551223       0.000080938       0.011155694             8
       6      -0.52557381       0.000061587       0.002168699            10
       7      -0.52556783      -0.000005986       0.000627431            11
       8      -0.52556601      -0.000001818       0.000148336            13
       9      -0.52556648       0.000000467       0.000027890            15
      10      -0.52556648       0.000000006       0.000006136            16
      11      -0.52556647      -0.000000013       0.000001703            18
      12      -0.52556647      -0.000000001       0.000000456            19

    CHF Iterations converged

    Ind20,r (A<-B)      =    -0.000524954766 [Eh]
    Ind20,r (B<-A)      =    -0.000525566468 [Eh]
    Ind20,r             =    -0.001050521234 [Eh]
    Exch-Ind20,r (A<-B) =     0.000455600176 [Eh]
    Exch-Ind20,r (B<-A) =     0.000456308380 [Eh]
    Exch-Ind20,r        =     0.000911908557 [Eh]
    Disp20              =    -0.009635259838 [Eh]
    Disp20 (SS)         =    -0.004817629919 [Eh]
    Disp20 (OS)         =    -0.004817629919 [Eh]
    Exch-Disp20         =     0.000765482596 [Eh]
    Exch-Disp20 (SS)    =     0.000503729482 [Eh]
    Exch-Disp20 (OS)    =     0.000261753114 [Eh]

    SAPT Results 
  --------------------------------------------------------------------------------------------------------
    Electrostatics                 -2.03714438 [mEh]      -1.27832740 [kcal/mol]      -5.34852185 [kJ/mol]
      Elst10,r                     -2.03714438 [mEh]      -1.27832740 [kcal/mol]      -5.34852185 [kJ/mol]

    Exchange                        6.86173698 [mEh]       4.30580496 [kcal/mol]      18.01548796 [kJ/mol]
      Exch10                        6.86173698 [mEh]       4.30580496 [kcal/mol]      18.01548796 [kJ/mol]
      Exch10(S^2)                   6.85121581 [mEh]       4.29920283 [kcal/mol]      17.98786463 [kJ/mol]

    Induction                      -0.61539145 [mEh]      -0.38616397 [kcal/mol]      -1.61571003 [kJ/mol]
      Ind20,r                      -1.05052123 [mEh]      -0.65921203 [kcal/mol]      -2.75814312 [kJ/mol]
      Exch-Ind20,r                  0.91190856 [mEh]       0.57223126 [kcal/mol]       2.39421559 [kJ/mol]
      delta HF,r (2)               -0.47677877 [mEh]      -0.29918320 [kcal/mol]      -1.25178250 [kJ/mol]

    Dispersion                     -8.86977724 [mEh]      -5.56586925 [kcal/mol]     -23.28759694 [kJ/mol]
      Disp20                       -9.63525984 [mEh]      -6.04621683 [kcal/mol]     -25.29737122 [kJ/mol]
      Exch-Disp20                   0.76548260 [mEh]       0.48034758 [kcal/mol]       2.00977428 [kJ/mol]
      Disp20 (SS)                  -4.81762992 [mEh]      -3.02310842 [kcal/mol]     -12.64868561 [kJ/mol]
      Disp20 (OS)                  -4.81762992 [mEh]      -3.02310842 [kcal/mol]     -12.64868561 [kJ/mol]
      Exch-Disp20 (SS)              0.50372948 [mEh]       0.31609502 [kcal/mol]       1.32254157 [kJ/mol]
      Exch-Disp20 (OS)              0.26175311 [mEh]       0.16425256 [kcal/mol]       0.68723271 [kJ/mol]

  Total HF                          4.20920114 [mEh]       2.64131359 [kcal/mol]      11.05125608 [kJ/mol]
  Total SAPT0                      -4.66057610 [mEh]      -2.92455566 [kcal/mol]     -12.23634086 [kJ/mol]

  Special recipe for scaled SAPT0 (see Manual):
    Electrostatics sSAPT0          -2.03714438 [mEh]      -1.27832740 [kcal/mol]      -5.34852185 [kJ/mol]
    Exchange sSAPT0                 6.86173698 [mEh]       4.30580496 [kcal/mol]      18.01548796 [kJ/mol]
    Induction sSAPT0               -0.61118384 [mEh]      -0.38352365 [kcal/mol]      -1.60466295 [kJ/mol]
    Dispersion sSAPT0              -8.86624525 [mEh]      -5.56365289 [kcal/mol]     -23.27832370 [kJ/mol]
  Total sSAPT0                     -4.65283649 [mEh]      -2.91969898 [kcal/mol]     -12.21602053 [kJ/mol]
  --------------------------------------------------------------------------------------------------------

*** tstop() called on r282 at Thu Sep  9 11:19:24 2021
Module time:
	user time   =     157.73 seconds =       2.63 minutes
	system time =      23.78 seconds =       0.40 minutes
	total time  =        183 seconds =       3.05 minutes
Total time:
	user time   =     392.23 seconds =       6.54 minutes
	system time =      27.80 seconds =       0.46 minutes
	total time  =        422 seconds =       7.03 minutes

    Psi4 stopped on: Thursday, 09 September 2021 11:19AM
    Psi4 wall time for execution: 0:07:01.85

*** Psi4 exiting successfully. Buy a developer a beer!
