
    -----------------------------------------------------------------------
          Psi4: An Open-Source Ab Initio Electronic Structure Package
                               Psi4 1.3.2 release

                         Git: Rev {HEAD} ecbda83 


    R. M. Parrish, L. A. Burns, D. G. A. Smith, A. C. Simmonett,
    A. E. DePrince III, E. G. Hohenstein, U. Bozkaya, A. Yu. Sokolov,
    R. Di Remigio, R. M. Richard, J. F. Gonthier, A. M. James,
    H. R. McAlexander, A. Kumar, M. Saitow, X. Wang, B. P. Pritchard,
    P. Verma, H. F. Schaefer III, K. Patkowski, R. A. King, E. F. Valeev,
    F. A. Evangelista, J. M. Turney, T. D. Crawford, and C. D. Sherrill,
    J. Chem. Theory Comput. 13(7) pp 3185--3197 (2017).
    (doi: 10.1021/acs.jctc.7b00174)


                         Additional Contributions by
    P. Kraus, H. Kruse, M. H. Lechner, M. C. Schieber, R. A. Shaw,
    A. Alenaizan, R. Galvelis, Z. L. Glick, S. Lehtola, and J. P. Misiewicz

    -----------------------------------------------------------------------


    Psi4 started on: Friday, 10 September 2021 09:04PM

    Process ID: 57113
    Host:       r282
    PSIDATADIR: /home/r08543048/miniconda3/share/psi4
    Memory:     500.0 MiB
    Threads:    1
    
  ==> Input File <==

--------------------------------------------------------------------------
# Any line starting with the # character is a comment line
#! Sample  computation

memory 22 gb

molecule Dimer {
0 1
 C 2.021491   -1.093909    0.040494
 C 1.471158    0.223588    0.572716
 C 1.193756    1.216441   -0.549089
 H 1.320020   -1.551954   -0.658475
 H 2.959297   -0.932381   -0.492828
 H 2.210004   -1.806504    0.843052
 H 2.181947    0.657827    1.278758
 H 0.552529    0.038867    1.133719
 H 0.809150    2.161707   -0.166278
 H 2.105130    1.428073   -1.110228
 H 0.460118    0.812704   -1.248625





 --
0 1
 C -2.115079   -0.735346   -0.475774 
 C -2.408846    0.415011    0.479865 
 H -1.146628   -1.187332   -0.263229 
 H -2.101855   -0.394629   -1.510624 
 H -2.869380   -1.517188   -0.394570 
 H -1.659961    1.201234    0.391707 
 H -2.413475    0.075488    1.515145 
 H -3.381778    0.859378    0.273199 



units angstrom

no_reorient
symmetry c1
}

set globals{
  basis jun-cc-pvtz
}

energy('sapt0')


--------------------------------------------------------------------------

  Memory set to  20.489 GiB by Python driver.

  //>>>>>>>>>>>>>>>>>>>>>>>>>>>>>>>>>>>//
  //              Dimer HF             //
  //<<<<<<<<<<<<<<<<<<<<<<<<<<<<<<<<<<<//


*** tstart() called on r282
*** at Fri Sep 10 21:04:15 2021

   => Loading Basis Set <=

    Name: JUN-CC-PVTZ
    Role: ORBITAL
    Keyword: BASIS
    atoms 1-3, 12-13  entry C          line   217 file /home/r08543048/miniconda3/share/psi4/basis/jun-cc-pvtz.gbs 
    atoms 4-11, 14-19 entry H          line    36 file /home/r08543048/miniconda3/share/psi4/basis/jun-cc-pvtz.gbs 


         ---------------------------------------------------------
                                   SCF
               by Justin Turney, Rob Parrish, Andy Simmonett
                          and Daniel G. A. Smith
                              RHF Reference
                        1 Threads,  20980 MiB Core
         ---------------------------------------------------------

  ==> Geometry <==

    Molecular point group: c1
    Full point group: C1

    Geometry (in Angstrom), charge = 0, multiplicity = 1:

       Center              X                  Y                   Z               Mass       
    ------------   -----------------  -----------------  -----------------  -----------------
         C            2.008439382347    -1.095980249769     0.035014754858    12.000000000000
         C            1.458106382347     0.221516750231     0.567236754858    12.000000000000
         C            1.180704382347     1.214369750231    -0.554568245142    12.000000000000
         H            1.306968382347    -1.554025249769    -0.663954245142     1.007825032230
         H            2.946245382347    -0.934452249769    -0.498307245142     1.007825032230
         H            2.196952382347    -1.808575249769     0.837572754858     1.007825032230
         H            2.168895382347     0.655755750231     1.273278754858     1.007825032230
         H            0.539477382347     0.036795750231     1.128239754858     1.007825032230
         H            0.796098382347     2.159635750231    -0.171757245142     1.007825032230
         H            2.092078382347     1.426001750231    -1.115707245142     1.007825032230
         H            0.447066382347     0.810632750231    -1.254104245142     1.007825032230
         C           -2.128130617653    -0.737417249769    -0.481253245142    12.000000000000
         C           -2.421897617653     0.412939750231     0.474385754858    12.000000000000
         H           -1.159679617653    -1.189403249769    -0.268708245142     1.007825032230
         H           -2.114906617653    -0.396700249769    -1.516103245142     1.007825032230
         H           -2.882431617653    -1.519259249769    -0.400049245142     1.007825032230
         H           -1.673012617653     1.199162750231     0.386227754858     1.007825032230
         H           -2.426526617653     0.073416750231     1.509665754858     1.007825032230
         H           -3.394829617653     0.857306750231     0.267719754858     1.007825032230

  Running in c1 symmetry.

  Rotational constants: A =      0.19347  B =      0.05602  C =      0.04996 [cm^-1]
  Rotational constants: A =   5800.04641  B =   1679.48257  C =   1497.66039 [MHz]
  Nuclear repulsion =  186.121270803109581

  Charge       = 0
  Multiplicity = 1
  Electrons    = 44
  Nalpha       = 22
  Nbeta        = 22

  ==> Algorithm <==

  SCF Algorithm Type is DF.
  DIIS enabled.
  MOM disabled.
  Fractional occupation disabled.
  Guess Type is SAD.
  Energy threshold   = 1.00e-08
  Density threshold  = 1.00e-08
  Integral threshold = 0.00e+00

  ==> Primary Basis <==

  Basis Set: JUN-CC-PVTZ
    Blend: JUN-CC-PVTZ
    Number of shells: 149
    Number of basis function: 391
    Number of Cartesian functions: 435
    Spherical Harmonics?: true
    Max angular momentum: 3

   => Loading Basis Set <=

    Name: (JUN-CC-PVTZ AUX)
    Role: JKFIT
    Keyword: DF_BASIS_SCF
    atoms 1-3, 12-13  entry C          line   152 file /home/r08543048/miniconda3/share/psi4/basis/jun-cc-pvtz-jkfit.gbs 
    atoms 4-11, 14-19 entry H          line    70 file /home/r08543048/miniconda3/share/psi4/basis/jun-cc-pvtz-jkfit.gbs 

  ==> Pre-Iterations <==

   -------------------------------------------------------
    Irrep   Nso     Nmo     Nalpha   Nbeta   Ndocc  Nsocc
   -------------------------------------------------------
     A        391     391       0       0       0       0
   -------------------------------------------------------
    Total     391     391      22      22      22       0
   -------------------------------------------------------

  ==> Integral Setup <==

  ==> DiskDFJK: Density-Fitted J/K Matrices <==

    J tasked:                  Yes
    K tasked:                  Yes
    wK tasked:                  No
    OpenMP threads:              1
    Integrals threads:           1
    Memory [MiB]:            15735
    Algorithm:                Core
    Integral Cache:           SAVE
    Schwarz Cutoff:          1E-12
    Fitting Condition:       1E-10

   => Auxiliary Basis Set <=

  Basis Set: (JUN-CC-PVTZ AUX)
    Blend: JUN-CC-PVTZ-JKFIT
    Number of shells: 285
    Number of basis function: 895
    Number of Cartesian functions: 1070
    Spherical Harmonics?: true
    Max angular momentum: 4

  Minimum eigenvalue in the overlap matrix is 9.9979836446E-05.
  Using Symmetric Orthogonalization.

  SCF Guess: Superposition of Atomic Densities via on-the-fly atomic UHF.

  ==> Iterations <==

                           Total Energy        Delta E     RMS |[F,P]|

   @DF-RHF iter SAD:  -196.50786399819245   -1.96508e+02   0.00000e+00 
   @DF-RHF iter   1:  -197.29422334540169   -7.86359e-01   1.71020e-03 DIIS
   @DF-RHF iter   2:  -197.51348940188265   -2.19266e-01   7.93061e-04 DIIS
   @DF-RHF iter   3:  -197.56270970190823   -4.92203e-02   1.35652e-04 DIIS
   @DF-RHF iter   4:  -197.56586652656907   -3.15682e-03   2.54098e-05 DIIS
   @DF-RHF iter   5:  -197.56595885395143   -9.23274e-05   7.80434e-06 DIIS
   @DF-RHF iter   6:  -197.56596670373355   -7.84978e-06   1.40046e-06 DIIS
   @DF-RHF iter   7:  -197.56596701148473   -3.07751e-07   2.64180e-07 DIIS
   @DF-RHF iter   8:  -197.56596702277949   -1.12948e-08   5.82904e-08 DIIS
   @DF-RHF iter   9:  -197.56596702324069   -4.61199e-10   1.75113e-08 DIIS
   @DF-RHF iter  10:  -197.56596702328903   -4.83453e-11   4.15955e-09 DIIS
  Energy and wave function converged.


  ==> Post-Iterations <==

    Orbital Energies [Eh]
    ---------------------

    Doubly Occupied:                                                      

       1A    -11.215311     2A    -11.210440     3A    -11.209717  
       4A    -11.207976     5A    -11.207726     6A     -1.054662  
       7A     -1.018789     8A     -0.925074     9A     -0.842095  
      10A     -0.800170    11A     -0.630323    12A     -0.599640  
      13A     -0.597640    14A     -0.592232    15A     -0.549649  
      16A     -0.530472    17A     -0.510011    18A     -0.487267  
      19A     -0.486850    20A     -0.475336    21A     -0.474849  
      22A     -0.467966  

    Virtual:                                                              

      23A      0.053362    24A      0.056403    25A      0.058457  
      26A      0.064321    27A      0.073593    28A      0.088710  
      29A      0.091277    30A      0.094670    31A      0.098823  
      32A      0.119500    33A      0.121288    34A      0.122295  
      35A      0.124964    36A      0.135832    37A      0.143145  
      38A      0.156597    39A      0.174628    40A      0.185872  
      41A      0.198776    42A      0.216572    43A      0.248094  
      44A      0.256189    45A      0.263063    46A      0.269179  
      47A      0.278785    48A      0.286443    49A      0.290458  
      50A      0.297730    51A      0.300780    52A      0.314099  
      53A      0.321206    54A      0.323830    55A      0.327216  
      56A      0.336630    57A      0.340890    58A      0.345423  
      59A      0.349782    60A      0.352991    61A      0.357159  
      62A      0.366409    63A      0.371525    64A      0.378376  
      65A      0.384549    66A      0.388504    67A      0.399681  
      68A      0.403862    69A      0.427840    70A      0.428786  
      71A      0.434487    72A      0.458741    73A      0.466063  
      74A      0.486496    75A      0.503874    76A      0.510127  
      77A      0.513470    78A      0.527692    79A      0.535452  
      80A      0.539635    81A      0.550903    82A      0.565469  
      83A      0.579749    84A      0.581474    85A      0.643686  
      86A      0.652516    87A      0.667899    88A      0.668884  
      89A      0.676716    90A      0.695115    91A      0.718158  
      92A      0.729488    93A      0.741607    94A      0.749524  
      95A      0.752189    96A      0.765135    97A      0.769958  
      98A      0.780409    99A      0.784977   100A      0.795413  
     101A      0.805242   102A      0.809780   103A      0.815284  
     104A      0.821973   105A      0.829236   106A      0.854011  
     107A      0.859829   108A      0.869939   109A      0.874323  
     110A      0.887346   111A      0.893904   112A      0.909525  
     113A      0.922062   114A      0.941500   115A      0.964174  
     116A      0.972947   117A      0.976641   118A      0.988976  
     119A      1.004003   120A      1.016041   121A      1.034010  
     122A      1.045769   123A      1.059751   124A      1.082788  
     125A      1.136872   126A      1.147815   127A      1.157383  
     128A      1.181817   129A      1.217031   130A      1.218904  
     131A      1.249674   132A      1.275613   133A      1.311197  
     134A      1.312822   135A      1.332246   136A      1.334335  
     137A      1.340589   138A      1.346789   139A      1.357954  
     140A      1.371300   141A      1.380344   142A      1.393259  
     143A      1.399075   144A      1.411931   145A      1.415192  
     146A      1.437463   147A      1.444603   148A      1.468934  
     149A      1.482410   150A      1.488345   151A      1.504552  
     152A      1.509338   153A      1.523829   154A      1.542202  
     155A      1.560434   156A      1.569918   157A      1.578644  
     158A      1.599839   159A      1.618055   160A      1.622313  
     161A      1.632603   162A      1.642845   163A      1.647653  
     164A      1.663959   165A      1.673663   166A      1.685454  
     167A      1.711125   168A      1.719000   169A      1.732239  
     170A      1.764757   171A      1.778621   172A      1.790008  
     173A      1.826207   174A      1.850331   175A      1.853650  
     176A      1.869537   177A      1.890450   178A      1.904503  
     179A      1.932280   180A      1.939432   181A      1.955360  
     182A      1.972022   183A      1.986659   184A      2.025404  
     185A      2.081842   186A      2.696862   187A      2.728112  
     188A      2.738190   189A      2.741495   190A      2.754188  
     191A      2.770445   192A      2.791489   193A      2.794429  
     194A      2.810099   195A      2.832032   196A      2.847098  
     197A      2.855203   198A      2.879156   199A      2.919160  
     200A      2.928229   201A      2.931351   202A      2.941256  
     203A      2.963700   204A      2.990344   205A      3.027873  
     206A      3.067289   207A      3.081876   208A      3.089240  
     209A      3.101590   210A      3.118845   211A      3.134388  
     212A      3.148509   213A      3.159994   214A      3.187146  
     215A      3.194757   216A      3.207440   217A      3.211979  
     218A      3.229310   219A      3.249806   220A      3.273550  
     221A      3.278381   222A      3.286796   223A      3.296160  
     224A      3.311509   225A      3.322144   226A      3.344177  
     227A      3.353902   228A      3.369187   229A      3.385734  
     230A      3.388088   231A      3.419437   232A      3.429443  
     233A      3.433617   234A      3.441601   235A      3.450243  
     236A      3.466987   237A      3.472727   238A      3.491623  
     239A      3.494665   240A      3.503376   241A      3.510481  
     242A      3.515468   243A      3.516344   244A      3.536340  
     245A      3.539727   246A      3.551242   247A      3.579223  
     248A      3.606305   249A      3.612019   250A      3.636408  
     251A      3.639286   252A      3.667216   253A      3.692530  
     254A      3.713592   255A      3.732542   256A      3.733855  
     257A      3.770050   258A      3.789000   259A      3.809016  
     260A      3.809441   261A      3.819481   262A      3.829147  
     263A      3.852541   264A      3.860692   265A      3.869104  
     266A      3.874805   267A      3.882982   268A      3.908700  
     269A      3.929828   270A      3.932810   271A      3.953084  
     272A      3.959836   273A      3.970733   274A      3.975477  
     275A      3.992199   276A      4.082184   277A      4.112719  
     278A      4.169826   279A      4.175743   280A      4.184889  
     281A      4.193851   282A      4.199985   283A      4.207727  
     284A      4.211425   285A      4.220642   286A      4.233156  
     287A      4.251062   288A      4.274474   289A      4.282964  
     290A      4.288557   291A      4.311470   292A      4.316735  
     293A      4.328979   294A      4.354274   295A      4.369746  
     296A      4.371067   297A      4.405051   298A      4.419567  
     299A      4.433042   300A      4.437384   301A      4.463252  
     302A      4.466939   303A      4.481207   304A      4.490846  
     305A      4.495221   306A      4.503375   307A      4.516472  
     308A      4.526058   309A      4.535812   310A      4.548347  
     311A      4.554139   312A      4.560259   313A      4.588339  
     314A      4.621789   315A      4.650151   316A      4.675774  
     317A      4.688713   318A      4.693907   319A      4.715962  
     320A      4.725628   321A      4.735229   322A      4.770557  
     323A      4.802515   324A      4.809425   325A      4.819470  
     326A      4.819954   327A      4.853228   328A      4.905808  
     329A      4.948417   330A      4.990155   331A      4.995762  
     332A      5.034644   333A      5.133161   334A      5.162012  
     335A      5.181313   336A      5.200006   337A      5.210159  
     338A      5.221369   339A      5.253963   340A      5.270414  
     341A      5.275260   342A      5.279900   343A      5.293784  
     344A      5.297175   345A      5.313832   346A      5.319302  
     347A      5.339285   348A      5.350667   349A      5.370956  
     350A      5.399701   351A      5.421687   352A      5.474171  
     353A      5.513086   354A      5.582860   355A      5.602975  
     356A      5.693621   357A      5.702733   358A      5.720230  
     359A      5.743412   360A      5.753324   361A      5.754599  
     362A      5.763577   363A      5.772896   364A      5.774040  
     365A      5.785571   366A      5.789415   367A      5.810912  
     368A      5.814623   369A      5.820570   370A      5.909608  
     371A      5.918587   372A      5.924537   373A      5.933840  
     374A      5.943008   375A      5.948530   376A      5.983382  
     377A      6.093341   378A      6.442475   379A      6.453503  
     380A      6.471800   381A      6.492349   382A      6.493705  
     383A      6.524379   384A      6.547267   385A      6.555015  
     386A      6.614331   387A     13.801966   388A     14.259375  
     389A     14.421951   390A     14.637350   391A     14.728616  

    Final Occupation by Irrep:
              A 
    DOCC [    22 ]

  @DF-RHF Final Energy:  -197.56596702328903

   => Energetics <=

    Nuclear Repulsion Energy =            186.1212708031095815
    One-Electron Energy =                -633.1860859106193402
    Two-Electron Energy =                 249.4988480842206968
    Total Energy =                       -197.5659670232890335

Computation Completed


Properties will be evaluated at   0.000000,   0.000000,   0.000000 [a0]

Properties computed using the SCF density matrix

  Nuclear Dipole Moment: [e a0]
     X:    -1.0852      Y:    -0.1722      Z:    -0.4556

  Electronic Dipole Moment: [e a0]
     X:     1.0824      Y:     0.1811      Z:     0.4852

  Dipole Moment: [e a0]
     X:    -0.0028      Y:     0.0088      Z:     0.0296     Total:     0.0310

  Dipole Moment: [D]
     X:    -0.0072      Y:     0.0225      Z:     0.0753     Total:     0.0789


*** tstop() called on r282 at Fri Sep 10 21:04:41 2021
Module time:
	user time   =      24.97 seconds =       0.42 minutes
	system time =       0.69 seconds =       0.01 minutes
	total time  =         26 seconds =       0.43 minutes
Total time:
	user time   =      24.97 seconds =       0.42 minutes
	system time =       0.69 seconds =       0.01 minutes
	total time  =         26 seconds =       0.43 minutes

  //>>>>>>>>>>>>>>>>>>>>>>>>>>>>>>>>>>>//
  //            Monomer A HF           //
  //<<<<<<<<<<<<<<<<<<<<<<<<<<<<<<<<<<<//


*** tstart() called on r282
*** at Fri Sep 10 21:04:41 2021

   => Loading Basis Set <=

    Name: JUN-CC-PVTZ
    Role: ORBITAL
    Keyword: BASIS
    atoms 1-3, 12-13  entry C          line   217 file /home/r08543048/miniconda3/share/psi4/basis/jun-cc-pvtz.gbs 
    atoms 4-11, 14-19 entry H          line    36 file /home/r08543048/miniconda3/share/psi4/basis/jun-cc-pvtz.gbs 


         ---------------------------------------------------------
                                   SCF
               by Justin Turney, Rob Parrish, Andy Simmonett
                          and Daniel G. A. Smith
                              RHF Reference
                        1 Threads,  20980 MiB Core
         ---------------------------------------------------------

  ==> Geometry <==

    Molecular point group: c1
    Full point group: C1

    Geometry (in Angstrom), charge = 0, multiplicity = 1:

       Center              X                  Y                   Z               Mass       
    ------------   -----------------  -----------------  -----------------  -----------------
         C            2.008439382347    -1.095980249769     0.035014754858    12.000000000000
         C            1.458106382347     0.221516750231     0.567236754858    12.000000000000
         C            1.180704382347     1.214369750231    -0.554568245142    12.000000000000
         H            1.306968382347    -1.554025249769    -0.663954245142     1.007825032230
         H            2.946245382347    -0.934452249769    -0.498307245142     1.007825032230
         H            2.196952382347    -1.808575249769     0.837572754858     1.007825032230
         H            2.168895382347     0.655755750231     1.273278754858     1.007825032230
         H            0.539477382347     0.036795750231     1.128239754858     1.007825032230
         H            0.796098382347     2.159635750231    -0.171757245142     1.007825032230
         H            2.092078382347     1.426001750231    -1.115707245142     1.007825032230
         H            0.447066382347     0.810632750231    -1.254104245142     1.007825032230
      Gh(C)          -2.128130617653    -0.737417249769    -0.481253245142    12.000000000000
      Gh(C)          -2.421897617653     0.412939750231     0.474385754858    12.000000000000
      Gh(H)          -1.159679617653    -1.189403249769    -0.268708245142     1.007825032230
      Gh(H)          -2.114906617653    -0.396700249769    -1.516103245142     1.007825032230
      Gh(H)          -2.882431617653    -1.519259249769    -0.400049245142     1.007825032230
      Gh(H)          -1.673012617653     1.199162750231     0.386227754858     1.007825032230
      Gh(H)          -2.426526617653     0.073416750231     1.509665754858     1.007825032230
      Gh(H)          -3.394829617653     0.857306750231     0.267719754858     1.007825032230

  Running in c1 symmetry.

  Rotational constants: A =      0.19347  B =      0.05602  C =      0.04996 [cm^-1]
  Rotational constants: A =   5800.04641  B =   1679.48257  C =   1497.66039 [MHz]
  Nuclear repulsion =   82.833372536394563

  Charge       = 0
  Multiplicity = 1
  Electrons    = 26
  Nalpha       = 13
  Nbeta        = 13

  ==> Algorithm <==

  SCF Algorithm Type is DF.
  DIIS enabled.
  MOM disabled.
  Fractional occupation disabled.
  Guess Type is SAD.
  Energy threshold   = 1.00e-08
  Density threshold  = 1.00e-08
  Integral threshold = 0.00e+00

  ==> Primary Basis <==

  Basis Set: JUN-CC-PVTZ
    Blend: JUN-CC-PVTZ
    Number of shells: 149
    Number of basis function: 391
    Number of Cartesian functions: 435
    Spherical Harmonics?: true
    Max angular momentum: 3

   => Loading Basis Set <=

    Name: (JUN-CC-PVTZ AUX)
    Role: JKFIT
    Keyword: DF_BASIS_SCF
    atoms 1-3, 12-13  entry C          line   152 file /home/r08543048/miniconda3/share/psi4/basis/jun-cc-pvtz-jkfit.gbs 
    atoms 4-11, 14-19 entry H          line    70 file /home/r08543048/miniconda3/share/psi4/basis/jun-cc-pvtz-jkfit.gbs 

  ==> Pre-Iterations <==

   -------------------------------------------------------
    Irrep   Nso     Nmo     Nalpha   Nbeta   Ndocc  Nsocc
   -------------------------------------------------------
     A        391     391       0       0       0       0
   -------------------------------------------------------
    Total     391     391      13      13      13       0
   -------------------------------------------------------

  ==> Integral Setup <==

  ==> DiskDFJK: Density-Fitted J/K Matrices <==

    J tasked:                  Yes
    K tasked:                  Yes
    wK tasked:                  No
    OpenMP threads:              1
    Integrals threads:           1
    Memory [MiB]:            15735
    Algorithm:                Core
    Integral Cache:           LOAD
    Schwarz Cutoff:          1E-12
    Fitting Condition:       1E-10

   => Auxiliary Basis Set <=

  Basis Set: (JUN-CC-PVTZ AUX)
    Blend: JUN-CC-PVTZ-JKFIT
    Number of shells: 285
    Number of basis function: 895
    Number of Cartesian functions: 1070
    Spherical Harmonics?: true
    Max angular momentum: 4

  Minimum eigenvalue in the overlap matrix is 9.9979836446E-05.
  Using Symmetric Orthogonalization.

  SCF Guess: Superposition of Atomic Densities via on-the-fly atomic UHF.

  ==> Iterations <==

                           Total Energy        Delta E     RMS |[F,P]|

   @DF-RHF iter SAD:  -117.72670252119298   -1.17727e+02   0.00000e+00 
   @DF-RHF iter   1:  -118.14632681870373   -4.19624e-01   1.31835e-03 DIIS
   @DF-RHF iter   2:  -118.27571984255000   -1.29393e-01   6.23840e-04 DIIS
   @DF-RHF iter   3:  -118.30615863571576   -3.04388e-02   1.04788e-04 DIIS
   @DF-RHF iter   4:  -118.30801042706226   -1.85179e-03   2.06497e-05 DIIS
   @DF-RHF iter   5:  -118.30806868332093   -5.82563e-05   5.80798e-06 DIIS
   @DF-RHF iter   6:  -118.30807329639966   -4.61308e-06   1.04397e-06 DIIS
   @DF-RHF iter   7:  -118.30807346783995   -1.71440e-07   1.96718e-07 DIIS
   @DF-RHF iter   8:  -118.30807347533991   -7.49996e-09   3.44810e-08 DIIS
   @DF-RHF iter   9:  -118.30807347557375   -2.33840e-10   6.79976e-09 DIIS
  Energy and wave function converged.


  ==> Post-Iterations <==

    Orbital Energies [Eh]
    ---------------------

    Doubly Occupied:                                                      

       1A    -11.215591     2A    -11.207836     3A    -11.207788  
       4A     -1.054129     5A     -0.924672     6A     -0.799900  
       7A     -0.624772     8A     -0.598419     9A     -0.549262  
      10A     -0.530055    11A     -0.475785    12A     -0.474762  
      13A     -0.468064  

    Virtual:                                                              

      14A      0.039007    15A      0.050149    16A      0.055863  
      17A      0.058921    18A      0.071266    19A      0.083151  
      20A      0.087398    21A      0.093059    22A      0.098784  
      23A      0.109071    24A      0.116288    25A      0.120252  
      26A      0.122329    27A      0.126739    28A      0.139398  
      29A      0.153920    30A      0.160595    31A      0.169882  
      32A      0.192025    33A      0.208977    34A      0.215076  
      35A      0.234592    36A      0.245039    37A      0.265050  
      38A      0.273080    39A      0.282610    40A      0.289082  
      41A      0.295167    42A      0.300001    43A      0.306756  
      44A      0.314358    45A      0.319812    46A      0.331114  
      47A      0.339901    48A      0.346094    49A      0.348385  
      50A      0.352071    51A      0.358545    52A      0.367251  
      53A      0.374852    54A      0.376834    55A      0.387873  
      56A      0.391756    57A      0.397679    58A      0.413808  
      59A      0.417856    60A      0.429840    61A      0.431311  
      62A      0.439102    63A      0.449324    64A      0.475622  
      65A      0.484069    66A      0.494668    67A      0.513036  
      68A      0.517948    69A      0.529154    70A      0.533211  
      71A      0.547497    72A      0.550710    73A      0.566950  
      74A      0.574790    75A      0.580788    76A      0.600340  
      77A      0.610788    78A      0.635821    79A      0.637707  
      80A      0.654648    81A      0.660122    82A      0.670070  
      83A      0.682639    84A      0.690543    85A      0.709493  
      86A      0.755345    87A      0.759861    88A      0.766964  
      89A      0.780053    90A      0.791386    91A      0.796490  
      92A      0.803534    93A      0.812331    94A      0.826022  
      95A      0.876513    96A      0.876825    97A      0.887037  
      98A      0.900120    99A      0.916978   100A      0.945871  
     101A      0.973387   102A      0.992796   103A      0.995325  
     104A      1.001748   105A      1.043354   106A      1.059154  
     107A      1.072865   108A      1.085518   109A      1.103836  
     110A      1.118103   111A      1.126624   112A      1.136949  
     113A      1.141740   114A      1.148322   115A      1.160637  
     116A      1.191635   117A      1.197134   118A      1.203666  
     119A      1.221457   120A      1.232452   121A      1.246575  
     122A      1.257686   123A      1.274803   124A      1.294311  
     125A      1.300326   126A      1.319437   127A      1.330159  
     128A      1.342863   129A      1.350290   130A      1.363335  
     131A      1.370022   132A      1.388131   133A      1.395698  
     134A      1.404807   135A      1.412093   136A      1.429813  
     137A      1.451066   138A      1.458168   139A      1.466714  
     140A      1.482447   141A      1.504514   142A      1.515278  
     143A      1.527278   144A      1.543546   145A      1.555512  
     146A      1.563893   147A      1.580929   148A      1.581810  
     149A      1.593056   150A      1.600200   151A      1.623952  
     152A      1.628585   153A      1.636379   154A      1.648240  
     155A      1.673830   156A      1.700053   157A      1.711420  
     158A      1.727105   159A      1.747412   160A      1.759289  
     161A      1.773228   162A      1.808246   163A      1.810515  
     164A      1.826993   165A      1.840616   166A      1.876138  
     167A      1.879366   168A      1.934906   169A      1.948355  
     170A      1.955478   171A      1.973894   172A      1.999816  
     173A      2.012482   174A      2.071035   175A      2.084593  
     176A      2.116132   177A      2.241311   178A      2.296780  
     179A      2.332044   180A      2.405924   181A      2.412824  
     182A      2.515167   183A      2.556329   184A      2.742117  
     185A      2.754984   186A      2.778767   187A      2.804470  
     188A      2.838782   189A      2.863065   190A      2.913594  
     191A      2.927251   192A      2.941512   193A      2.961092  
     194A      2.971654   195A      3.029556   196A      3.085577  
     197A      3.094201   198A      3.131949   199A      3.153104  
     200A      3.161378   201A      3.199271   202A      3.252160  
     203A      3.273958   204A      3.282524   205A      3.308473  
     206A      3.322567   207A      3.367467   208A      3.372642  
     209A      3.387070   210A      3.419026   211A      3.436862  
     212A      3.444376   213A      3.468717   214A      3.476337  
     215A      3.482181   216A      3.487873   217A      3.504795  
     218A      3.523630   219A      3.526549   220A      3.533040  
     221A      3.547733   222A      3.560512   223A      3.563209  
     224A      3.566488   225A      3.590694   226A      3.601839  
     227A      3.612483   228A      3.646548   229A      3.651194  
     230A      3.662814   231A      3.678260   232A      3.717814  
     233A      3.721882   234A      3.757772   235A      3.780784  
     236A      3.787974   237A      3.796821   238A      3.797577  
     239A      3.811235   240A      3.824851   241A      3.833046  
     242A      3.844353   243A      3.868444   244A      3.874852  
     245A      3.925875   246A      3.928666   247A      3.932968  
     248A      3.939080   249A      3.949117   250A      3.959604  
     251A      3.972943   252A      4.036072   253A      4.077088  
     254A      4.082131   255A      4.096557   256A      4.110985  
     257A      4.130845   258A      4.165034   259A      4.176859  
     260A      4.196661   261A      4.197542   262A      4.212017  
     263A      4.229912   264A      4.242368   265A      4.300019  
     266A      4.310005   267A      4.316887   268A      4.329950  
     269A      4.340555   270A      4.345401   271A      4.355791  
     272A      4.374384   273A      4.382897   274A      4.417489  
     275A      4.426620   276A      4.435217   277A      4.454762  
     278A      4.455461   279A      4.468658   280A      4.490533  
     281A      4.506126   282A      4.510425   283A      4.515143  
     284A      4.521412   285A      4.534354   286A      4.543586  
     287A      4.552542   288A      4.561637   289A      4.575794  
     290A      4.596609   291A      4.607480   292A      4.616988  
     293A      4.654701   294A      4.682443   295A      4.698866  
     296A      4.711753   297A      4.720021   298A      4.721604  
     299A      4.734582   300A      4.741689   301A      4.768355  
     302A      4.781422   303A      4.794770   304A      4.803733  
     305A      4.822717   306A      4.838326   307A      4.853159  
     308A      4.858735   309A      4.873902   310A      4.899006  
     311A      4.916058   312A      4.931349   313A      4.954710  
     314A      4.965110   315A      4.983019   316A      4.994457  
     317A      5.006093   318A      5.010574   319A      5.026128  
     320A      5.040962   321A      5.047683   322A      5.085989  
     323A      5.136198   324A      5.154528   325A      5.169186  
     326A      5.201566   327A      5.246662   328A      5.267173  
     329A      5.278470   330A      5.282141   331A      5.302530  
     332A      5.330309   333A      5.385669   334A      5.398611  
     335A      5.403068   336A      5.417005   337A      5.432366  
     338A      5.479226   339A      5.514988   340A      5.584290  
     341A      5.602666   342A      5.642067   343A      5.655723  
     344A      5.714724   345A      5.724403   346A      5.733983  
     347A      5.751270   348A      5.758088   349A      5.780422  
     350A      5.797783   351A      5.809823   352A      5.819500  
     353A      5.921835   354A      5.926782   355A      5.946112  
     356A      5.975840   357A      6.001143   358A      6.005990  
     359A      6.090621   360A      6.226931   361A      6.319267  
     362A      6.330681   363A      6.360297   364A      6.366914  
     365A      6.400524   366A      6.451307   367A      6.455999  
     368A      6.474056   369A      6.514529   370A      6.534451  
     371A      6.553910   372A      6.593103   373A      6.803780  
     374A      6.898524   375A      7.351579   376A      7.491547  
     377A      7.511698   378A      7.646659   379A      7.682214  
     380A      7.793152   381A      7.799277   382A      7.894015  
     383A      7.909513   384A      8.262011   385A      9.724541  
     386A      9.919913   387A     13.830428   388A     14.422417  
     389A     14.684050   390A     45.099966   391A     45.601106  

    Final Occupation by Irrep:
              A 
    DOCC [    13 ]

  @DF-RHF Final Energy:  -118.30807347557375

   => Energetics <=

    Nuclear Repulsion Energy =             82.8333725363945632
    One-Electron Energy =                -322.0208217951766869
    Two-Electron Energy =                 120.8793757832083742
    Total Energy =                       -118.3080734755737495

Computation Completed


Properties will be evaluated at   0.000000,   0.000000,   0.000000 [a0]

Properties computed using the SCF density matrix

  Nuclear Dipole Moment: [e a0]
     X:    76.3020      Y:     5.3502      Z:    -0.3376

  Electronic Dipole Moment: [e a0]
     X:   -76.3066      Y:    -5.3438      Z:     0.3693

  Dipole Moment: [e a0]
     X:    -0.0046      Y:     0.0064      Z:     0.0318     Total:     0.0327

  Dipole Moment: [D]
     X:    -0.0118      Y:     0.0162      Z:     0.0807     Total:     0.0832


*** tstop() called on r282 at Fri Sep 10 21:04:52 2021
Module time:
	user time   =      10.84 seconds =       0.18 minutes
	system time =       0.30 seconds =       0.01 minutes
	total time  =         11 seconds =       0.18 minutes
Total time:
	user time   =      35.81 seconds =       0.60 minutes
	system time =       0.99 seconds =       0.02 minutes
	total time  =         37 seconds =       0.62 minutes

  //>>>>>>>>>>>>>>>>>>>>>>>>>>>>>>>>>>>//
  //            Monomer B HF           //
  //<<<<<<<<<<<<<<<<<<<<<<<<<<<<<<<<<<<//


*** tstart() called on r282
*** at Fri Sep 10 21:04:52 2021

   => Loading Basis Set <=

    Name: JUN-CC-PVTZ
    Role: ORBITAL
    Keyword: BASIS
    atoms 1-3, 12-13  entry C          line   217 file /home/r08543048/miniconda3/share/psi4/basis/jun-cc-pvtz.gbs 
    atoms 4-11, 14-19 entry H          line    36 file /home/r08543048/miniconda3/share/psi4/basis/jun-cc-pvtz.gbs 


         ---------------------------------------------------------
                                   SCF
               by Justin Turney, Rob Parrish, Andy Simmonett
                          and Daniel G. A. Smith
                              RHF Reference
                        1 Threads,  20980 MiB Core
         ---------------------------------------------------------

  ==> Geometry <==

    Molecular point group: c1
    Full point group: C1

    Geometry (in Angstrom), charge = 0, multiplicity = 1:

       Center              X                  Y                   Z               Mass       
    ------------   -----------------  -----------------  -----------------  -----------------
      Gh(C)           2.008439382347    -1.095980249769     0.035014754858    12.000000000000
      Gh(C)           1.458106382347     0.221516750231     0.567236754858    12.000000000000
      Gh(C)           1.180704382347     1.214369750231    -0.554568245142    12.000000000000
      Gh(H)           1.306968382347    -1.554025249769    -0.663954245142     1.007825032230
      Gh(H)           2.946245382347    -0.934452249769    -0.498307245142     1.007825032230
      Gh(H)           2.196952382347    -1.808575249769     0.837572754858     1.007825032230
      Gh(H)           2.168895382347     0.655755750231     1.273278754858     1.007825032230
      Gh(H)           0.539477382347     0.036795750231     1.128239754858     1.007825032230
      Gh(H)           0.796098382347     2.159635750231    -0.171757245142     1.007825032230
      Gh(H)           2.092078382347     1.426001750231    -1.115707245142     1.007825032230
      Gh(H)           0.447066382347     0.810632750231    -1.254104245142     1.007825032230
         C           -2.128130617653    -0.737417249769    -0.481253245142    12.000000000000
         C           -2.421897617653     0.412939750231     0.474385754858    12.000000000000
         H           -1.159679617653    -1.189403249769    -0.268708245142     1.007825032230
         H           -2.114906617653    -0.396700249769    -1.516103245142     1.007825032230
         H           -2.882431617653    -1.519259249769    -0.400049245142     1.007825032230
         H           -1.673012617653     1.199162750231     0.386227754858     1.007825032230
         H           -2.426526617653     0.073416750231     1.509665754858     1.007825032230
         H           -3.394829617653     0.857306750231     0.267719754858     1.007825032230

  Running in c1 symmetry.

  Rotational constants: A =      0.19347  B =      0.05602  C =      0.04996 [cm^-1]
  Rotational constants: A =   5800.04641  B =   1679.48257  C =   1497.66039 [MHz]
  Nuclear repulsion =   42.340127703319638

  Charge       = 0
  Multiplicity = 1
  Electrons    = 18
  Nalpha       = 9
  Nbeta        = 9

  ==> Algorithm <==

  SCF Algorithm Type is DF.
  DIIS enabled.
  MOM disabled.
  Fractional occupation disabled.
  Guess Type is SAD.
  Energy threshold   = 1.00e-08
  Density threshold  = 1.00e-08
  Integral threshold = 0.00e+00

  ==> Primary Basis <==

  Basis Set: JUN-CC-PVTZ
    Blend: JUN-CC-PVTZ
    Number of shells: 149
    Number of basis function: 391
    Number of Cartesian functions: 435
    Spherical Harmonics?: true
    Max angular momentum: 3

   => Loading Basis Set <=

    Name: (JUN-CC-PVTZ AUX)
    Role: JKFIT
    Keyword: DF_BASIS_SCF
    atoms 1-3, 12-13  entry C          line   152 file /home/r08543048/miniconda3/share/psi4/basis/jun-cc-pvtz-jkfit.gbs 
    atoms 4-11, 14-19 entry H          line    70 file /home/r08543048/miniconda3/share/psi4/basis/jun-cc-pvtz-jkfit.gbs 

  ==> Pre-Iterations <==

   -------------------------------------------------------
    Irrep   Nso     Nmo     Nalpha   Nbeta   Ndocc  Nsocc
   -------------------------------------------------------
     A        391     391       0       0       0       0
   -------------------------------------------------------
    Total     391     391       9       9       9       0
   -------------------------------------------------------

  ==> Integral Setup <==

  ==> DiskDFJK: Density-Fitted J/K Matrices <==

    J tasked:                  Yes
    K tasked:                  Yes
    wK tasked:                  No
    OpenMP threads:              1
    Integrals threads:           1
    Memory [MiB]:            15735
    Algorithm:                Core
    Integral Cache:           LOAD
    Schwarz Cutoff:          1E-12
    Fitting Condition:       1E-10

   => Auxiliary Basis Set <=

  Basis Set: (JUN-CC-PVTZ AUX)
    Blend: JUN-CC-PVTZ-JKFIT
    Number of shells: 285
    Number of basis function: 895
    Number of Cartesian functions: 1070
    Spherical Harmonics?: true
    Max angular momentum: 4

  Minimum eigenvalue in the overlap matrix is 9.9979836446E-05.
  Using Symmetric Orthogonalization.

  SCF Guess: Superposition of Atomic Densities via on-the-fly atomic UHF.

  ==> Iterations <==

                           Total Energy        Delta E     RMS |[F,P]|

   @DF-RHF iter SAD:   -78.66013399110501   -7.86601e+01   0.00000e+00 
   @DF-RHF iter   1:   -79.14809609778753   -4.87962e-01   1.11079e-03 DIIS
   @DF-RHF iter   2:   -79.23891987675179   -9.08238e-02   5.07202e-04 DIIS
   @DF-RHF iter   3:   -79.25885326399479   -1.99334e-02   8.29336e-05 DIIS
   @DF-RHF iter   4:   -79.26011869136435   -1.26543e-03   1.15031e-05 DIIS
   @DF-RHF iter   5:   -79.26014652699003   -2.78356e-05   2.05684e-06 DIIS
   @DF-RHF iter   6:   -79.26014736803620   -8.41046e-07   2.46874e-07 DIIS
   @DF-RHF iter   7:   -79.26014738088818   -1.28520e-08   2.74787e-08 DIIS
   @DF-RHF iter   8:   -79.26014738102182   -1.33639e-10   4.95973e-09 DIIS
  Energy and wave function converged.


  ==> Post-Iterations <==

    Orbital Energies [Eh]
    ---------------------

    Doubly Occupied:                                                      

       1A    -11.210512     2A    -11.209900     3A     -1.018483  
       4A     -0.841615     5A     -0.597104     6A     -0.597033  
       7A     -0.509817     8A     -0.486618     9A     -0.486544  

    Virtual:                                                              

      10A      0.034247    11A      0.047749    12A      0.052798  
      13A      0.061929    14A      0.070606    15A      0.085031  
      16A      0.088413    17A      0.091080    18A      0.094690  
      19A      0.109248    20A      0.116646    21A      0.120157  
      22A      0.121972    23A      0.124106    24A      0.140090  
      25A      0.150028    26A      0.153766    27A      0.158042  
      28A      0.168431    29A      0.198117    30A      0.216573  
      31A      0.238382    32A      0.255761    33A      0.264691  
      34A      0.274457    35A      0.277473    36A      0.286172  
      37A      0.298406    38A      0.306030    39A      0.310982  
      40A      0.313922    41A      0.320157    42A      0.329009  
      43A      0.332912    44A      0.337010    45A      0.345559  
      46A      0.351493    47A      0.357335    48A      0.361262  
      49A      0.364789    50A      0.376562    51A      0.379829  
      52A      0.390851    53A      0.400099    54A      0.411337  
      55A      0.415164    56A      0.425699    57A      0.438483  
      58A      0.448146    59A      0.471627    60A      0.482726  
      61A      0.486645    62A      0.493154    63A      0.511162  
      64A      0.514971    65A      0.520840    66A      0.541306  
      67A      0.560242    68A      0.566771    69A      0.574026  
      70A      0.584236    71A      0.596782    72A      0.604020  
      73A      0.606491    74A      0.624569    75A      0.646057  
      76A      0.653652    77A      0.662451    78A      0.675258  
      79A      0.687767    80A      0.689930    81A      0.717332  
      82A      0.741111    83A      0.755120    84A      0.756704  
      85A      0.765720    86A      0.787835    87A      0.790743  
      88A      0.801767    89A      0.813419    90A      0.842007  
      91A      0.852450    92A      0.877332    93A      0.883830  
      94A      0.889578    95A      0.962115    96A      0.971307  
      97A      0.979133    98A      1.005133    99A      1.029030  
     100A      1.049134   101A      1.064319   102A      1.078303  
     103A      1.093901   104A      1.112023   105A      1.121182  
     106A      1.134170   107A      1.146212   108A      1.153287  
     109A      1.175687   110A      1.185016   111A      1.192810  
     112A      1.211002   113A      1.217546   114A      1.245609  
     115A      1.257537   116A      1.274574   117A      1.280798  
     118A      1.289358   119A      1.294171   120A      1.322321  
     121A      1.335334   122A      1.337705   123A      1.346703  
     124A      1.352695   125A      1.359632   126A      1.364723  
     127A      1.383901   128A      1.391543   129A      1.408305  
     130A      1.416180   131A      1.426344   132A      1.441714  
     133A      1.446296   134A      1.461570   135A      1.476241  
     136A      1.485397   137A      1.496969   138A      1.505325  
     139A      1.509766   140A      1.539782   141A      1.553286  
     142A      1.565680   143A      1.578219   144A      1.596971  
     145A      1.604051   146A      1.617268   147A      1.630048  
     148A      1.644715   149A      1.668415   150A      1.672412  
     151A      1.675989   152A      1.700111   153A      1.728815  
     154A      1.736319   155A      1.750827   156A      1.764523  
     157A      1.782439   158A      1.800864   159A      1.838311  
     160A      1.869477   161A      1.874762   162A      1.890657  
     163A      1.911994   164A      1.933282   165A      1.973695  
     166A      1.998835   167A      2.015037   168A      2.042529  
     169A      2.082943   170A      2.125602   171A      2.159283  
     172A      2.181664   173A      2.200923   174A      2.332487  
     175A      2.372532   176A      2.386592   177A      2.406063  
     178A      2.451277   179A      2.485113   180A      2.546455  
     181A      2.593327   182A      2.594197   183A      2.741376  
     184A      2.750161   185A      2.758308   186A      2.809207  
     187A      2.830022   188A      2.864221   189A      2.881561  
     190A      2.949925   191A      3.080092   192A      3.099731  
     193A      3.124885   194A      3.188507   195A      3.191591  
     196A      3.206055   197A      3.231643   198A      3.275307  
     199A      3.292842   200A      3.334079   201A      3.340009  
     202A      3.419688   203A      3.431362   204A      3.444400  
     205A      3.456177   206A      3.491392   207A      3.496928  
     208A      3.513474   209A      3.520269   210A      3.525350  
     211A      3.538370   212A      3.558405   213A      3.565563  
     214A      3.577721   215A      3.583892   216A      3.593937  
     217A      3.607808   218A      3.627364   219A      3.636223  
     220A      3.660911   221A      3.671033   222A      3.715374  
     223A      3.730024   224A      3.739631   225A      3.755125  
     226A      3.772825   227A      3.801502   228A      3.809274  
     229A      3.817390   230A      3.834896   231A      3.853594  
     232A      3.859350   233A      3.869377   234A      3.874122  
     235A      3.893069   236A      3.905766   237A      3.908493  
     238A      3.917921   239A      3.938582   240A      3.945425  
     241A      3.959149   242A      3.986639   243A      4.048991  
     244A      4.061469   245A      4.091843   246A      4.128682  
     247A      4.159756   248A      4.165871   249A      4.177614  
     250A      4.187889   251A      4.197658   252A      4.205313  
     253A      4.211055   254A      4.225333   255A      4.240294  
     256A      4.248436   257A      4.282731   258A      4.284253  
     259A      4.315987   260A      4.349275   261A      4.365810  
     262A      4.370450   263A      4.389981   264A      4.410802  
     265A      4.427549   266A      4.438939   267A      4.468256  
     268A      4.470211   269A      4.485004   270A      4.489155  
     271A      4.505750   272A      4.511886   273A      4.517175  
     274A      4.521862   275A      4.540080   276A      4.543309  
     277A      4.556247   278A      4.595615   279A      4.609783  
     280A      4.622377   281A      4.630367   282A      4.666228  
     283A      4.671372   284A      4.689951   285A      4.695924  
     286A      4.704063   287A      4.713531   288A      4.728450  
     289A      4.743763   290A      4.761519   291A      4.770377  
     292A      4.797795   293A      4.804223   294A      4.809211  
     295A      4.812615   296A      4.820542   297A      4.837079  
     298A      4.846536   299A      4.850726   300A      4.864266  
     301A      4.890106   302A      4.905651   303A      4.915210  
     304A      4.928786   305A      4.941899   306A      4.950570  
     307A      4.963906   308A      4.966528   309A      4.983006  
     310A      5.006648   311A      5.031505   312A      5.038619  
     313A      5.079405   314A      5.123824   315A      5.127911  
     316A      5.152494   317A      5.179415   318A      5.191047  
     319A      5.204957   320A      5.224012   321A      5.241911  
     322A      5.267484   323A      5.286578   324A      5.299861  
     325A      5.317805   326A      5.326620   327A      5.349594  
     328A      5.371688   329A      5.380465   330A      5.408622  
     331A      5.486952   332A      5.597737   333A      5.606995  
     334A      5.617528   335A      5.623574   336A      5.627595  
     337A      5.698043   338A      5.704278   339A      5.763213  
     340A      5.765624   341A      5.774245   342A      5.780458  
     343A      5.803828   344A      5.831348   345A      5.897977  
     346A      5.916747   347A      5.920618   348A      5.937957  
     349A      5.961875   350A      6.017824   351A      6.048465  
     352A      6.180246   353A      6.194955   354A      6.254278  
     355A      6.338243   356A      6.344571   357A      6.372521  
     358A      6.417208   359A      6.428664   360A      6.456725  
     361A      6.459267   362A      6.476919   363A      6.500074  
     364A      6.505432   365A      6.552960   366A      6.610494  
     367A      6.763127   368A      6.899250   369A      6.985927  
     370A      7.299526   371A      7.478078   372A      7.553546  
     373A      7.590083   374A      7.627335   375A      7.686175  
     376A      7.692720   377A      7.800230   378A      7.827023  
     379A      7.860665   380A      7.906661   381A      8.044183  
     382A      8.189898   383A      8.485646   384A      9.560065  
     385A      9.863713   386A      9.923686   387A     14.253848  
     388A     14.664492   389A     44.267367   390A     45.294895  
     391A     45.804370  

    Final Occupation by Irrep:
              A 
    DOCC [     9 ]

  @DF-RHF Final Energy:   -79.26014738102182

   => Energetics <=

    Nuclear Repulsion Energy =             42.3401277033196379
    One-Electron Energy =                -189.2852988157110019
    Two-Electron Energy =                  67.6850237313695402
    Total Energy =                        -79.2601473810218238

Computation Completed


Properties will be evaluated at   0.000000,   0.000000,   0.000000 [a0]

Properties computed using the SCF density matrix

  Nuclear Dipole Moment: [e a0]
     X:   -77.3872      Y:    -5.5224      Z:    -0.1180

  Electronic Dipole Moment: [e a0]
     X:    77.3867      Y:     5.5224      Z:     0.1181

  Dipole Moment: [e a0]
     X:    -0.0005      Y:    -0.0000      Z:     0.0001     Total:     0.0005

  Dipole Moment: [D]
     X:    -0.0014      Y:    -0.0001      Z:     0.0002     Total:     0.0014


*** tstop() called on r282 at Fri Sep 10 21:05:04 2021
Module time:
	user time   =      11.10 seconds =       0.19 minutes
	system time =       0.26 seconds =       0.00 minutes
	total time  =         12 seconds =       0.20 minutes
Total time:
	user time   =      46.91 seconds =       0.78 minutes
	system time =       1.25 seconds =       0.02 minutes
	total time  =         49 seconds =       0.82 minutes
  Constructing Basis Sets for SAPT...

   => Loading Basis Set <=

    Name: (JUN-CC-PVTZ AUX)
    Role: RIFIT
    Keyword: DF_BASIS_SAPT
    atoms 1-3, 12-13  entry C          line   132 file /home/r08543048/miniconda3/share/psi4/basis/jun-cc-pvtz-ri.gbs 
    atoms 4-11, 14-19 entry H          line    30 file /home/r08543048/miniconda3/share/psi4/basis/jun-cc-pvtz-ri.gbs 


  //>>>>>>>>>>>>>>>>>>>>>>>>>>>>>>>>>>>//
  //               SAPT0               //
  //<<<<<<<<<<<<<<<<<<<<<<<<<<<<<<<<<<<//


*** tstart() called on r282
*** at Fri Sep 10 21:05:04 2021

        SAPT0  
    Ed Hohenstein
     6 June 2009

      Orbital Information
  --------------------------
    NSO        =       391
    NMO        =       391
    NRI        =       905
    NOCC A     =        13
    NOCC B     =         9
    FOCC A     =         0
    FOCC B     =         0
    NVIR A     =       378
    NVIR B     =       382

    Elst10,r            =    -0.001231365596 [Eh]
    Exch10              =     0.003800106311 [Eh]
    Exch10 (S^2)        =     0.003794338616 [Eh]

    Iter     Energy [mEh]          dE [mEh]         Residual      Time [s]
       1      -0.22062188       0.220621884       1.804805253             1
       2      -0.26467099       0.044049110       0.257352240             1
       3      -0.26432998      -0.000341014       0.078489654             2
       4      -0.26392639      -0.000403593       0.016799230             2
       5      -0.26395278       0.000026389       0.004835514             3
       6      -0.26396863       0.000015855       0.000940733             3
       7      -0.26396625      -0.000002386       0.000246131             3
       8      -0.26396590      -0.000000348       0.000060775             4
       9      -0.26396604       0.000000142       0.000011699             4
      10      -0.26396603      -0.000000006       0.000002746             5
      11      -0.26396603      -0.000000003       0.000000720             5

    CHF Iterations converged


    Iter     Energy [mEh]          dE [mEh]         Residual      Time [s]
       1      -0.24989096       0.249890963       1.950451512             1
       2      -0.30194494       0.052053978       0.304951991             1
       3      -0.30160971      -0.000335234       0.097573129             1
       4      -0.30104253      -0.000567174       0.020178018             2
       5      -0.30111453       0.000071995       0.004524683             2
       6      -0.30112195       0.000007425       0.000825706             3
       7      -0.30111891      -0.000003041       0.000150985             3
       8      -0.30111910       0.000000185       0.000045130             3
       9      -0.30111918       0.000000082       0.000009860             4
      10      -0.30111916      -0.000000016       0.000001612             4
      11      -0.30111916      -0.000000000       0.000000334             5

    CHF Iterations converged

    Ind20,r (A<-B)      =    -0.000263966031 [Eh]
    Ind20,r (B<-A)      =    -0.000301119162 [Eh]
    Ind20,r             =    -0.000565085193 [Eh]
    Exch-Ind20,r (A<-B) =     0.000226716260 [Eh]
    Exch-Ind20,r (B<-A) =     0.000270585831 [Eh]
    Exch-Ind20,r        =     0.000497302091 [Eh]
    Disp20              =    -0.005223208370 [Eh]
    Disp20 (SS)         =    -0.002611604185 [Eh]
    Disp20 (OS)         =    -0.002611604185 [Eh]
    Exch-Disp20         =     0.000409762525 [Eh]
    Exch-Disp20 (SS)    =     0.000269290689 [Eh]
    Exch-Disp20 (OS)    =     0.000140471836 [Eh]

    SAPT Results 
  --------------------------------------------------------------------------------------------------------
    Electrostatics                 -1.23136560 [mEh]      -0.77269358 [kcal/mol]      -3.23294993 [kJ/mol]
      Elst10,r                     -1.23136560 [mEh]      -0.77269358 [kcal/mol]      -3.23294993 [kJ/mol]

    Exchange                        3.80010631 [mEh]       2.38460271 [kcal/mol]       9.97717775 [kJ/mol]
      Exch10                        3.80010631 [mEh]       2.38460271 [kcal/mol]       9.97717775 [kJ/mol]
      Exch10(S^2)                   3.79433862 [mEh]       2.38098343 [kcal/mol]       9.96203466 [kJ/mol]

    Induction                      -0.31490741 [mEh]      -0.19760738 [kcal/mol]      -0.82678929 [kJ/mol]
      Ind20,r                      -0.56508519 [mEh]      -0.35459631 [kcal/mol]      -1.48363097 [kJ/mol]
      Exch-Ind20,r                  0.49730209 [mEh]       0.31206177 [kcal/mol]       1.30566646 [kJ/mol]
      delta HF,r (2)               -0.24712431 [mEh]      -0.15507284 [kcal/mol]      -0.64882478 [kJ/mol]

    Dispersion                     -4.81344585 [mEh]      -3.02048287 [kcal/mol]     -12.63770033 [kJ/mol]
      Disp20                       -5.22320837 [mEh]      -3.27761274 [kcal/mol]     -13.71353169 [kJ/mol]
      Exch-Disp20                   0.40976252 [mEh]       0.25712987 [kcal/mol]       1.07583136 [kJ/mol]
      Disp20 (SS)                  -2.61160419 [mEh]      -1.63880637 [kcal/mol]      -6.85676584 [kJ/mol]
      Disp20 (OS)                  -2.61160419 [mEh]      -1.63880637 [kcal/mol]      -6.85676584 [kJ/mol]
      Exch-Disp20 (SS)              0.26929069 [mEh]       0.16898246 [kcal/mol]       0.70702261 [kJ/mol]
      Exch-Disp20 (OS)              0.14047184 [mEh]       0.08814741 [kcal/mol]       0.36880875 [kJ/mol]

  Total HF                          2.25383331 [mEh]       1.41430175 [kcal/mol]       5.91743853 [kJ/mol]
  Total SAPT0                      -2.55961254 [mEh]      -1.60618112 [kcal/mol]      -6.72026180 [kJ/mol]

  Special recipe for scaled SAPT0 (see Manual):
    Electrostatics sSAPT0          -1.23136560 [mEh]      -0.77269358 [kcal/mol]      -3.23294993 [kJ/mol]
    Exchange sSAPT0                 3.80010631 [mEh]       2.38460271 [kcal/mol]       9.97717775 [kJ/mol]
    Induction sSAPT0               -0.31263614 [mEh]      -0.19618214 [kcal/mol]      -0.82082608 [kJ/mol]
    Dispersion sSAPT0              -4.81157439 [mEh]      -3.01930851 [kcal/mol]     -12.63278682 [kJ/mol]
  Total sSAPT0                     -2.55546982 [mEh]      -1.60358152 [kcal/mol]      -6.70938508 [kJ/mol]
  --------------------------------------------------------------------------------------------------------

*** tstop() called on r282 at Fri Sep 10 21:05:49 2021
Module time:
	user time   =      37.24 seconds =       0.62 minutes
	system time =       6.77 seconds =       0.11 minutes
	total time  =         45 seconds =       0.75 minutes
Total time:
	user time   =      84.28 seconds =       1.40 minutes
	system time =       8.02 seconds =       0.13 minutes
	total time  =         94 seconds =       1.57 minutes

    Psi4 stopped on: Friday, 10 September 2021 09:05PM
    Psi4 wall time for execution: 0:01:33.13

*** Psi4 exiting successfully. Buy a developer a beer!
