
    -----------------------------------------------------------------------
          Psi4: An Open-Source Ab Initio Electronic Structure Package
                               Psi4 1.3.2 release

                         Git: Rev {HEAD} ecbda83 


    R. M. Parrish, L. A. Burns, D. G. A. Smith, A. C. Simmonett,
    A. E. DePrince III, E. G. Hohenstein, U. Bozkaya, A. Yu. Sokolov,
    R. Di Remigio, R. M. Richard, J. F. Gonthier, A. M. James,
    H. R. McAlexander, A. Kumar, M. Saitow, X. Wang, B. P. Pritchard,
    P. Verma, H. F. Schaefer III, K. Patkowski, R. A. King, E. F. Valeev,
    F. A. Evangelista, J. M. Turney, T. D. Crawford, and C. D. Sherrill,
    J. Chem. Theory Comput. 13(7) pp 3185--3197 (2017).
    (doi: 10.1021/acs.jctc.7b00174)


                         Additional Contributions by
    P. Kraus, H. Kruse, M. H. Lechner, M. C. Schieber, R. A. Shaw,
    A. Alenaizan, R. Galvelis, Z. L. Glick, S. Lehtola, and J. P. Misiewicz

    -----------------------------------------------------------------------


    Psi4 started on: Friday, 10 September 2021 09:05PM

    Process ID: 57115
    Host:       r282
    PSIDATADIR: /home/r08543048/miniconda3/share/psi4
    Memory:     500.0 MiB
    Threads:    1
    
  ==> Input File <==

--------------------------------------------------------------------------
# Any line starting with the # character is a comment line
#! Sample  computation

memory 22 gb

molecule Dimer {
0 1
 C -0.493451   -1.074797    0.388028
 C -1.715541   -1.205281   -0.512160
 C -3.012679   -1.309157    0.280233
 C 0.806363   -0.907193   -0.387195
 C 2.034656   -0.831260    0.510962
 C 3.317489   -0.595376   -0.276359
 H -0.422768   -1.958798    1.030336
 H -0.626438   -0.217964    1.057165
 H -1.598318   -2.086688   -1.148260
 H -1.760580   -0.343079   -1.182427
 H -3.878098   -1.410525   -0.374224
 H -3.160469   -0.420913    0.896365
 H -2.991613   -2.173253    0.945634
 H 0.923455   -1.741398   -1.086677
 H 0.746913    0.000149   -0.997687
 H 2.115789   -1.758648    1.084152
 H 1.897681   -0.029555    1.241949
 H 4.189163   -0.553263    0.376250
 H 3.264085    0.345169   -0.826431
 H 3.478753   -1.394547   -1.000995
 --
0 1
 C  -1.072492    2.607483   -0.395710
 C   0.206009    2.868315    0.391895
 H  -0.851452    2.209701   -1.385920
 H  -1.647254    3.523535   -0.527988
 H  -1.710923    1.886600    0.114585
 H   0.840686    3.593472   -0.116330
 H   0.784633    1.953670    0.518193
 H  -0.015368    3.259923    1.384147




units angstrom

no_reorient
symmetry c1
}

set globals{
  basis jun-cc-pvtz
}

energy('sapt0')


--------------------------------------------------------------------------

  Memory set to  20.489 GiB by Python driver.

  //>>>>>>>>>>>>>>>>>>>>>>>>>>>>>>>>>>>//
  //              Dimer HF             //
  //<<<<<<<<<<<<<<<<<<<<<<<<<<<<<<<<<<<//


*** tstart() called on r282
*** at Fri Sep 10 21:05:49 2021

   => Loading Basis Set <=

    Name: JUN-CC-PVTZ
    Role: ORBITAL
    Keyword: BASIS
    atoms 1-6, 21-22  entry C          line   217 file /home/r08543048/miniconda3/share/psi4/basis/jun-cc-pvtz.gbs 
    atoms 7-20, 23-28 entry H          line    36 file /home/r08543048/miniconda3/share/psi4/basis/jun-cc-pvtz.gbs 


         ---------------------------------------------------------
                                   SCF
               by Justin Turney, Rob Parrish, Andy Simmonett
                          and Daniel G. A. Smith
                              RHF Reference
                        1 Threads,  20980 MiB Core
         ---------------------------------------------------------

  ==> Geometry <==

    Molecular point group: c1
    Full point group: C1

    Geometry (in Angstrom), charge = 0, multiplicity = 1:

       Center              X                  Y                   Z               Mass       
    ------------   -----------------  -----------------  -----------------  -----------------
         C           -0.497056668831    -1.051874435850     0.388043673900    12.000000000000
         C           -1.719146668831    -1.182358435850    -0.512144326100    12.000000000000
         C           -3.016284668831    -1.286234435850     0.280248673900    12.000000000000
         C            0.802757331169    -0.884270435850    -0.387179326100    12.000000000000
         C            2.031050331169    -0.808337435850     0.510977673900    12.000000000000
         C            3.313883331169    -0.572453435850    -0.276343326100    12.000000000000
         H           -0.426373668831    -1.935875435850     1.030351673900     1.007825032230
         H           -0.630043668831    -0.195041435850     1.057180673900     1.007825032230
         H           -1.601923668831    -2.063765435850    -1.148244326100     1.007825032230
         H           -1.764185668831    -0.320156435850    -1.182411326100     1.007825032230
         H           -3.881703668831    -1.387602435850    -0.374208326100     1.007825032230
         H           -3.164074668831    -0.397990435850     0.896380673900     1.007825032230
         H           -2.995218668831    -2.150330435850     0.945649673900     1.007825032230
         H            0.919849331169    -1.718475435850    -1.086661326100     1.007825032230
         H            0.743307331169     0.023071564150    -0.997671326100     1.007825032230
         H            2.112183331169    -1.735725435850     1.084167673900     1.007825032230
         H            1.894075331169    -0.006632435850     1.241964673900     1.007825032230
         H            4.185557331169    -0.530340435850     0.376265673900     1.007825032230
         H            3.260479331169     0.368091564150    -0.826415326100     1.007825032230
         H            3.475147331169    -1.371624435850    -1.000979326100     1.007825032230
         C           -1.076097668831     2.630405564150    -0.395694326100    12.000000000000
         C            0.202403331169     2.891237564150     0.391910673900    12.000000000000
         H           -0.855057668831     2.232623564150    -1.385904326100     1.007825032230
         H           -1.650859668831     3.546457564150    -0.527972326100     1.007825032230
         H           -1.714528668831     1.909522564150     0.114600673900     1.007825032230
         H            0.837080331169     3.616394564150    -0.116314326100     1.007825032230
         H            0.781027331169     1.976592564150     0.518208673900     1.007825032230
         H           -0.018973668831     3.282845564150     1.384162673900     1.007825032230

  Running in c1 symmetry.

  Rotational constants: A =      0.04676  B =      0.03491  C =      0.02171 [cm^-1]
  Rotational constants: A =   1401.78714  B =   1046.47159  C =    650.82428 [MHz]
  Nuclear repulsion =  395.915100110540777

  Charge       = 0
  Multiplicity = 1
  Electrons    = 68
  Nalpha       = 34
  Nbeta        = 34

  ==> Algorithm <==

  SCF Algorithm Type is DF.
  DIIS enabled.
  MOM disabled.
  Fractional occupation disabled.
  Guess Type is SAD.
  Energy threshold   = 1.00e-08
  Density threshold  = 1.00e-08
  Integral threshold = 0.00e+00

  ==> Primary Basis <==

  Basis Set: JUN-CC-PVTZ
    Blend: JUN-CC-PVTZ
    Number of shells: 224
    Number of basis function: 592
    Number of Cartesian functions: 660
    Spherical Harmonics?: true
    Max angular momentum: 3

   => Loading Basis Set <=

    Name: (JUN-CC-PVTZ AUX)
    Role: JKFIT
    Keyword: DF_BASIS_SCF
    atoms 1-6, 21-22  entry C          line   152 file /home/r08543048/miniconda3/share/psi4/basis/jun-cc-pvtz-jkfit.gbs 
    atoms 7-20, 23-28 entry H          line    70 file /home/r08543048/miniconda3/share/psi4/basis/jun-cc-pvtz-jkfit.gbs 

  ==> Pre-Iterations <==

   -------------------------------------------------------
    Irrep   Nso     Nmo     Nalpha   Nbeta   Ndocc  Nsocc
   -------------------------------------------------------
     A        592     592       0       0       0       0
   -------------------------------------------------------
    Total     592     592      34      34      34       0
   -------------------------------------------------------

  ==> Integral Setup <==

  ==> DiskDFJK: Density-Fitted J/K Matrices <==

    J tasked:                  Yes
    K tasked:                  Yes
    wK tasked:                  No
    OpenMP threads:              1
    Integrals threads:           1
    Memory [MiB]:            15735
    Algorithm:                Core
    Integral Cache:           SAVE
    Schwarz Cutoff:          1E-12
    Fitting Condition:       1E-10

   => Auxiliary Basis Set <=

  Basis Set: (JUN-CC-PVTZ AUX)
    Blend: JUN-CC-PVTZ-JKFIT
    Number of shells: 432
    Number of basis function: 1360
    Number of Cartesian functions: 1628
    Spherical Harmonics?: true
    Max angular momentum: 4

  Minimum eigenvalue in the overlap matrix is 2.4453600321E-05.
  Using Symmetric Orthogonalization.

  SCF Guess: Superposition of Atomic Densities via on-the-fly atomic UHF.

  ==> Iterations <==

                           Total Energy        Delta E     RMS |[F,P]|

   @DF-RHF iter SAD:  -313.74707076385619   -3.13747e+02   0.00000e+00 
   @DF-RHF iter   1:  -314.30660092834034   -5.59530e-01   1.35371e-03 DIIS
   @DF-RHF iter   2:  -314.63625116279428   -3.29650e-01   6.07260e-04 DIIS
   @DF-RHF iter   3:  -314.70374618235286   -6.74950e-02   1.09589e-04 DIIS
   @DF-RHF iter   4:  -314.70841810872292   -4.67193e-03   1.92527e-05 DIIS
   @DF-RHF iter   5:  -314.70853537729789   -1.17269e-04   6.52566e-06 DIIS
   @DF-RHF iter   6:  -314.70854727990530   -1.19026e-05   1.13288e-06 DIIS
   @DF-RHF iter   7:  -314.70854772151228   -4.41607e-07   2.79414e-07 DIIS
   @DF-RHF iter   8:  -314.70854774489663   -2.33844e-08   6.55686e-08 DIIS
   @DF-RHF iter   9:  -314.70854774619789   -1.30126e-09   1.59078e-08 DIIS
   @DF-RHF iter  10:  -314.70854774629487   -9.69749e-11   3.69015e-09 DIIS
  Energy and wave function converged.


  ==> Post-Iterations <==

    Orbital Energies [Eh]
    ---------------------

    Doubly Occupied:                                                      

       1A    -11.212966     2A    -11.211966     3A    -11.211075  
       4A    -11.210486     5A    -11.210331     6A    -11.209826  
       7A    -11.207355     8A    -11.207238     9A     -1.086970  
      10A     -1.037527    11A     -1.019530    12A     -0.961231  
      13A     -0.871016    14A     -0.842824    15A     -0.797210  
      16A     -0.784520    17A     -0.655259    18A     -0.611754  
      19A     -0.597754    20A     -0.595997    21A     -0.595219  
      22A     -0.577424    23A     -0.552689    24A     -0.527870  
      25A     -0.525037    26A     -0.510858    27A     -0.500436  
      28A     -0.488066    29A     -0.487483    30A     -0.478760  
      31A     -0.466731    32A     -0.459023    33A     -0.457570  
      34A     -0.437961  

    Virtual:                                                              

      35A      0.049628    36A      0.050529    37A      0.052017  
      38A      0.062077    39A      0.068064    40A      0.070699  
      41A      0.076042    42A      0.085116    43A      0.086381  
      44A      0.095175    45A      0.105114    46A      0.106985  
      47A      0.112017    48A      0.115413    49A      0.120532  
      50A      0.127033    51A      0.128664    52A      0.140022  
      53A      0.141368    54A      0.151110    55A      0.158364  
      56A      0.162715    57A      0.177634    58A      0.181172  
      59A      0.192592    60A      0.198355    61A      0.201671  
      62A      0.210544    63A      0.214810    64A      0.218707  
      65A      0.228834    66A      0.249683    67A      0.252567  
      68A      0.257673    69A      0.263101    70A      0.263830  
      71A      0.273803    72A      0.277796    73A      0.289374  
      74A      0.295197    75A      0.302584    76A      0.306058  
      77A      0.308396    78A      0.309716    79A      0.317758  
      80A      0.322464    81A      0.325294    82A      0.329966  
      83A      0.335875    84A      0.337474    85A      0.341386  
      86A      0.350211    87A      0.351583    88A      0.359264  
      89A      0.360642    90A      0.365946    91A      0.370038  
      92A      0.374982    93A      0.378451    94A      0.381703  
      95A      0.387890    96A      0.391737    97A      0.394632  
      98A      0.407661    99A      0.409412   100A      0.420608  
     101A      0.428116   102A      0.434465   103A      0.439361  
     104A      0.450220   105A      0.453852   106A      0.462834  
     107A      0.468621   108A      0.470584   109A      0.478549  
     110A      0.481321   111A      0.492932   112A      0.506081  
     113A      0.514397   114A      0.516291   115A      0.522910  
     116A      0.530026   117A      0.532495   118A      0.539147  
     119A      0.543617   120A      0.550634   121A      0.562585  
     122A      0.573445   123A      0.575661   124A      0.584817  
     125A      0.607889   126A      0.615362   127A      0.620534  
     128A      0.632037   129A      0.638742   130A      0.639441  
     131A      0.640962   132A      0.653045   133A      0.667889  
     134A      0.672499   135A      0.676555   136A      0.686061  
     137A      0.709098   138A      0.716440   139A      0.718049  
     140A      0.728522   141A      0.741079   142A      0.746350  
     143A      0.749750   144A      0.761677   145A      0.772145  
     146A      0.777389   147A      0.788313   148A      0.790596  
     149A      0.801432   150A      0.804853   151A      0.811402  
     152A      0.820984   153A      0.824481   154A      0.829372  
     155A      0.832784   156A      0.841104   157A      0.851282  
     158A      0.857813   159A      0.859138   160A      0.867229  
     161A      0.869537   162A      0.876058   163A      0.883881  
     164A      0.899283   165A      0.902200   166A      0.909927  
     167A      0.923008   168A      0.926916   169A      0.936264  
     170A      0.938131   171A      0.947214   172A      0.960991  
     173A      0.969359   174A      0.980429   175A      0.981700  
     176A      0.985012   177A      0.999335   178A      1.012996  
     179A      1.016663   180A      1.019302   181A      1.034394  
     182A      1.048279   183A      1.052493   184A      1.087727  
     185A      1.106746   186A      1.112771   187A      1.130517  
     188A      1.144164   189A      1.158229   190A      1.162429  
     191A      1.186051   192A      1.192021   193A      1.207045  
     194A      1.214273   195A      1.225205   196A      1.245222  
     197A      1.257054   198A      1.261687   199A      1.276105  
     200A      1.283277   201A      1.295862   202A      1.297280  
     203A      1.308197   204A      1.319197   205A      1.332480  
     206A      1.338103   207A      1.343177   208A      1.354153  
     209A      1.358467   210A      1.364518   211A      1.371635  
     212A      1.382912   213A      1.389610   214A      1.394867  
     215A      1.408874   216A      1.415906   217A      1.421140  
     218A      1.426177   219A      1.435576   220A      1.440239  
     221A      1.449284   222A      1.460856   223A      1.467582  
     224A      1.472822   225A      1.484925   226A      1.504083  
     227A      1.508307   228A      1.518613   229A      1.526926  
     230A      1.531969   231A      1.539098   232A      1.541086  
     233A      1.550244   234A      1.570655   235A      1.587658  
     236A      1.589261   237A      1.595252   238A      1.596228  
     239A      1.603894   240A      1.612287   241A      1.619705  
     242A      1.630463   243A      1.635338   244A      1.652918  
     245A      1.667169   246A      1.670380   247A      1.686296  
     248A      1.691219   249A      1.694724   250A      1.706465  
     251A      1.708267   252A      1.721685   253A      1.730888  
     254A      1.736824   255A      1.760268   256A      1.762660  
     257A      1.793208   258A      1.799678   259A      1.809479  
     260A      1.813350   261A      1.823778   262A      1.845821  
     263A      1.851612   264A      1.858193   265A      1.864814  
     266A      1.888569   267A      1.904884   268A      1.913691  
     269A      1.921389   270A      1.927170   271A      1.937740  
     272A      1.950212   273A      1.969500   274A      1.977741  
     275A      1.981047   276A      1.999572   277A      2.025389  
     278A      2.062422   279A      2.102618   280A      2.110550  
     281A      2.127925   282A      2.160605   283A      2.176317  
     284A      2.283552   285A      2.744115   286A      2.747458  
     287A      2.760486   288A      2.770207   289A      2.774561  
     290A      2.789703   291A      2.798107   292A      2.807992  
     293A      2.824138   294A      2.824486   295A      2.845536  
     296A      2.851511   297A      2.866492   298A      2.871981  
     299A      2.885998   300A      2.894249   301A      2.920472  
     302A      2.925418   303A      2.931057   304A      2.940189  
     305A      2.950342   306A      2.964607   307A      2.976922  
     308A      2.994997   309A      3.006730   310A      3.045118  
     311A      3.050998   312A      3.070519   313A      3.074539  
     314A      3.100961   315A      3.106428   316A      3.112774  
     317A      3.132147   318A      3.134678   319A      3.141508  
     320A      3.155036   321A      3.160285   322A      3.163917  
     323A      3.176442   324A      3.186796   325A      3.195082  
     326A      3.210317   327A      3.219562   328A      3.221138  
     329A      3.230704   330A      3.244229   331A      3.251382  
     332A      3.255490   333A      3.258795   334A      3.280965  
     335A      3.290977   336A      3.296404   337A      3.297791  
     338A      3.321378   339A      3.330078   340A      3.333096  
     341A      3.341210   342A      3.349914   343A      3.353966  
     344A      3.363822   345A      3.374362   346A      3.383305  
     347A      3.410375   348A      3.412410   349A      3.414451  
     350A      3.425104   351A      3.434567   352A      3.439995  
     353A      3.447426   354A      3.462231   355A      3.466377  
     356A      3.475121   357A      3.480945   358A      3.481809  
     359A      3.486518   360A      3.492532   361A      3.495281  
     362A      3.501946   363A      3.508712   364A      3.514646  
     365A      3.519589   366A      3.528231   367A      3.530110  
     368A      3.538946   369A      3.546567   370A      3.564850  
     371A      3.568312   372A      3.587930   373A      3.590689  
     374A      3.598120   375A      3.607083   376A      3.620317  
     377A      3.624772   378A      3.635343   379A      3.639999  
     380A      3.661825   381A      3.670996   382A      3.674830  
     383A      3.678193   384A      3.706786   385A      3.710120  
     386A      3.723467   387A      3.733702   388A      3.748380  
     389A      3.759012   390A      3.770249   391A      3.794633  
     392A      3.799625   393A      3.813160   394A      3.822373  
     395A      3.841604   396A      3.849098   397A      3.860172  
     398A      3.869444   399A      3.877409   400A      3.881928  
     401A      3.889387   402A      3.900388   403A      3.913316  
     404A      3.916167   405A      3.918603   406A      3.937226  
     407A      3.944009   408A      3.948564   409A      3.962762  
     410A      3.969743   411A      3.977291   412A      4.006608  
     413A      4.014647   414A      4.021062   415A      4.032625  
     416A      4.037821   417A      4.045342   418A      4.066377  
     419A      4.104137   420A      4.124884   421A      4.154271  
     422A      4.182716   423A      4.188229   424A      4.190552  
     425A      4.198520   426A      4.204316   427A      4.215181  
     428A      4.227304   429A      4.237020   430A      4.246597  
     431A      4.248634   432A      4.258064   433A      4.260150  
     434A      4.279290   435A      4.280564   436A      4.285392  
     437A      4.293666   438A      4.298338   439A      4.301710  
     440A      4.312431   441A      4.320755   442A      4.328215  
     443A      4.356933   444A      4.367778   445A      4.370159  
     446A      4.381159   447A      4.388115   448A      4.397705  
     449A      4.405406   450A      4.426489   451A      4.432044  
     452A      4.440670   453A      4.455468   454A      4.458977  
     455A      4.466135   456A      4.474425   457A      4.481295  
     458A      4.484495   459A      4.492902   460A      4.499248  
     461A      4.501431   462A      4.511435   463A      4.521274  
     464A      4.526203   465A      4.535061   466A      4.540591  
     467A      4.550389   468A      4.568776   469A      4.581576  
     470A      4.590278   471A      4.606934   472A      4.612540  
     473A      4.626544   474A      4.629005   475A      4.640466  
     476A      4.657150   477A      4.659591   478A      4.671211  
     479A      4.681331   480A      4.693061   481A      4.722929  
     482A      4.724767   483A      4.739986   484A      4.760142  
     485A      4.772278   486A      4.784769   487A      4.802696  
     488A      4.812041   489A      4.814392   490A      4.828540  
     491A      4.845621   492A      4.863316   493A      4.871952  
     494A      4.887323   495A      4.902688   496A      4.959047  
     497A      4.965373   498A      4.971159   499A      4.999239  
     500A      5.013734   501A      5.021107   502A      5.085659  
     503A      5.113232   504A      5.130180   505A      5.158226  
     506A      5.178962   507A      5.187656   508A      5.189826  
     509A      5.202715   510A      5.215362   511A      5.222685  
     512A      5.231174   513A      5.251543   514A      5.272722  
     515A      5.281345   516A      5.289238   517A      5.296047  
     518A      5.297854   519A      5.300290   520A      5.302411  
     521A      5.318693   522A      5.325694   523A      5.334282  
     524A      5.343304   525A      5.350773   526A      5.363459  
     527A      5.391796   528A      5.398211   529A      5.405905  
     530A      5.420849   531A      5.431104   532A      5.435733  
     533A      5.489072   534A      5.502450   535A      5.522039  
     536A      5.549594   537A      5.560138   538A      5.631124  
     539A      5.636486   540A      5.658732   541A      5.681887  
     542A      5.686198   543A      5.696712   544A      5.703389  
     545A      5.758491   546A      5.764278   547A      5.769540  
     548A      5.770418   549A      5.775325   550A      5.781225  
     551A      5.788486   552A      5.793422   553A      5.805396  
     554A      5.824532   555A      5.832311   556A      5.891412  
     557A      5.898669   558A      5.912148   559A      5.920779  
     560A      5.927816   561A      5.935258   562A      5.938626  
     563A      5.949088   564A      5.964319   565A      5.973452  
     566A      5.984833   567A      6.009361   568A      6.019839  
     569A      6.096390   570A      6.169856   571A      6.242959  
     572A      6.285677   573A      6.460972   574A      6.496412  
     575A      6.499282   576A      6.509688   577A      6.513362  
     578A      6.523971   579A      6.533451   580A      6.541204  
     581A      6.610098   582A      6.635923   583A      6.659486  
     584A      6.671740   585A     13.831834   586A     13.992922  
     587A     14.327368   588A     14.366375   589A     14.511888  
     590A     14.541431   591A     14.646892   592A     14.806678  

    Final Occupation by Irrep:
              A 
    DOCC [    34 ]

  @DF-RHF Final Energy:  -314.70854774629487

   => Energetics <=

    Nuclear Repulsion Energy =            395.9151001105407772
    One-Electron Energy =               -1208.0313695872375774
    Two-Electron Energy =                 497.4077217304018745
    Total Energy =                       -314.7085477462948688

Computation Completed


Properties will be evaluated at   0.000000,   0.000000,   0.000000 [a0]

Properties computed using the SCF density matrix

  Nuclear Dipole Moment: [e a0]
     X:    -0.4633      Y:     2.9456      Z:     0.0020

  Electronic Dipole Moment: [e a0]
     X:     0.4653      Y:    -2.9492      Z:    -0.0075

  Dipole Moment: [e a0]
     X:     0.0019      Y:    -0.0037      Z:    -0.0055     Total:     0.0069

  Dipole Moment: [D]
     X:     0.0050      Y:    -0.0093      Z:    -0.0139     Total:     0.0174


*** tstop() called on r282 at Fri Sep 10 21:07:39 2021
Module time:
	user time   =     107.19 seconds =       1.79 minutes
	system time =       2.05 seconds =       0.03 minutes
	total time  =        110 seconds =       1.83 minutes
Total time:
	user time   =     107.19 seconds =       1.79 minutes
	system time =       2.05 seconds =       0.03 minutes
	total time  =        110 seconds =       1.83 minutes

  //>>>>>>>>>>>>>>>>>>>>>>>>>>>>>>>>>>>//
  //            Monomer A HF           //
  //<<<<<<<<<<<<<<<<<<<<<<<<<<<<<<<<<<<//


*** tstart() called on r282
*** at Fri Sep 10 21:07:39 2021

   => Loading Basis Set <=

    Name: JUN-CC-PVTZ
    Role: ORBITAL
    Keyword: BASIS
    atoms 1-6, 21-22  entry C          line   217 file /home/r08543048/miniconda3/share/psi4/basis/jun-cc-pvtz.gbs 
    atoms 7-20, 23-28 entry H          line    36 file /home/r08543048/miniconda3/share/psi4/basis/jun-cc-pvtz.gbs 


         ---------------------------------------------------------
                                   SCF
               by Justin Turney, Rob Parrish, Andy Simmonett
                          and Daniel G. A. Smith
                              RHF Reference
                        1 Threads,  20980 MiB Core
         ---------------------------------------------------------

  ==> Geometry <==

    Molecular point group: c1
    Full point group: C1

    Geometry (in Angstrom), charge = 0, multiplicity = 1:

       Center              X                  Y                   Z               Mass       
    ------------   -----------------  -----------------  -----------------  -----------------
         C           -0.497056668831    -1.051874435850     0.388043673900    12.000000000000
         C           -1.719146668831    -1.182358435850    -0.512144326100    12.000000000000
         C           -3.016284668831    -1.286234435850     0.280248673900    12.000000000000
         C            0.802757331169    -0.884270435850    -0.387179326100    12.000000000000
         C            2.031050331169    -0.808337435850     0.510977673900    12.000000000000
         C            3.313883331169    -0.572453435850    -0.276343326100    12.000000000000
         H           -0.426373668831    -1.935875435850     1.030351673900     1.007825032230
         H           -0.630043668831    -0.195041435850     1.057180673900     1.007825032230
         H           -1.601923668831    -2.063765435850    -1.148244326100     1.007825032230
         H           -1.764185668831    -0.320156435850    -1.182411326100     1.007825032230
         H           -3.881703668831    -1.387602435850    -0.374208326100     1.007825032230
         H           -3.164074668831    -0.397990435850     0.896380673900     1.007825032230
         H           -2.995218668831    -2.150330435850     0.945649673900     1.007825032230
         H            0.919849331169    -1.718475435850    -1.086661326100     1.007825032230
         H            0.743307331169     0.023071564150    -0.997671326100     1.007825032230
         H            2.112183331169    -1.735725435850     1.084167673900     1.007825032230
         H            1.894075331169    -0.006632435850     1.241964673900     1.007825032230
         H            4.185557331169    -0.530340435850     0.376265673900     1.007825032230
         H            3.260479331169     0.368091564150    -0.826415326100     1.007825032230
         H            3.475147331169    -1.371624435850    -1.000979326100     1.007825032230
      Gh(C)          -1.076097668831     2.630405564150    -0.395694326100    12.000000000000
      Gh(C)           0.202403331169     2.891237564150     0.391910673900    12.000000000000
      Gh(H)          -0.855057668831     2.232623564150    -1.385904326100     1.007825032230
      Gh(H)          -1.650859668831     3.546457564150    -0.527972326100     1.007825032230
      Gh(H)          -1.714528668831     1.909522564150     0.114600673900     1.007825032230
      Gh(H)           0.837080331169     3.616394564150    -0.116314326100     1.007825032230
      Gh(H)           0.781027331169     1.976592564150     0.518208673900     1.007825032230
      Gh(H)          -0.018973668831     3.282845564150     1.384162673900     1.007825032230

  Running in c1 symmetry.

  Rotational constants: A =      0.04676  B =      0.03491  C =      0.02171 [cm^-1]
  Rotational constants: A =   1401.78714  B =   1046.47159  C =    650.82428 [MHz]
  Nuclear repulsion =  245.056608562866813

  Charge       = 0
  Multiplicity = 1
  Electrons    = 50
  Nalpha       = 25
  Nbeta        = 25

  ==> Algorithm <==

  SCF Algorithm Type is DF.
  DIIS enabled.
  MOM disabled.
  Fractional occupation disabled.
  Guess Type is SAD.
  Energy threshold   = 1.00e-08
  Density threshold  = 1.00e-08
  Integral threshold = 0.00e+00

  ==> Primary Basis <==

  Basis Set: JUN-CC-PVTZ
    Blend: JUN-CC-PVTZ
    Number of shells: 224
    Number of basis function: 592
    Number of Cartesian functions: 660
    Spherical Harmonics?: true
    Max angular momentum: 3

   => Loading Basis Set <=

    Name: (JUN-CC-PVTZ AUX)
    Role: JKFIT
    Keyword: DF_BASIS_SCF
    atoms 1-6, 21-22  entry C          line   152 file /home/r08543048/miniconda3/share/psi4/basis/jun-cc-pvtz-jkfit.gbs 
    atoms 7-20, 23-28 entry H          line    70 file /home/r08543048/miniconda3/share/psi4/basis/jun-cc-pvtz-jkfit.gbs 

  ==> Pre-Iterations <==

   -------------------------------------------------------
    Irrep   Nso     Nmo     Nalpha   Nbeta   Ndocc  Nsocc
   -------------------------------------------------------
     A        592     592       0       0       0       0
   -------------------------------------------------------
    Total     592     592      25      25      25       0
   -------------------------------------------------------

  ==> Integral Setup <==

  ==> DiskDFJK: Density-Fitted J/K Matrices <==

    J tasked:                  Yes
    K tasked:                  Yes
    wK tasked:                  No
    OpenMP threads:              1
    Integrals threads:           1
    Memory [MiB]:            15735
    Algorithm:                Core
    Integral Cache:           LOAD
    Schwarz Cutoff:          1E-12
    Fitting Condition:       1E-10

   => Auxiliary Basis Set <=

  Basis Set: (JUN-CC-PVTZ AUX)
    Blend: JUN-CC-PVTZ-JKFIT
    Number of shells: 432
    Number of basis function: 1360
    Number of Cartesian functions: 1628
    Spherical Harmonics?: true
    Max angular momentum: 4

  Minimum eigenvalue in the overlap matrix is 2.4453600321E-05.
  Using Symmetric Orthogonalization.

  SCF Guess: Superposition of Atomic Densities via on-the-fly atomic UHF.

  ==> Iterations <==

                           Total Energy        Delta E     RMS |[F,P]|

   @DF-RHF iter SAD:  -234.93239757054425   -2.34932e+02   0.00000e+00 
   @DF-RHF iter   1:  -235.15838877995714   -2.25991e-01   1.14964e-03 DIIS
   @DF-RHF iter   2:  -235.39885614154790   -2.40467e-01   5.16369e-04 DIIS
   @DF-RHF iter   3:  -235.44795782598257   -4.91017e-02   9.34116e-05 DIIS
   @DF-RHF iter   4:  -235.45133615841073   -3.37833e-03   1.65395e-05 DIIS
   @DF-RHF iter   5:  -235.45141949844617   -8.33400e-05   5.52527e-06 DIIS
   @DF-RHF iter   6:  -235.45142822238475   -8.72394e-06   9.05508e-07 DIIS
   @DF-RHF iter   7:  -235.45142851446528   -2.92081e-07   2.47761e-07 DIIS
   @DF-RHF iter   8:  -235.45142853273481   -1.82695e-08   5.79157e-08 DIIS
   @DF-RHF iter   9:  -235.45142853382589   -1.09108e-09   1.44998e-08 DIIS
   @DF-RHF iter  10:  -235.45142853391201   -8.61178e-11   2.91808e-09 DIIS
  Energy and wave function converged.


  ==> Post-Iterations <==

    Orbital Energies [Eh]
    ---------------------

    Doubly Occupied:                                                      

       1A    -11.212698     2A    -11.212668     3A    -11.210627  
       4A    -11.210004     5A    -11.207152     6A    -11.207143  
       7A     -1.086657     8A     -1.037329     9A     -0.961073  
      10A     -0.870785    11A     -0.797051    12A     -0.784306  
      13A     -0.651962    14A     -0.610255    15A     -0.595287  
      16A     -0.577332    17A     -0.552681    18A     -0.527717  
      19A     -0.524850    20A     -0.498853    21A     -0.480316  
      22A     -0.466579    23A     -0.459504    24A     -0.457969  
      25A     -0.437931  

    Virtual:                                                              

      26A      0.038620    27A      0.048041    28A      0.050026  
      29A      0.053367    30A      0.066780    31A      0.067618  
      32A      0.075297    33A      0.078656    34A      0.084455  
      35A      0.094134    36A      0.099423    37A      0.106711  
      38A      0.107005    39A      0.110827    40A      0.115299  
      41A      0.121204    42A      0.127506    43A      0.136340  
      44A      0.138437    45A      0.151165    46A      0.152871  
      47A      0.155001    48A      0.166425    49A      0.179042  
      50A      0.188954    51A      0.191315    52A      0.195330  
      53A      0.205852    54A      0.211895    55A      0.215193  
      56A      0.221495    57A      0.226450    58A      0.240906  
      59A      0.247331    60A      0.253443    61A      0.259852  
      62A      0.266034    63A      0.278050    64A      0.280992  
      65A      0.286426    66A      0.294258    67A      0.302813  
      68A      0.304150    69A      0.309599    70A      0.318226  
      71A      0.320992    72A      0.325467    73A      0.333276  
      74A      0.334451    75A      0.336549    76A      0.341960  
      77A      0.349847    78A      0.358049    79A      0.359824  
      80A      0.365751    81A      0.371254    82A      0.375155  
      83A      0.377652    84A      0.380402    85A      0.385441  
      86A      0.402848    87A      0.406492    88A      0.409363  
      89A      0.416895    90A      0.417190    91A      0.424578  
      92A      0.433803    93A      0.438570    94A      0.445406  
      95A      0.450774    96A      0.455036    97A      0.464949  
      98A      0.469520    99A      0.476139   100A      0.478522  
     101A      0.483431   102A      0.488867   103A      0.493776  
     104A      0.503573   105A      0.520757   106A      0.526319  
     107A      0.531484   108A      0.538342   109A      0.540817  
     110A      0.552344   111A      0.557428   112A      0.567674  
     113A      0.570781   114A      0.573015   115A      0.588378  
     116A      0.591218   117A      0.598005   118A      0.611174  
     119A      0.617779   120A      0.628307   121A      0.631393  
     122A      0.637840   123A      0.646643   124A      0.647520  
     125A      0.649841   126A      0.652987   127A      0.665918  
     128A      0.671354   129A      0.678555   130A      0.693773  
     131A      0.717769   132A      0.719708   133A      0.723519  
     134A      0.741838   135A      0.748584   136A      0.776058  
     137A      0.779014   138A      0.783502   139A      0.785864  
     140A      0.811677   141A      0.813368   142A      0.819446  
     143A      0.822673   144A      0.830249   145A      0.841103  
     146A      0.845655   147A      0.851135   148A      0.858957  
     149A      0.872313   150A      0.873704   151A      0.888281  
     152A      0.899347   153A      0.917947   154A      0.925453  
     155A      0.931628   156A      0.933256   157A      0.937115  
     158A      0.962534   159A      0.971331   160A      0.989289  
     161A      0.994692   162A      0.996210   163A      1.007192  
     164A      1.021636   165A      1.030410   166A      1.037009  
     167A      1.050705   168A      1.073075   169A      1.078031  
     170A      1.086254   171A      1.105071   172A      1.116977  
     173A      1.129052   174A      1.138156   175A      1.144011  
     176A      1.156488   177A      1.163520   178A      1.174531  
     179A      1.182206   180A      1.189179   181A      1.206544  
     182A      1.217522   183A      1.224058   184A      1.234367  
     185A      1.248706   186A      1.251455   187A      1.256641  
     188A      1.268208   189A      1.273226   190A      1.283077  
     191A      1.285302   192A      1.293433   193A      1.303469  
     194A      1.308278   195A      1.318401   196A      1.324659  
     197A      1.335290   198A      1.342054   199A      1.357121  
     200A      1.373817   201A      1.380710   202A      1.382295  
     203A      1.384000   204A      1.388672   205A      1.410122  
     206A      1.412681   207A      1.421567   208A      1.423777  
     209A      1.428586   210A      1.433348   211A      1.456154  
     212A      1.464678   213A      1.468343   214A      1.473944  
     215A      1.489584   216A      1.501484   217A      1.516259  
     218A      1.527945   219A      1.533995   220A      1.537156  
     221A      1.546778   222A      1.548721   223A      1.550761  
     224A      1.569363   225A      1.575800   226A      1.580689  
     227A      1.591875   228A      1.596776   229A      1.599107  
     230A      1.604854   231A      1.609624   232A      1.617484  
     233A      1.619663   234A      1.639744   235A      1.644381  
     236A      1.661120   237A      1.663735   238A      1.685173  
     239A      1.689252   240A      1.697869   241A      1.710526  
     242A      1.729549   243A      1.745628   244A      1.753001  
     245A      1.761712   246A      1.779961   247A      1.788483  
     248A      1.801338   249A      1.807783   250A      1.820773  
     251A      1.827174   252A      1.836577   253A      1.842379  
     254A      1.854547   255A      1.861868   256A      1.878052  
     257A      1.887269   258A      1.912861   259A      1.926100  
     260A      1.935293   261A      1.943439   262A      1.956184  
     263A      1.974298   264A      1.983317   265A      2.009785  
     266A      2.025394   267A      2.052292   268A      2.084141  
     269A      2.088646   270A      2.111277   271A      2.113759  
     272A      2.139937   273A      2.158523   274A      2.178616  
     275A      2.238292   276A      2.281109   277A      2.310660  
     278A      2.395263   279A      2.416224   280A      2.436424  
     281A      2.549134   282A      2.602252   283A      2.757670  
     284A      2.774872   285A      2.796125   286A      2.805089  
     287A      2.835464   288A      2.856942   289A      2.863397  
     290A      2.870919   291A      2.878614   292A      2.901110  
     293A      2.928850   294A      2.930013   295A      2.938828  
     296A      2.951440   297A      2.952841   298A      2.969237  
     299A      2.990321   300A      3.043941   301A      3.051553  
     302A      3.076242   303A      3.106723   304A      3.113892  
     305A      3.133214   306A      3.135472   307A      3.161021  
     308A      3.162218   309A      3.166378   310A      3.187407  
     311A      3.199383   312A      3.220507   313A      3.225478  
     314A      3.248785   315A      3.258071   316A      3.270062  
     317A      3.288493   318A      3.293296   319A      3.297836  
     320A      3.329605   321A      3.331645   322A      3.344938  
     323A      3.349616   324A      3.358808   325A      3.378793  
     326A      3.401332   327A      3.415075   328A      3.419673  
     329A      3.428783   330A      3.430105   331A      3.456540  
     332A      3.461562   333A      3.471320   334A      3.475608  
     335A      3.482326   336A      3.485173   337A      3.488114  
     338A      3.493081   339A      3.500931   340A      3.503646  
     341A      3.511279   342A      3.524535   343A      3.533162  
     344A      3.540309   345A      3.553682   346A      3.557160  
     347A      3.558831   348A      3.565161   349A      3.574878  
     350A      3.590427   351A      3.595207   352A      3.610705  
     353A      3.614141   354A      3.628801   355A      3.631625  
     356A      3.647497   357A      3.654652   358A      3.665306  
     359A      3.671329   360A      3.677753   361A      3.687969  
     362A      3.709107   363A      3.716907   364A      3.728953  
     365A      3.731401   366A      3.750106   367A      3.767759  
     368A      3.773189   369A      3.795681   370A      3.800727  
     371A      3.806373   372A      3.811343   373A      3.817098  
     374A      3.829087   375A      3.842061   376A      3.855554  
     377A      3.869383   378A      3.879155   379A      3.895127  
     380A      3.913030   381A      3.923448   382A      3.928804  
     383A      3.935048   384A      3.942931   385A      3.948011  
     386A      3.958549   387A      3.966164   388A      3.971511  
     389A      4.002222   390A      4.005442   391A      4.025661  
     392A      4.026484   393A      4.035602   394A      4.057181  
     395A      4.065120   396A      4.083673   397A      4.093713  
     398A      4.106643   399A      4.123373   400A      4.147955  
     401A      4.161633   402A      4.174666   403A      4.189461  
     404A      4.202988   405A      4.213058   406A      4.221195  
     407A      4.231356   408A      4.246989   409A      4.253940  
     410A      4.256521   411A      4.267573   412A      4.286935  
     413A      4.291359   414A      4.300149   415A      4.302400  
     416A      4.323867   417A      4.344017   418A      4.355309  
     419A      4.359127   420A      4.373201   421A      4.378625  
     422A      4.381146   423A      4.390361   424A      4.400450  
     425A      4.419221   426A      4.425862   427A      4.427433  
     428A      4.433421   429A      4.448075   430A      4.451564  
     431A      4.463433   432A      4.474065   433A      4.483155  
     434A      4.488975   435A      4.490962   436A      4.493500  
     437A      4.506362   438A      4.514627   439A      4.520941  
     440A      4.527881   441A      4.535507   442A      4.541506  
     443A      4.547077   444A      4.560739   445A      4.564250  
     446A      4.572123   447A      4.597195   448A      4.598920  
     449A      4.610233   450A      4.618136   451A      4.628762  
     452A      4.636889   453A      4.641828   454A      4.648709  
     455A      4.672989   456A      4.676145   457A      4.686538  
     458A      4.716630   459A      4.721982   460A      4.728757  
     461A      4.746766   462A      4.755065   463A      4.766122  
     464A      4.771261   465A      4.781441   466A      4.783349  
     467A      4.806359   468A      4.816744   469A      4.824042  
     470A      4.835997   471A      4.846053   472A      4.860729  
     473A      4.862476   474A      4.875577   475A      4.880085  
     476A      4.892537   477A      4.897322   478A      4.923136  
     479A      4.941642   480A      4.955533   481A      4.963609  
     482A      4.972316   483A      4.998068   484A      5.000443  
     485A      5.007933   486A      5.015873   487A      5.020188  
     488A      5.034137   489A      5.067477   490A      5.077397  
     491A      5.083069   492A      5.089702   493A      5.108861  
     494A      5.121812   495A      5.162073   496A      5.185295  
     497A      5.192245   498A      5.197351   499A      5.206850  
     500A      5.222072   501A      5.253911   502A      5.258529  
     503A      5.275472   504A      5.291104   505A      5.299140  
     506A      5.302651   507A      5.305383   508A      5.334559  
     509A      5.339991   510A      5.358229   511A      5.395044  
     512A      5.396568   513A      5.409444   514A      5.415714  
     515A      5.427621   516A      5.432674   517A      5.437930  
     518A      5.448164   519A      5.490953   520A      5.504219  
     521A      5.522502   522A      5.551382   523A      5.561567  
     524A      5.632328   525A      5.638112   526A      5.644267  
     527A      5.656221   528A      5.659467   529A      5.683270  
     530A      5.688608   531A      5.724628   532A      5.752974  
     533A      5.766279   534A      5.770118   535A      5.773445  
     536A      5.788006   537A      5.804430   538A      5.831820  
     539A      5.892020   540A      5.898536   541A      5.918084  
     542A      5.926325   543A      5.933874   544A      5.938585  
     545A      5.957273   546A      5.977893   547A      5.997658  
     548A      6.006100   549A      6.016943   550A      6.034957  
     551A      6.095984   552A      6.169015   553A      6.225375  
     554A      6.242613   555A      6.280409   556A      6.340244  
     557A      6.344606   558A      6.367702   559A      6.394059  
     560A      6.427314   561A      6.456824   562A      6.461480  
     563A      6.511041   564A      6.521288   565A      6.529970  
     566A      6.535969   567A      6.584027   568A      6.631015  
     569A      6.659168   570A      6.668761   571A      6.805825  
     572A      6.910056   573A      7.358794   574A      7.497387  
     575A      7.529645   576A      7.653403   577A      7.699202  
     578A      7.791939   579A      7.808606   580A      7.895427  
     581A      7.923843   582A      8.327069   583A      9.743407  
     584A      9.980285   585A     13.835679   586A     13.999216  
     587A     14.365858   588A     14.515975   589A     14.535289  
     590A     14.649880   591A     45.260836   592A     45.822392  

    Final Occupation by Irrep:
              A 
    DOCC [    25 ]

  @DF-RHF Final Energy:  -235.45142853391201

   => Energetics <=

    Nuclear Repulsion Energy =            245.0566085628668134
    One-Electron Energy =                -801.7386120723556360
    Two-Electron Energy =                 321.2305749755768147
    Total Energy =                       -235.4514285339120079

Computation Completed


Properties will be evaluated at   0.000000,   0.000000,   0.000000 [a0]

Properties computed using the SCF density matrix

  Nuclear Dipole Moment: [e a0]
     X:    14.3965      Y:   -90.9630      Z:     0.0699

  Electronic Dipole Moment: [e a0]
     X:   -14.3962      Y:    90.9600      Z:    -0.0700

  Dipole Moment: [e a0]
     X:     0.0003      Y:    -0.0031      Z:    -0.0001     Total:     0.0031

  Dipole Moment: [D]
     X:     0.0008      Y:    -0.0079      Z:    -0.0002     Total:     0.0079


*** tstop() called on r282 at Fri Sep 10 21:08:36 2021
Module time:
	user time   =      55.99 seconds =       0.93 minutes
	system time =       1.07 seconds =       0.02 minutes
	total time  =         57 seconds =       0.95 minutes
Total time:
	user time   =     163.18 seconds =       2.72 minutes
	system time =       3.12 seconds =       0.05 minutes
	total time  =        167 seconds =       2.78 minutes

  //>>>>>>>>>>>>>>>>>>>>>>>>>>>>>>>>>>>//
  //            Monomer B HF           //
  //<<<<<<<<<<<<<<<<<<<<<<<<<<<<<<<<<<<//


*** tstart() called on r282
*** at Fri Sep 10 21:08:36 2021

   => Loading Basis Set <=

    Name: JUN-CC-PVTZ
    Role: ORBITAL
    Keyword: BASIS
    atoms 1-6, 21-22  entry C          line   217 file /home/r08543048/miniconda3/share/psi4/basis/jun-cc-pvtz.gbs 
    atoms 7-20, 23-28 entry H          line    36 file /home/r08543048/miniconda3/share/psi4/basis/jun-cc-pvtz.gbs 


         ---------------------------------------------------------
                                   SCF
               by Justin Turney, Rob Parrish, Andy Simmonett
                          and Daniel G. A. Smith
                              RHF Reference
                        1 Threads,  20980 MiB Core
         ---------------------------------------------------------

  ==> Geometry <==

    Molecular point group: c1
    Full point group: C1

    Geometry (in Angstrom), charge = 0, multiplicity = 1:

       Center              X                  Y                   Z               Mass       
    ------------   -----------------  -----------------  -----------------  -----------------
      Gh(C)          -0.497056668831    -1.051874435850     0.388043673900    12.000000000000
      Gh(C)          -1.719146668831    -1.182358435850    -0.512144326100    12.000000000000
      Gh(C)          -3.016284668831    -1.286234435850     0.280248673900    12.000000000000
      Gh(C)           0.802757331169    -0.884270435850    -0.387179326100    12.000000000000
      Gh(C)           2.031050331169    -0.808337435850     0.510977673900    12.000000000000
      Gh(C)           3.313883331169    -0.572453435850    -0.276343326100    12.000000000000
      Gh(H)          -0.426373668831    -1.935875435850     1.030351673900     1.007825032230
      Gh(H)          -0.630043668831    -0.195041435850     1.057180673900     1.007825032230
      Gh(H)          -1.601923668831    -2.063765435850    -1.148244326100     1.007825032230
      Gh(H)          -1.764185668831    -0.320156435850    -1.182411326100     1.007825032230
      Gh(H)          -3.881703668831    -1.387602435850    -0.374208326100     1.007825032230
      Gh(H)          -3.164074668831    -0.397990435850     0.896380673900     1.007825032230
      Gh(H)          -2.995218668831    -2.150330435850     0.945649673900     1.007825032230
      Gh(H)           0.919849331169    -1.718475435850    -1.086661326100     1.007825032230
      Gh(H)           0.743307331169     0.023071564150    -0.997671326100     1.007825032230
      Gh(H)           2.112183331169    -1.735725435850     1.084167673900     1.007825032230
      Gh(H)           1.894075331169    -0.006632435850     1.241964673900     1.007825032230
      Gh(H)           4.185557331169    -0.530340435850     0.376265673900     1.007825032230
      Gh(H)           3.260479331169     0.368091564150    -0.826415326100     1.007825032230
      Gh(H)           3.475147331169    -1.371624435850    -1.000979326100     1.007825032230
         C           -1.076097668831     2.630405564150    -0.395694326100    12.000000000000
         C            0.202403331169     2.891237564150     0.391910673900    12.000000000000
         H           -0.855057668831     2.232623564150    -1.385904326100     1.007825032230
         H           -1.650859668831     3.546457564150    -0.527972326100     1.007825032230
         H           -1.714528668831     1.909522564150     0.114600673900     1.007825032230
         H            0.837080331169     3.616394564150    -0.116314326100     1.007825032230
         H            0.781027331169     1.976592564150     0.518208673900     1.007825032230
         H           -0.018973668831     3.282845564150     1.384162673900     1.007825032230

  Running in c1 symmetry.

  Rotational constants: A =      0.04676  B =      0.03491  C =      0.02171 [cm^-1]
  Rotational constants: A =   1401.78714  B =   1046.47159  C =    650.82428 [MHz]
  Nuclear repulsion =   42.336618297299012

  Charge       = 0
  Multiplicity = 1
  Electrons    = 18
  Nalpha       = 9
  Nbeta        = 9

  ==> Algorithm <==

  SCF Algorithm Type is DF.
  DIIS enabled.
  MOM disabled.
  Fractional occupation disabled.
  Guess Type is SAD.
  Energy threshold   = 1.00e-08
  Density threshold  = 1.00e-08
  Integral threshold = 0.00e+00

  ==> Primary Basis <==

  Basis Set: JUN-CC-PVTZ
    Blend: JUN-CC-PVTZ
    Number of shells: 224
    Number of basis function: 592
    Number of Cartesian functions: 660
    Spherical Harmonics?: true
    Max angular momentum: 3

   => Loading Basis Set <=

    Name: (JUN-CC-PVTZ AUX)
    Role: JKFIT
    Keyword: DF_BASIS_SCF
    atoms 1-6, 21-22  entry C          line   152 file /home/r08543048/miniconda3/share/psi4/basis/jun-cc-pvtz-jkfit.gbs 
    atoms 7-20, 23-28 entry H          line    70 file /home/r08543048/miniconda3/share/psi4/basis/jun-cc-pvtz-jkfit.gbs 

  ==> Pre-Iterations <==

   -------------------------------------------------------
    Irrep   Nso     Nmo     Nalpha   Nbeta   Ndocc  Nsocc
   -------------------------------------------------------
     A        592     592       0       0       0       0
   -------------------------------------------------------
    Total     592     592       9       9       9       0
   -------------------------------------------------------

  ==> Integral Setup <==

  ==> DiskDFJK: Density-Fitted J/K Matrices <==

    J tasked:                  Yes
    K tasked:                  Yes
    wK tasked:                  No
    OpenMP threads:              1
    Integrals threads:           1
    Memory [MiB]:            15735
    Algorithm:                Core
    Integral Cache:           LOAD
    Schwarz Cutoff:          1E-12
    Fitting Condition:       1E-10

   => Auxiliary Basis Set <=

  Basis Set: (JUN-CC-PVTZ AUX)
    Blend: JUN-CC-PVTZ-JKFIT
    Number of shells: 432
    Number of basis function: 1360
    Number of Cartesian functions: 1628
    Spherical Harmonics?: true
    Max angular momentum: 4

  Minimum eigenvalue in the overlap matrix is 2.4453600321E-05.
  Using Symmetric Orthogonalization.

  SCF Guess: Superposition of Atomic Densities via on-the-fly atomic UHF.

  ==> Iterations <==

                           Total Energy        Delta E     RMS |[F,P]|

   @DF-RHF iter SAD:   -78.65971548725723   -7.86597e+01   0.00000e+00 
   @DF-RHF iter   1:   -79.14811489739874   -4.88399e-01   7.33543e-04 DIIS
   @DF-RHF iter   2:   -79.23892073589357   -9.08058e-02   3.35014e-04 DIIS
   @DF-RHF iter   3:   -79.25885776745309   -1.99370e-02   5.47786e-05 DIIS
   @DF-RHF iter   4:   -79.26012364736737   -1.26588e-03   7.60084e-06 DIIS
   @DF-RHF iter   5:   -79.26015151275341   -2.78654e-05   1.35911e-06 DIIS
   @DF-RHF iter   6:   -79.26015235500795   -8.42255e-07   1.63314e-07 DIIS
   @DF-RHF iter   7:   -79.26015236792253   -1.29146e-08   1.82072e-08 DIIS
   @DF-RHF iter   8:   -79.26015236805675   -1.34222e-10   3.35760e-09 DIIS
  Energy and wave function converged.


  ==> Post-Iterations <==

    Orbital Energies [Eh]
    ---------------------

    Doubly Occupied:                                                      

       1A    -11.210569     2A    -11.209957     3A     -1.018434  
       4A     -0.841613     5A     -0.597037     6A     -0.596953  
       7A     -0.509898     8A     -0.486563     9A     -0.486509  

    Virtual:                                                              

      10A      0.027583    11A      0.036833    12A      0.046925  
      13A      0.056343    14A      0.061855    15A      0.066953  
      16A      0.068501    17A      0.081824    18A      0.082622  
      19A      0.089980    20A      0.098608    21A      0.102300  
      22A      0.105127    23A      0.107150    24A      0.115698  
      25A      0.116453    26A      0.126618    27A      0.127670  
      28A      0.132893    29A      0.143592    30A      0.145371  
      31A      0.148934    32A      0.152583    33A      0.158472  
      34A      0.163031    35A      0.167868    36A      0.186236  
      37A      0.186984    38A      0.195320    39A      0.199770  
      40A      0.200523    41A      0.207270    42A      0.245898  
      43A      0.251853    44A      0.258622    45A      0.261022  
      46A      0.265481    47A      0.278541    48A      0.287883  
      49A      0.293985    50A      0.296251    51A      0.298428  
      52A      0.308751    53A      0.310522    54A      0.315778  
      55A      0.318666    56A      0.324150    57A      0.329676  
      58A      0.337457    59A      0.341068    60A      0.343378  
      61A      0.347929    62A      0.349426    63A      0.354517  
      64A      0.355290    65A      0.362591    66A      0.369116  
      67A      0.373640    68A      0.374339    69A      0.383630  
      70A      0.387551    71A      0.392487    72A      0.397203  
      73A      0.404655    74A      0.413344    75A      0.414952  
      76A      0.418787    77A      0.426976    78A      0.440839  
      79A      0.448786    80A      0.456488    81A      0.468796  
      82A      0.484058    83A      0.488346    84A      0.492955  
      85A      0.500388    86A      0.506085    87A      0.508855  
      88A      0.515920    89A      0.525015    90A      0.537752  
      91A      0.541729    92A      0.544585    93A      0.553823  
      94A      0.564492    95A      0.567104    96A      0.579371  
      97A      0.580675    98A      0.585702    99A      0.598684  
     100A      0.617863   101A      0.623214   102A      0.631453  
     103A      0.637650   104A      0.642279   105A      0.648143  
     106A      0.653064   107A      0.662637   108A      0.664075  
     109A      0.669093   110A      0.675658   111A      0.679345  
     112A      0.682549   113A      0.689322   114A      0.694443  
     115A      0.696485   116A      0.705266   117A      0.717543  
     118A      0.737850   119A      0.745413   120A      0.752319  
     121A      0.760302   122A      0.763748   123A      0.778609  
     124A      0.784762   125A      0.789224   126A      0.791533  
     127A      0.809121   128A      0.812443   129A      0.828250  
     130A      0.843017   131A      0.852789   132A      0.863218  
     133A      0.871118   134A      0.884335   135A      0.891867  
     136A      0.926926   137A      0.944873   138A      0.972607  
     139A      0.982374   140A      0.985112   141A      0.991930  
     142A      1.018802   143A      1.047949   144A      1.063789  
     145A      1.072489   146A      1.079551   147A      1.083196  
     148A      1.102187   149A      1.124656   150A      1.138694  
     151A      1.142591   152A      1.148908   153A      1.172629  
     154A      1.178026   155A      1.187070   156A      1.194940  
     157A      1.203118   158A      1.211310   159A      1.219325  
     160A      1.223181   161A      1.233499   162A      1.235643  
     163A      1.253766   164A      1.256059   165A      1.264886  
     166A      1.277712   167A      1.291357   168A      1.298653  
     169A      1.299778   170A      1.310470   171A      1.320715  
     172A      1.324390   173A      1.329526   174A      1.332061  
     175A      1.344099   176A      1.345775   177A      1.350548  
     178A      1.352145   179A      1.354976   180A      1.369670  
     181A      1.372193   182A      1.375755   183A      1.383156  
     184A      1.384766   185A      1.390950   186A      1.399161  
     187A      1.403824   188A      1.414060   189A      1.423717  
     190A      1.428976   191A      1.432522   192A      1.443826  
     193A      1.449173   194A      1.461993   195A      1.474391  
     196A      1.479663   197A      1.486658   198A      1.501704  
     199A      1.508232   200A      1.511213   201A      1.528417  
     202A      1.535561   203A      1.544887   204A      1.553105  
     205A      1.556473   206A      1.576630   207A      1.579219  
     208A      1.585224   209A      1.591137   210A      1.593651  
     211A      1.602628   212A      1.608760   213A      1.612214  
     214A      1.626509   215A      1.633013   216A      1.640740  
     217A      1.656686   218A      1.668828   219A      1.670295  
     220A      1.674232   221A      1.679455   222A      1.697902  
     223A      1.709356   224A      1.725551   225A      1.732122  
     226A      1.750268   227A      1.770912   228A      1.783646  
     229A      1.786490   230A      1.800362   231A      1.816742  
     232A      1.821431   233A      1.846197   234A      1.852384  
     235A      1.868285   236A      1.875359   237A      1.902426  
     238A      1.925612   239A      1.931172   240A      1.942389  
     241A      1.943376   242A      1.958878   243A      1.968542  
     244A      1.984418   245A      2.004187   246A      2.033669  
     247A      2.037297   248A      2.055771   249A      2.078698  
     250A      2.117234   251A      2.138909   252A      2.159795  
     253A      2.175391   254A      2.205235   255A      2.251739  
     256A      2.259925   257A      2.261484   258A      2.278344  
     259A      2.308550   260A      2.324110   261A      2.352517  
     262A      2.379601   263A      2.390133   264A      2.426127  
     265A      2.437342   266A      2.458062   267A      2.468583  
     268A      2.474700   269A      2.477138   270A      2.480347  
     271A      2.518389   272A      2.556453   273A      2.638883  
     274A      2.682893   275A      2.700975   276A      2.730354  
     277A      2.744680   278A      2.758548   279A      2.775936  
     280A      2.795522   281A      2.804508   282A      2.808051  
     283A      2.854757   284A      2.878679   285A      2.978166  
     286A      3.005480   287A      3.083994   288A      3.124692  
     289A      3.138956   290A      3.191293   291A      3.214338  
     292A      3.228648   293A      3.244937   294A      3.287622  
     295A      3.317848   296A      3.350083   297A      3.357313  
     298A      3.438460   299A      3.444976   300A      3.457574  
     301A      3.472014   302A      3.500902   303A      3.514847  
     304A      3.522849   305A      3.535215   306A      3.550419  
     307A      3.557326   308A      3.560031   309A      3.562051  
     310A      3.571716   311A      3.575275   312A      3.583726  
     313A      3.585972   314A      3.589282   315A      3.596115  
     316A      3.607631   317A      3.615348   318A      3.632208  
     319A      3.640175   320A      3.643858   321A      3.655057  
     322A      3.692598   323A      3.697929   324A      3.725602  
     325A      3.742482   326A      3.751224   327A      3.770252  
     328A      3.779202   329A      3.790071   330A      3.799636  
     331A      3.811909   332A      3.824417   333A      3.830104  
     334A      3.832782   335A      3.846143   336A      3.849182  
     337A      3.856313   338A      3.860555   339A      3.865037  
     340A      3.872007   341A      3.877664   342A      3.884364  
     343A      3.898036   344A      3.907424   345A      3.912037  
     346A      3.915576   347A      3.918775   348A      3.924810  
     349A      3.933499   350A      3.944893   351A      3.966745  
     352A      3.973753   353A      3.976892   354A      3.997776  
     355A      4.008128   356A      4.045374   357A      4.058594  
     358A      4.075557   359A      4.098807   360A      4.107104  
     361A      4.133332   362A      4.154486   363A      4.166603  
     364A      4.177428   365A      4.183532   366A      4.191744  
     367A      4.194779   368A      4.199624   369A      4.213306  
     370A      4.224158   371A      4.235911   372A      4.252419  
     373A      4.255205   374A      4.271478   375A      4.280170  
     376A      4.287236   377A      4.312220   378A      4.318836  
     379A      4.334405   380A      4.336856   381A      4.348291  
     382A      4.382055   383A      4.387909   384A      4.397560  
     385A      4.399474   386A      4.418882   387A      4.435798  
     388A      4.443076   389A      4.456402   390A      4.476862  
     391A      4.483219   392A      4.486055   393A      4.491232  
     394A      4.505533   395A      4.505878   396A      4.510724  
     397A      4.518471   398A      4.526791   399A      4.548365  
     400A      4.550541   401A      4.555323   402A      4.564210  
     403A      4.572778   404A      4.579109   405A      4.593885  
     406A      4.595972   407A      4.615891   408A      4.629184  
     409A      4.648498   410A      4.652068   411A      4.662319  
     412A      4.665840   413A      4.673574   414A      4.679990  
     415A      4.690520   416A      4.696260   417A      4.699363  
     418A      4.711032   419A      4.717326   420A      4.731711  
     421A      4.738414   422A      4.742061   423A      4.751419  
     424A      4.754259   425A      4.772657   426A      4.774083  
     427A      4.782281   428A      4.785875   429A      4.794957  
     430A      4.800828   431A      4.810456   432A      4.817752  
     433A      4.826123   434A      4.833892   435A      4.841499  
     436A      4.844363   437A      4.855518   438A      4.863124  
     439A      4.866375   440A      4.881002   441A      4.889047  
     442A      4.892959   443A      4.894478   444A      4.916295  
     445A      4.923895   446A      4.930489   447A      4.934426  
     448A      4.941791   449A      4.954358   450A      4.966292  
     451A      4.975562   452A      4.983095   453A      4.989795  
     454A      4.995695   455A      5.007612   456A      5.020084  
     457A      5.031681   458A      5.032669   459A      5.038907  
     460A      5.053483   461A      5.065611   462A      5.076937  
     463A      5.095633   464A      5.107217   465A      5.126284  
     466A      5.167977   467A      5.175745   468A      5.178862  
     469A      5.196575   470A      5.204232   471A      5.221734  
     472A      5.223184   473A      5.237519   474A      5.249191  
     475A      5.257949   476A      5.266042   477A      5.281234  
     478A      5.294185   479A      5.306801   480A      5.312395  
     481A      5.327708   482A      5.340251   483A      5.346354  
     484A      5.364806   485A      5.378845   486A      5.388910  
     487A      5.391589   488A      5.449700   489A      5.470568  
     490A      5.496230   491A      5.512604   492A      5.549245  
     493A      5.565685   494A      5.580744   495A      5.623347  
     496A      5.638172   497A      5.645778   498A      5.682685  
     499A      5.690612   500A      5.697859   501A      5.705307  
     502A      5.726728   503A      5.748462   504A      5.765888  
     505A      5.779566   506A      5.791870   507A      5.797255  
     508A      5.802758   509A      5.829245   510A      5.851868  
     511A      5.873149   512A      5.896816   513A      5.914203  
     514A      5.934493   515A      5.938885   516A      5.969736  
     517A      5.978074   518A      5.999659   519A      6.035002  
     520A      6.043806   521A      6.059551   522A      6.065733  
     523A      6.099229   524A      6.124420   525A      6.158984  
     526A      6.254619   527A      6.292420   528A      6.338847  
     529A      6.352581   530A      6.354111   531A      6.385318  
     532A      6.395615   533A      6.399859   534A      6.431298  
     535A      6.465839   536A      6.473419   537A      6.476811  
     538A      6.497206   539A      6.509696   540A      6.530678  
     541A      6.542882   542A      6.546308   543A      6.563656  
     544A      6.574244   545A      6.690277   546A      6.786605  
     547A      6.788415   548A      6.805932   549A      6.934038  
     550A      6.941050   551A      6.953266   552A      7.102994  
     553A      7.258251   554A      7.414739   555A      7.522678  
     556A      7.553424   557A      7.577547   558A      7.579420  
     559A      7.607252   560A      7.642820   561A      7.689609  
     562A      7.694900   563A      7.714509   564A      7.733527  
     565A      7.753211   566A      7.804136   567A      7.808930  
     568A      7.824412   569A      7.884054   570A      7.909365  
     571A      7.924227   572A      8.097134   573A      8.171686  
     574A      8.308340   575A      8.422581   576A      8.613773  
     577A      8.689699   578A      8.805508   579A      9.621116  
     580A      9.640057   581A      9.724887   582A      9.849506  
     583A      9.879101   584A      9.922710   585A     14.337519  
     586A     14.794504   587A     43.828416   588A     44.601476  
     589A     45.425941   590A     45.642757   591A     45.760870  
     592A     46.006238  

    Final Occupation by Irrep:
              A 
    DOCC [     9 ]

  @DF-RHF Final Energy:   -79.26015236805675

   => Energetics <=

    Nuclear Repulsion Energy =             42.3366182972990117
    One-Electron Energy =                -189.2784773830610447
    Two-Electron Energy =                  67.6817067177052678
    Total Energy =                        -79.2601523680567510

Computation Completed


Properties will be evaluated at   0.000000,   0.000000,   0.000000 [a0]

Properties computed using the SCF density matrix

  Nuclear Dipole Moment: [e a0]
     X:   -14.8598      Y:    93.9086      Z:    -0.0679

  Electronic Dipole Moment: [e a0]
     X:    14.8600      Y:   -93.9082      Z:     0.0678

  Dipole Moment: [e a0]
     X:     0.0002      Y:     0.0004      Z:    -0.0000     Total:     0.0004

  Dipole Moment: [D]
     X:     0.0005      Y:     0.0010      Z:    -0.0001     Total:     0.0011


*** tstop() called on r282 at Fri Sep 10 21:09:28 2021
Module time:
	user time   =      51.63 seconds =       0.86 minutes
	system time =       0.84 seconds =       0.01 minutes
	total time  =         52 seconds =       0.87 minutes
Total time:
	user time   =     214.81 seconds =       3.58 minutes
	system time =       3.96 seconds =       0.07 minutes
	total time  =        219 seconds =       3.65 minutes
  Constructing Basis Sets for SAPT...

   => Loading Basis Set <=

    Name: (JUN-CC-PVTZ AUX)
    Role: RIFIT
    Keyword: DF_BASIS_SAPT
    atoms 1-6, 21-22  entry C          line   132 file /home/r08543048/miniconda3/share/psi4/basis/jun-cc-pvtz-ri.gbs 
    atoms 7-20, 23-28 entry H          line    30 file /home/r08543048/miniconda3/share/psi4/basis/jun-cc-pvtz-ri.gbs 


  //>>>>>>>>>>>>>>>>>>>>>>>>>>>>>>>>>>>//
  //               SAPT0               //
  //<<<<<<<<<<<<<<<<<<<<<<<<<<<<<<<<<<<//


*** tstart() called on r282
*** at Fri Sep 10 21:09:28 2021

        SAPT0  
    Ed Hohenstein
     6 June 2009

      Orbital Information
  --------------------------
    NSO        =       592
    NMO        =       592
    NRI        =      1376
    NOCC A     =        25
    NOCC B     =         9
    FOCC A     =         0
    FOCC B     =         0
    NVIR A     =       567
    NVIR B     =       583

    Elst10,r            =    -0.001557230279 [Eh]
    Exch10              =     0.005020832909 [Eh]
    Exch10 (S^2)        =     0.005013813833 [Eh]

    Iter     Energy [mEh]          dE [mEh]         Residual      Time [s]
       1      -0.26729922       0.267299223       2.019993655             2
       2      -0.32128066       0.053981435       0.334935488             3
       3      -0.32122176      -0.000058899       0.103788886             5
       4      -0.32058305      -0.000638705       0.025965800             7
       5      -0.32059650       0.000013445       0.007779379             9
       6      -0.32063299       0.000036491       0.001595433            11
       7      -0.32063037      -0.000002625       0.000446307            12
       8      -0.32062919      -0.000001173       0.000111383            14
       9      -0.32062934       0.000000142       0.000029934            16
      10      -0.32062940       0.000000066       0.000006489            18
      11      -0.32062939      -0.000000012       0.000001589            20
      12      -0.32062939      -0.000000002       0.000000465            21

    CHF Iterations converged


    Iter     Energy [mEh]          dE [mEh]         Residual      Time [s]
       1      -0.36771048       0.367710481       2.420603507             2
       2      -0.44796976       0.080259277       0.431648268             3
       3      -0.44796366      -0.000006100       0.133796630             5
       4      -0.44693310      -0.001030559       0.028272437             6
       5      -0.44704545       0.000112352       0.006101363             8
       6      -0.44706276       0.000017309       0.001017050             9
       7      -0.44705800      -0.000004761       0.000177847            10
       8      -0.44705840       0.000000400       0.000043100            12
       9      -0.44705844       0.000000045       0.000011183            13
      10      -0.44705843      -0.000000016       0.000002068            15
      11      -0.44705842      -0.000000003       0.000000411            16

    CHF Iterations converged

    Ind20,r (A<-B)      =    -0.000320629388 [Eh]
    Ind20,r (B<-A)      =    -0.000447058424 [Eh]
    Ind20,r             =    -0.000767687813 [Eh]
    Exch-Ind20,r (A<-B) =     0.000267955857 [Eh]
    Exch-Ind20,r (B<-A) =     0.000407732797 [Eh]
    Exch-Ind20,r        =     0.000675688653 [Eh]
    Disp20              =    -0.007145189064 [Eh]
    Disp20 (SS)         =    -0.003572594532 [Eh]
    Disp20 (OS)         =    -0.003572594532 [Eh]
    Exch-Disp20         =     0.000562768196 [Eh]
    Exch-Disp20 (SS)    =     0.000370211312 [Eh]
    Exch-Disp20 (OS)    =     0.000192556884 [Eh]

    SAPT Results 
  --------------------------------------------------------------------------------------------------------
    Electrostatics                 -1.55723028 [mEh]      -0.97717675 [kcal/mol]      -4.08850753 [kJ/mol]
      Elst10,r                     -1.55723028 [mEh]      -0.97717675 [kcal/mol]      -4.08850753 [kJ/mol]

    Exchange                        5.02083291 [mEh]       3.15062022 [kcal/mol]      13.18219499 [kJ/mol]
      Exch10                        5.02083291 [mEh]       3.15062022 [kcal/mol]      13.18219499 [kJ/mol]
      Exch10(S^2)                   5.01381383 [mEh]       3.14621568 [kcal/mol]      13.16376640 [kJ/mol]

    Induction                      -0.43044696 [mEh]      -0.27010954 [kcal/mol]      -1.13013833 [kJ/mol]
      Ind20,r                      -0.76768781 [mEh]      -0.48173138 [kcal/mol]      -2.01556407 [kJ/mol]
      Exch-Ind20,r                  0.67568865 [mEh]       0.42400103 [kcal/mol]       1.77402031 [kJ/mol]
      delta HF,r (2)               -0.33844780 [mEh]      -0.21237920 [kcal/mol]      -0.88859457 [kJ/mol]

    Dispersion                     -6.58242087 [mEh]      -4.13053146 [kcal/mol]     -17.28214361 [kJ/mol]
      Disp20                       -7.14518906 [mEh]      -4.48367383 [kcal/mol]     -18.75969130 [kJ/mol]
      Exch-Disp20                   0.56276820 [mEh]       0.35314237 [kcal/mol]       1.47754770 [kJ/mol]
      Disp20 (SS)                  -3.57259453 [mEh]      -2.24183691 [kcal/mol]      -9.37984565 [kJ/mol]
      Disp20 (OS)                  -3.57259453 [mEh]      -2.24183691 [kcal/mol]      -9.37984565 [kJ/mol]
      Exch-Disp20 (SS)              0.37021131 [mEh]       0.23231111 [kcal/mol]       0.97198967 [kJ/mol]
      Exch-Disp20 (OS)              0.19255688 [mEh]       0.12083127 [kcal/mol]       0.50555803 [kJ/mol]

  Total HF                          3.03315567 [mEh]       1.90333392 [kcal/mol]       7.96354912 [kJ/mol]
  Total SAPT0                      -3.54926519 [mEh]      -2.22719753 [kcal/mol]      -9.31859448 [kJ/mol]

  Special recipe for scaled SAPT0 (see Manual):
    Electrostatics sSAPT0          -1.55723028 [mEh]      -0.97717675 [kcal/mol]      -4.08850753 [kJ/mol]
    Exchange sSAPT0                 5.02083291 [mEh]       3.15062022 [kcal/mol]      13.18219499 [kJ/mol]
    Induction sSAPT0               -0.42760520 [mEh]      -0.26832631 [kcal/mol]      -1.12267729 [kJ/mol]
    Dispersion sSAPT0              -6.58005402 [mEh]      -4.12904624 [kcal/mol]     -17.27592945 [kJ/mol]
  Total sSAPT0                     -3.54405659 [mEh]      -2.22392908 [kcal/mol]      -9.30491928 [kJ/mol]
  --------------------------------------------------------------------------------------------------------

*** tstop() called on r282 at Fri Sep 10 21:12:47 2021
Module time:
	user time   =     175.00 seconds =       2.92 minutes
	system time =      23.82 seconds =       0.40 minutes
	total time  =        199 seconds =       3.32 minutes
Total time:
	user time   =     390.00 seconds =       6.50 minutes
	system time =      27.78 seconds =       0.46 minutes
	total time  =        418 seconds =       6.97 minutes

    Psi4 stopped on: Friday, 10 September 2021 09:12PM
    Psi4 wall time for execution: 0:06:58.26

*** Psi4 exiting successfully. Buy a developer a beer!
