
    -----------------------------------------------------------------------
          Psi4: An Open-Source Ab Initio Electronic Structure Package
                               Psi4 1.3.2 release

                         Git: Rev {HEAD} ecbda83 


    R. M. Parrish, L. A. Burns, D. G. A. Smith, A. C. Simmonett,
    A. E. DePrince III, E. G. Hohenstein, U. Bozkaya, A. Yu. Sokolov,
    R. Di Remigio, R. M. Richard, J. F. Gonthier, A. M. James,
    H. R. McAlexander, A. Kumar, M. Saitow, X. Wang, B. P. Pritchard,
    P. Verma, H. F. Schaefer III, K. Patkowski, R. A. King, E. F. Valeev,
    F. A. Evangelista, J. M. Turney, T. D. Crawford, and C. D. Sherrill,
    J. Chem. Theory Comput. 13(7) pp 3185--3197 (2017).
    (doi: 10.1021/acs.jctc.7b00174)


                         Additional Contributions by
    P. Kraus, H. Kruse, M. H. Lechner, M. C. Schieber, R. A. Shaw,
    A. Alenaizan, R. Galvelis, Z. L. Glick, S. Lehtola, and J. P. Misiewicz

    -----------------------------------------------------------------------


    Psi4 started on: Friday, 10 September 2021 08:37PM

    Process ID: 57092
    Host:       r282
    PSIDATADIR: /home/r08543048/miniconda3/share/psi4
    Memory:     500.0 MiB
    Threads:    1
    
  ==> Input File <==

--------------------------------------------------------------------------
# Any line starting with the # character is a comment line
#! Sample  computation

memory 22 gb

molecule Dimer {
0 1
 C  1.950648   -2.043035   -0.416239
 H  1.111758   -2.357901   -1.038805
 H  2.765954   -1.755546   -1.081430
 H  2.278963   -2.905001    0.164052
 C  1.549365   -0.878953    0.481065
 H  2.391213   -0.595980    1.118657
 H  0.743880   -1.189986    1.151234
 C  1.095697    0.338550   -0.313932
 H  1.914600    0.674039   -0.958990
 H  0.276339    0.051323   -0.981676
 C  0.642500    1.495122    0.567411
 H  1.449422    1.758508    1.256639
 H -0.196421    1.164690    1.186545
 C  0.238040    2.721341   -0.241687
 H  -0.573092    2.482144   -0.930938
 H  -0.096990    3.535620    0.400414
 H   1.077877    3.085214   -0.834974



 --
0 1
 C -2.263551   -1.381700    0.341559
 C -2.847696   -0.145522   -0.331864
 H -1.984974   -1.173463    1.374319
 H -1.370806   -1.729815   -0.177408
 H -2.981453   -2.201137    0.351281
 H -2.134136    0.677802   -0.331164
 H -3.745815    0.195458    0.181905
 H -3.116334   -0.350791   -1.367541




units angstrom

no_reorient
symmetry c1
}

set globals{
  basis jun-cc-pvtz
}

energy('sapt0')


--------------------------------------------------------------------------

  Memory set to  20.489 GiB by Python driver.

  //>>>>>>>>>>>>>>>>>>>>>>>>>>>>>>>>>>>//
  //              Dimer HF             //
  //<<<<<<<<<<<<<<<<<<<<<<<<<<<<<<<<<<<//


*** tstart() called on r282
*** at Fri Sep 10 20:37:50 2021

   => Loading Basis Set <=

    Name: JUN-CC-PVTZ
    Role: ORBITAL
    Keyword: BASIS
    atoms 1, 5, 8, 11, 14, 18-19              entry C          line   217 file /home/r08543048/miniconda3/share/psi4/basis/jun-cc-pvtz.gbs 
    atoms 2-4, 6-7, 9-10, 12-13, 15-17, 20-25 entry H          line    36 file /home/r08543048/miniconda3/share/psi4/basis/jun-cc-pvtz.gbs 


         ---------------------------------------------------------
                                   SCF
               by Justin Turney, Rob Parrish, Andy Simmonett
                          and Daniel G. A. Smith
                              RHF Reference
                        1 Threads,  20980 MiB Core
         ---------------------------------------------------------

  ==> Geometry <==

    Molecular point group: c1
    Full point group: C1

    Geometry (in Angstrom), charge = 0, multiplicity = 1:

       Center              X                  Y                   Z               Mass       
    ------------   -----------------  -----------------  -----------------  -----------------
         C            1.929374591274    -2.049201450483    -0.421269539391    12.000000000000
         H            1.090484591274    -2.364067450483    -1.043835539391     1.007825032230
         H            2.744680591274    -1.761712450483    -1.086460539391     1.007825032230
         H            2.257689591274    -2.911167450483     0.159021460609     1.007825032230
         C            1.528091591274    -0.885119450483     0.476034460609    12.000000000000
         H            2.369939591274    -0.602146450483     1.113626460609     1.007825032230
         H            0.722606591274    -1.196152450483     1.146203460609     1.007825032230
         C            1.074423591274     0.332383549517    -0.318962539391    12.000000000000
         H            1.893326591274     0.667872549517    -0.964020539391     1.007825032230
         H            0.255065591274     0.045156549517    -0.986706539391     1.007825032230
         C            0.621226591274     1.488955549517     0.562380460609    12.000000000000
         H            1.428148591274     1.752341549517     1.251608460609     1.007825032230
         H           -0.217694408726     1.158523549517     1.181514460609     1.007825032230
         C            0.216766591274     2.715174549517    -0.246717539391    12.000000000000
         H           -0.594365408726     2.475977549517    -0.935968539391     1.007825032230
         H           -0.118263408726     3.529453549517     0.395383460609     1.007825032230
         H            1.056603591274     3.079047549517    -0.840004539391     1.007825032230
         C           -2.284824408726    -1.387866450483     0.336528460609    12.000000000000
         C           -2.868969408726    -0.151688450483    -0.336894539391    12.000000000000
         H           -2.006247408726    -1.179629450483     1.369288460609     1.007825032230
         H           -1.392079408726    -1.735981450483    -0.182438539391     1.007825032230
         H           -3.002726408726    -2.207303450483     0.346250460609     1.007825032230
         H           -2.155409408726     0.671635549517    -0.336194539391     1.007825032230
         H           -3.767088408726     0.189291549517     0.176874460609     1.007825032230
         H           -3.137607408726    -0.356957450483    -1.372571539391     1.007825032230

  Running in c1 symmetry.

  Rotational constants: A =      0.05798  B =      0.04769  C =      0.02875 [cm^-1]
  Rotational constants: A =   1738.05801  B =   1429.59850  C =    861.84333 [MHz]
  Nuclear repulsion =  321.385942143216994

  Charge       = 0
  Multiplicity = 1
  Electrons    = 60
  Nalpha       = 30
  Nbeta        = 30

  ==> Algorithm <==

  SCF Algorithm Type is DF.
  DIIS enabled.
  MOM disabled.
  Fractional occupation disabled.
  Guess Type is SAD.
  Energy threshold   = 1.00e-08
  Density threshold  = 1.00e-08
  Integral threshold = 0.00e+00

  ==> Primary Basis <==

  Basis Set: JUN-CC-PVTZ
    Blend: JUN-CC-PVTZ
    Number of shells: 199
    Number of basis function: 525
    Number of Cartesian functions: 585
    Spherical Harmonics?: true
    Max angular momentum: 3

   => Loading Basis Set <=

    Name: (JUN-CC-PVTZ AUX)
    Role: JKFIT
    Keyword: DF_BASIS_SCF
    atoms 1, 5, 8, 11, 14, 18-19              entry C          line   152 file /home/r08543048/miniconda3/share/psi4/basis/jun-cc-pvtz-jkfit.gbs 
    atoms 2-4, 6-7, 9-10, 12-13, 15-17, 20-25 entry H          line    70 file /home/r08543048/miniconda3/share/psi4/basis/jun-cc-pvtz-jkfit.gbs 

  ==> Pre-Iterations <==

   -------------------------------------------------------
    Irrep   Nso     Nmo     Nalpha   Nbeta   Ndocc  Nsocc
   -------------------------------------------------------
     A        525     525       0       0       0       0
   -------------------------------------------------------
    Total     525     525      30      30      30       0
   -------------------------------------------------------

  ==> Integral Setup <==

  ==> DiskDFJK: Density-Fitted J/K Matrices <==

    J tasked:                  Yes
    K tasked:                  Yes
    wK tasked:                  No
    OpenMP threads:              1
    Integrals threads:           1
    Memory [MiB]:            15735
    Algorithm:                Core
    Integral Cache:           SAVE
    Schwarz Cutoff:          1E-12
    Fitting Condition:       1E-10

   => Auxiliary Basis Set <=

  Basis Set: (JUN-CC-PVTZ AUX)
    Blend: JUN-CC-PVTZ-JKFIT
    Number of shells: 383
    Number of basis function: 1205
    Number of Cartesian functions: 1442
    Spherical Harmonics?: true
    Max angular momentum: 4

  Minimum eigenvalue in the overlap matrix is 3.1128068308E-05.
  Using Symmetric Orthogonalization.

  SCF Guess: Superposition of Atomic Densities via on-the-fly atomic UHF.

  ==> Iterations <==

                           Total Energy        Delta E     RMS |[F,P]|

   @DF-RHF iter SAD:  -274.66916626198810   -2.74669e+02   0.00000e+00 
   @DF-RHF iter   1:  -275.30216784795994   -6.33002e-01   1.44746e-03 DIIS
   @DF-RHF iter   2:  -275.59479281814828   -2.92625e-01   6.56927e-04 DIIS
   @DF-RHF iter   3:  -275.65664615433349   -6.18533e-02   1.17578e-04 DIIS
   @DF-RHF iter   4:  -275.66082974840350   -4.18359e-03   2.37206e-05 DIIS
   @DF-RHF iter   5:  -275.66095707558981   -1.27327e-04   7.59097e-06 DIIS
   @DF-RHF iter   6:  -275.66097003886421   -1.29633e-05   1.19773e-06 DIIS
   @DF-RHF iter   7:  -275.66097046620109   -4.27337e-07   2.38271e-07 DIIS
   @DF-RHF iter   8:  -275.66097048322149   -1.70204e-08   5.01075e-08 DIIS
   @DF-RHF iter   9:  -275.66097048391936   -6.97867e-10   1.49215e-08 DIIS
   @DF-RHF iter  10:  -275.66097048399098   -7.16227e-11   3.92582e-09 DIIS
  Energy and wave function converged.


  ==> Post-Iterations <==

    Orbital Energies [Eh]
    ---------------------

    Doubly Occupied:                                                      

       1A    -11.213035     2A    -11.212147     3A    -11.210913  
       4A    -11.210223     5A    -11.210175     6A    -11.207681  
       7A    -11.207465     8A     -1.081231     9A     -1.019375  
      10A     -1.015289    11A     -0.918786    12A     -0.842719  
      13A     -0.819620    14A     -0.784773    15A     -0.650532  
      16A     -0.600289    17A     -0.598273    18A     -0.595686  
      19A     -0.591240    20A     -0.553616    21A     -0.547482  
      22A     -0.526063    23A     -0.510580    24A     -0.495682  
      25A     -0.487789    26A     -0.485818    27A     -0.475808  
      28A     -0.461285    29A     -0.458686    30A     -0.446353  

    Virtual:                                                              

      31A      0.050249    32A      0.051079    33A      0.054372  
      34A      0.063377    35A      0.070929    36A      0.076517  
      37A      0.077489    38A      0.087177    39A      0.088200  
      40A      0.105492    41A      0.109807    42A      0.115128  
      43A      0.117477    44A      0.118535    45A      0.124458  
      46A      0.131094    47A      0.142267    48A      0.147698  
      49A      0.155924    50A      0.158976    51A      0.167073  
      52A      0.188165    53A      0.192200    54A      0.201132  
      55A      0.208888    56A      0.214551    57A      0.219524  
      58A      0.222928    59A      0.250565    60A      0.254318  
      61A      0.259765    62A      0.266491    63A      0.273751  
      64A      0.282536    65A      0.287824    66A      0.295807  
      67A      0.300514    68A      0.302265    69A      0.308608  
      70A      0.319354    71A      0.323577    72A      0.324670  
      73A      0.333241    74A      0.336729    75A      0.338536  
      76A      0.342037    77A      0.345846    78A      0.355163  
      79A      0.355861    80A      0.361245    81A      0.372484  
      82A      0.375878    83A      0.381611    84A      0.383916  
      85A      0.386094    86A      0.390624    87A      0.397276  
      88A      0.406500    89A      0.416221    90A      0.424821  
      91A      0.432804    92A      0.435988    93A      0.440171  
      94A      0.447863    95A      0.458895    96A      0.464653  
      97A      0.474787    98A      0.487639    99A      0.502022  
     100A      0.505487   101A      0.510913   102A      0.517253  
     103A      0.527106   104A      0.539189   105A      0.541113  
     106A      0.547337   107A      0.552703   108A      0.563627  
     109A      0.568032   110A      0.587205   111A      0.592033  
     112A      0.611507   113A      0.617082   114A      0.626068  
     115A      0.626408   116A      0.646137   117A      0.661504  
     118A      0.671781   119A      0.675072   120A      0.685086  
     121A      0.697939   122A      0.704991   123A      0.715742  
     124A      0.735625   125A      0.738762   126A      0.743941  
     127A      0.749470   128A      0.765105   129A      0.770174  
     130A      0.777502   131A      0.781647   132A      0.793418  
     133A      0.805671   134A      0.811323   135A      0.820251  
     136A      0.824439   137A      0.831511   138A      0.834631  
     139A      0.839703   140A      0.844037   141A      0.850771  
     142A      0.856158   143A      0.869100   144A      0.874050  
     145A      0.882720   146A      0.894394   147A      0.904504  
     148A      0.908185   149A      0.910794   150A      0.922808  
     151A      0.939048   152A      0.949606   153A      0.956944  
     154A      0.965269   155A      0.974653   156A      0.982696  
     157A      0.990695   158A      1.001523   159A      1.017922  
     160A      1.026646   161A      1.035194   162A      1.041921  
     163A      1.073308   164A      1.084755   165A      1.106780  
     166A      1.122903   167A      1.137736   168A      1.151815  
     169A      1.165340   170A      1.173675   171A      1.181480  
     172A      1.205984   173A      1.227486   174A      1.242141  
     175A      1.250755   176A      1.263094   177A      1.269879  
     178A      1.295359   179A      1.310061   180A      1.313345  
     181A      1.321304   182A      1.331698   183A      1.338871  
     184A      1.344429   185A      1.352394   186A      1.364178  
     187A      1.365177   188A      1.376921   189A      1.389200  
     190A      1.401244   191A      1.407753   192A      1.410876  
     193A      1.416544   194A      1.439425   195A      1.441611  
     196A      1.447449   197A      1.455332   198A      1.464452  
     199A      1.484760   200A      1.490340   201A      1.500972  
     202A      1.510739   203A      1.513053   204A      1.515201  
     205A      1.532129   206A      1.548783   207A      1.563178  
     208A      1.567847   209A      1.583703   210A      1.587820  
     211A      1.588610   212A      1.603310   213A      1.610068  
     214A      1.613826   215A      1.622684   216A      1.635776  
     217A      1.652911   218A      1.660699   219A      1.672912  
     220A      1.688351   221A      1.690817   222A      1.697653  
     223A      1.716503   224A      1.720311   225A      1.728629  
     226A      1.748820   227A      1.760658   228A      1.784404  
     229A      1.789767   230A      1.801739   231A      1.815013  
     232A      1.828375   233A      1.835664   234A      1.858281  
     235A      1.868519   236A      1.880121   237A      1.896982  
     238A      1.915255   239A      1.922980   240A      1.930666  
     241A      1.937856   242A      1.945611   243A      1.963610  
     244A      2.004492   245A      2.037946   246A      2.050029  
     247A      2.054183   248A      2.090402   249A      2.097899  
     250A      2.152718   251A      2.228368   252A      2.734381  
     253A      2.740323   254A      2.754096   255A      2.756352  
     256A      2.762929   257A      2.787801   258A      2.804325  
     259A      2.815355   260A      2.818660   261A      2.836897  
     262A      2.841171   263A      2.859433   264A      2.869706  
     265A      2.872094   266A      2.885838   267A      2.899988  
     268A      2.917573   269A      2.931145   270A      2.948392  
     271A      2.961784   272A      2.982848   273A      2.991175  
     274A      3.018546   275A      3.025198   276A      3.056245  
     277A      3.072340   278A      3.084113   279A      3.102216  
     280A      3.116185   281A      3.130574   282A      3.133388  
     283A      3.137584   284A      3.150279   285A      3.158795  
     286A      3.168803   287A      3.185157   288A      3.185752  
     289A      3.203568   290A      3.205648   291A      3.210160  
     292A      3.226148   293A      3.233837   294A      3.249699  
     295A      3.254048   296A      3.267921   297A      3.278320  
     298A      3.298005   299A      3.309260   300A      3.314924  
     301A      3.327650   302A      3.342962   303A      3.346998  
     304A      3.351764   305A      3.362488   306A      3.375859  
     307A      3.388837   308A      3.392507   309A      3.415573  
     310A      3.421223   311A      3.434314   312A      3.439632  
     313A      3.451063   314A      3.456137   315A      3.458355  
     316A      3.463306   317A      3.474620   318A      3.483754  
     319A      3.490879   320A      3.498506   321A      3.503836  
     322A      3.511890   323A      3.516741   324A      3.520443  
     325A      3.530168   326A      3.533238   327A      3.540499  
     328A      3.557569   329A      3.571966   330A      3.575956  
     331A      3.589561   332A      3.597154   333A      3.605080  
     334A      3.617338   335A      3.622871   336A      3.639708  
     337A      3.652579   338A      3.667453   339A      3.680219  
     340A      3.701575   341A      3.712098   342A      3.722136  
     343A      3.730125   344A      3.735093   345A      3.765601  
     346A      3.770455   347A      3.791659   348A      3.794671  
     349A      3.810169   350A      3.823862   351A      3.835087  
     352A      3.861215   353A      3.866132   354A      3.868676  
     355A      3.880602   356A      3.890316   357A      3.900359  
     358A      3.913897   359A      3.928684   360A      3.934300  
     361A      3.941731   362A      3.949856   363A      3.959020  
     364A      3.964651   365A      3.982291   366A      3.987235  
     367A      4.013407   368A      4.018999   369A      4.029672  
     370A      4.040074   371A      4.096134   372A      4.105709  
     373A      4.145729   374A      4.165060   375A      4.179754  
     376A      4.184234   377A      4.191131   378A      4.198664  
     379A      4.218406   380A      4.233586   381A      4.241839  
     382A      4.249969   383A      4.253870   384A      4.259987  
     385A      4.272040   386A      4.274550   387A      4.283213  
     388A      4.288624   389A      4.302586   390A      4.306654  
     391A      4.317167   392A      4.325485   393A      4.347323  
     394A      4.357089   395A      4.367820   396A      4.379706  
     397A      4.392994   398A      4.396491   399A      4.409950  
     400A      4.421765   401A      4.426816   402A      4.445842  
     403A      4.458787   404A      4.463900   405A      4.474683  
     406A      4.480649   407A      4.490074   408A      4.492185  
     409A      4.499676   410A      4.512480   411A      4.521630  
     412A      4.530794   413A      4.531723   414A      4.551654  
     415A      4.564349   416A      4.574420   417A      4.581436  
     418A      4.591446   419A      4.608442   420A      4.617733  
     421A      4.632849   422A      4.656908   423A      4.664543  
     424A      4.677406   425A      4.680309   426A      4.690670  
     427A      4.701668   428A      4.727524   429A      4.737760  
     430A      4.759814   431A      4.776930   432A      4.795542  
     433A      4.809559   434A      4.814646   435A      4.821022  
     436A      4.839908   437A      4.844892   438A      4.885817  
     439A      4.910129   440A      4.918221   441A      4.965924  
     442A      4.999554   443A      5.001502   444A      5.012508  
     445A      5.087232   446A      5.093568   447A      5.110664  
     448A      5.174307   449A      5.180163   450A      5.185139  
     451A      5.208035   452A      5.220917   453A      5.223912  
     454A      5.233727   455A      5.248894   456A      5.253863  
     457A      5.276022   458A      5.285013   459A      5.295591  
     460A      5.305255   461A      5.308204   462A      5.310527  
     463A      5.315792   464A      5.323026   465A      5.333374  
     466A      5.341678   467A      5.351092   468A      5.373267  
     469A      5.391209   470A      5.404641   471A      5.446108  
     472A      5.473629   473A      5.480067   474A      5.501751  
     475A      5.546979   476A      5.553959   477A      5.618199  
     478A      5.640947   479A      5.664247   480A      5.692248  
     481A      5.693029   482A      5.702934   483A      5.752010  
     484A      5.756543   485A      5.764832   486A      5.769821  
     487A      5.774420   488A      5.785322   489A      5.791106  
     490A      5.796717   491A      5.809967   492A      5.818700  
     493A      5.835194   494A      5.884870   495A      5.906857  
     496A      5.919462   497A      5.922629   498A      5.933901  
     499A      5.947675   500A      5.950296   501A      5.974842  
     502A      5.978289   503A      5.995710   504A      6.003494  
     505A      6.102756   506A      6.183110   507A      6.246772  
     508A      6.458881   509A      6.488021   510A      6.495371  
     511A      6.498816   512A      6.520553   513A      6.531030  
     514A      6.536927   515A      6.557520   516A      6.607500  
     517A      6.646132   518A      6.654726   519A     13.739283  
     520A     14.111494   521A     14.282644   522A     14.419373  
     523A     14.562966   524A     14.578693   525A     14.784248  

    Final Occupation by Irrep:
              A 
    DOCC [    30 ]

  @DF-RHF Final Energy:  -275.66097048399098

   => Energetics <=

    Nuclear Repulsion Energy =            321.3859421432169938
    One-Electron Energy =               -1007.2165941546761587
    Two-Electron Energy =                 410.1696815274681853
    Total Energy =                       -275.6609704839909796

Computation Completed


Properties will be evaluated at   0.000000,   0.000000,   0.000000 [a0]

Properties computed using the SCF density matrix

  Nuclear Dipole Moment: [e a0]
     X:    -2.4120      Y:    -0.6992      Z:    -0.5704

  Electronic Dipole Moment: [e a0]
     X:     2.4138      Y:     0.6996      Z:     0.6081

  Dipole Moment: [e a0]
     X:     0.0017      Y:     0.0005      Z:     0.0377     Total:     0.0377

  Dipole Moment: [D]
     X:     0.0044      Y:     0.0012      Z:     0.0958     Total:     0.0959


*** tstop() called on r282 at Fri Sep 10 20:39:04 2021
Module time:
	user time   =      72.82 seconds =       1.21 minutes
	system time =       1.50 seconds =       0.03 minutes
	total time  =         74 seconds =       1.23 minutes
Total time:
	user time   =      72.82 seconds =       1.21 minutes
	system time =       1.50 seconds =       0.03 minutes
	total time  =         74 seconds =       1.23 minutes

  //>>>>>>>>>>>>>>>>>>>>>>>>>>>>>>>>>>>//
  //            Monomer A HF           //
  //<<<<<<<<<<<<<<<<<<<<<<<<<<<<<<<<<<<//


*** tstart() called on r282
*** at Fri Sep 10 20:39:04 2021

   => Loading Basis Set <=

    Name: JUN-CC-PVTZ
    Role: ORBITAL
    Keyword: BASIS
    atoms 1, 5, 8, 11, 14, 18-19              entry C          line   217 file /home/r08543048/miniconda3/share/psi4/basis/jun-cc-pvtz.gbs 
    atoms 2-4, 6-7, 9-10, 12-13, 15-17, 20-25 entry H          line    36 file /home/r08543048/miniconda3/share/psi4/basis/jun-cc-pvtz.gbs 


         ---------------------------------------------------------
                                   SCF
               by Justin Turney, Rob Parrish, Andy Simmonett
                          and Daniel G. A. Smith
                              RHF Reference
                        1 Threads,  20980 MiB Core
         ---------------------------------------------------------

  ==> Geometry <==

    Molecular point group: c1
    Full point group: C1

    Geometry (in Angstrom), charge = 0, multiplicity = 1:

       Center              X                  Y                   Z               Mass       
    ------------   -----------------  -----------------  -----------------  -----------------
         C            1.929374591274    -2.049201450483    -0.421269539391    12.000000000000
         H            1.090484591274    -2.364067450483    -1.043835539391     1.007825032230
         H            2.744680591274    -1.761712450483    -1.086460539391     1.007825032230
         H            2.257689591274    -2.911167450483     0.159021460609     1.007825032230
         C            1.528091591274    -0.885119450483     0.476034460609    12.000000000000
         H            2.369939591274    -0.602146450483     1.113626460609     1.007825032230
         H            0.722606591274    -1.196152450483     1.146203460609     1.007825032230
         C            1.074423591274     0.332383549517    -0.318962539391    12.000000000000
         H            1.893326591274     0.667872549517    -0.964020539391     1.007825032230
         H            0.255065591274     0.045156549517    -0.986706539391     1.007825032230
         C            0.621226591274     1.488955549517     0.562380460609    12.000000000000
         H            1.428148591274     1.752341549517     1.251608460609     1.007825032230
         H           -0.217694408726     1.158523549517     1.181514460609     1.007825032230
         C            0.216766591274     2.715174549517    -0.246717539391    12.000000000000
         H           -0.594365408726     2.475977549517    -0.935968539391     1.007825032230
         H           -0.118263408726     3.529453549517     0.395383460609     1.007825032230
         H            1.056603591274     3.079047549517    -0.840004539391     1.007825032230
      Gh(C)          -2.284824408726    -1.387866450483     0.336528460609    12.000000000000
      Gh(C)          -2.868969408726    -0.151688450483    -0.336894539391    12.000000000000
      Gh(H)          -2.006247408726    -1.179629450483     1.369288460609     1.007825032230
      Gh(H)          -1.392079408726    -1.735981450483    -0.182438539391     1.007825032230
      Gh(H)          -3.002726408726    -2.207303450483     0.346250460609     1.007825032230
      Gh(H)          -2.155409408726     0.671635549517    -0.336194539391     1.007825032230
      Gh(H)          -3.767088408726     0.189291549517     0.176874460609     1.007825032230
      Gh(H)          -3.137607408726    -0.356957450483    -1.372571539391     1.007825032230

  Running in c1 symmetry.

  Rotational constants: A =      0.05798  B =      0.04769  C =      0.02875 [cm^-1]
  Rotational constants: A =   1738.05801  B =   1429.59850  C =    861.84333 [MHz]
  Nuclear repulsion =  185.584913934252455

  Charge       = 0
  Multiplicity = 1
  Electrons    = 42
  Nalpha       = 21
  Nbeta        = 21

  ==> Algorithm <==

  SCF Algorithm Type is DF.
  DIIS enabled.
  MOM disabled.
  Fractional occupation disabled.
  Guess Type is SAD.
  Energy threshold   = 1.00e-08
  Density threshold  = 1.00e-08
  Integral threshold = 0.00e+00

  ==> Primary Basis <==

  Basis Set: JUN-CC-PVTZ
    Blend: JUN-CC-PVTZ
    Number of shells: 199
    Number of basis function: 525
    Number of Cartesian functions: 585
    Spherical Harmonics?: true
    Max angular momentum: 3

   => Loading Basis Set <=

    Name: (JUN-CC-PVTZ AUX)
    Role: JKFIT
    Keyword: DF_BASIS_SCF
    atoms 1, 5, 8, 11, 14, 18-19              entry C          line   152 file /home/r08543048/miniconda3/share/psi4/basis/jun-cc-pvtz-jkfit.gbs 
    atoms 2-4, 6-7, 9-10, 12-13, 15-17, 20-25 entry H          line    70 file /home/r08543048/miniconda3/share/psi4/basis/jun-cc-pvtz-jkfit.gbs 

  ==> Pre-Iterations <==

   -------------------------------------------------------
    Irrep   Nso     Nmo     Nalpha   Nbeta   Ndocc  Nsocc
   -------------------------------------------------------
     A        525     525       0       0       0       0
   -------------------------------------------------------
    Total     525     525      21      21      21       0
   -------------------------------------------------------

  ==> Integral Setup <==

  ==> DiskDFJK: Density-Fitted J/K Matrices <==

    J tasked:                  Yes
    K tasked:                  Yes
    wK tasked:                  No
    OpenMP threads:              1
    Integrals threads:           1
    Memory [MiB]:            15735
    Algorithm:                Core
    Integral Cache:           LOAD
    Schwarz Cutoff:          1E-12
    Fitting Condition:       1E-10

   => Auxiliary Basis Set <=

  Basis Set: (JUN-CC-PVTZ AUX)
    Blend: JUN-CC-PVTZ-JKFIT
    Number of shells: 383
    Number of basis function: 1205
    Number of Cartesian functions: 1442
    Spherical Harmonics?: true
    Max angular momentum: 4

  Minimum eigenvalue in the overlap matrix is 3.1128068308E-05.
  Using Symmetric Orthogonalization.

  SCF Guess: Superposition of Atomic Densities via on-the-fly atomic UHF.

  ==> Iterations <==

                           Total Energy        Delta E     RMS |[F,P]|

   @DF-RHF iter SAD:  -195.86356590036269   -1.95864e+02   0.00000e+00 
   @DF-RHF iter   1:  -196.15400157418964   -2.90436e-01   1.20140e-03 DIIS
   @DF-RHF iter   2:  -196.35739758206458   -2.03396e-01   5.48076e-04 DIIS
   @DF-RHF iter   3:  -196.40068971579535   -4.32921e-02   9.81378e-05 DIIS
   @DF-RHF iter   4:  -196.40357853585166   -2.88882e-03   2.05042e-05 DIIS
   @DF-RHF iter   5:  -196.40366932202809   -9.07862e-05   6.25634e-06 DIIS
   @DF-RHF iter   6:  -196.40367846197242   -9.13994e-06   9.45704e-07 DIIS
   @DF-RHF iter   7:  -196.40367873816970   -2.76197e-07   1.96915e-07 DIIS
   @DF-RHF iter   8:  -196.40367875073531   -1.25656e-08   3.83633e-08 DIIS
   @DF-RHF iter   9:  -196.40367875122399   -4.88683e-10   1.21532e-08 DIIS
   @DF-RHF iter  10:  -196.40367875126057   -3.65787e-11   3.21179e-09 DIIS
  Energy and wave function converged.


  ==> Post-Iterations <==

    Orbital Energies [Eh]
    ---------------------

    Doubly Occupied:                                                      

       1A    -11.212928     2A    -11.212817     3A    -11.210505  
       4A    -11.207352     5A    -11.207326     6A     -1.080951  
       7A     -1.014989     8A     -0.918524     9A     -0.819431  
      10A     -0.784624    11A     -0.647093    12A     -0.598110  
      13A     -0.592636    14A     -0.553506    15A     -0.547173  
      16A     -0.525351    17A     -0.494297    18A     -0.475812  
      19A     -0.461769    20A     -0.459108    21A     -0.446300  

    Virtual:                                                              

      22A      0.038950    23A      0.048135    24A      0.051749  
      25A      0.054617    26A      0.067796    27A      0.074595  
      28A      0.077297    29A      0.081145    30A      0.085663  
      31A      0.100557    32A      0.104768    33A      0.111077  
      34A      0.114681    35A      0.116926    36A      0.118993  
      37A      0.126115    38A      0.138573    39A      0.144003  
      40A      0.149214    41A      0.159583    42A      0.165226  
      43A      0.169118    44A      0.188621    45A      0.192250  
      46A      0.206202    47A      0.211914    48A      0.214259  
      49A      0.217691    50A      0.221039    51A      0.240334  
      52A      0.244010    53A      0.262436    54A      0.267002  
      55A      0.275331    56A      0.287743    57A      0.288753  
      58A      0.297035    59A      0.299716    60A      0.305845  
      61A      0.313750    62A      0.318752    63A      0.327194  
      64A      0.329464    65A      0.331909    66A      0.339853  
      67A      0.346730    68A      0.352402    69A      0.358008  
      70A      0.361085    71A      0.367900    72A      0.373074  
      73A      0.382146    74A      0.388025    75A      0.393662  
      76A      0.396378    77A      0.405485    78A      0.409369  
      79A      0.417064    80A      0.426887    81A      0.427680  
      82A      0.435162    83A      0.437413    84A      0.445298  
      85A      0.449053    86A      0.454646    87A      0.473660  
      88A      0.476038    89A      0.481675    90A      0.487841  
      91A      0.510744    92A      0.511027    93A      0.517670  
      94A      0.536552    95A      0.539163    96A      0.547830  
      97A      0.555496    98A      0.556741    99A      0.558660  
     100A      0.575695   101A      0.577318   102A      0.585836  
     103A      0.591589   104A      0.601662   105A      0.611526  
     106A      0.618232   107A      0.630456   108A      0.639548  
     109A      0.646434   110A      0.649565   111A      0.661896  
     112A      0.664517   113A      0.684244   114A      0.689882  
     115A      0.703611   116A      0.711815   117A      0.728079  
     118A      0.737316   119A      0.749346   120A      0.772774  
     121A      0.777877   122A      0.780303   123A      0.789177  
     124A      0.797188   125A      0.808689   126A      0.829676  
     127A      0.836718   128A      0.839944   129A      0.842200  
     130A      0.854710   131A      0.865325   132A      0.873723  
     133A      0.890068   134A      0.898969   135A      0.907064  
     136A      0.914130   137A      0.931999   138A      0.954749  
     139A      0.962554   140A      0.981317   141A      0.986079  
     142A      0.994946   143A      1.013537   144A      1.017330  
     145A      1.034037   146A      1.040468   147A      1.067584  
     148A      1.082187   149A      1.085173   150A      1.105295  
     151A      1.107867   152A      1.115263   153A      1.130957  
     154A      1.148032   155A      1.151382   156A      1.159316  
     157A      1.173687   158A      1.175792   159A      1.189322  
     160A      1.203304   161A      1.217519   162A      1.218570  
     163A      1.234060   164A      1.244148   165A      1.251237  
     166A      1.258555   167A      1.270777   168A      1.282607  
     169A      1.284351   170A      1.300621   171A      1.306094  
     172A      1.312178   173A      1.322343   174A      1.338825  
     175A      1.357971   176A      1.371370   177A      1.372483  
     178A      1.381542   179A      1.384374   180A      1.394091  
     181A      1.402186   182A      1.411596   183A      1.426509  
     184A      1.431116   185A      1.436224   186A      1.455447  
     187A      1.458885   188A      1.463422   189A      1.464800  
     190A      1.482718   191A      1.492837   192A      1.519216  
     193A      1.532239   194A      1.540370   195A      1.549715  
     196A      1.553805   197A      1.554103   198A      1.563952  
     199A      1.567847   200A      1.577637   201A      1.587987  
     202A      1.598576   203A      1.605089   204A      1.608057  
     205A      1.613468   206A      1.614282   207A      1.632412  
     208A      1.638424   209A      1.662657   210A      1.672572  
     211A      1.676816   212A      1.694128   213A      1.719723  
     214A      1.726909   215A      1.751270   216A      1.772039  
     217A      1.775198   218A      1.781339   219A      1.795883  
     220A      1.802015   221A      1.810239   222A      1.811260  
     223A      1.838726   224A      1.847427   225A      1.853372  
     226A      1.875098   227A      1.887510   228A      1.910660  
     229A      1.927608   230A      1.935094   231A      1.953575  
     232A      1.962777   233A      2.002555   234A      2.016582  
     235A      2.040644   236A      2.063317   237A      2.077552  
     238A      2.084881   239A      2.101386   240A      2.124420  
     241A      2.142106   242A      2.209115   243A      2.257132  
     244A      2.305224   245A      2.383637   246A      2.412779  
     247A      2.427438   248A      2.543229   249A      2.591150  
     250A      2.751276   251A      2.761109   252A      2.798602  
     253A      2.808061   254A      2.846140   255A      2.856948  
     256A      2.872386   257A      2.877482   258A      2.882306  
     259A      2.916935   260A      2.931171   261A      2.947668  
     262A      2.963934   263A      2.976184   264A      3.016501  
     265A      3.025862   266A      3.050353   267A      3.093660  
     268A      3.122942   269A      3.131065   270A      3.135633  
     271A      3.158061   272A      3.161884   273A      3.172721  
     274A      3.188827   275A      3.204559   276A      3.209754  
     277A      3.243793   278A      3.264159   279A      3.278412  
     280A      3.292137   281A      3.308878   282A      3.313407  
     283A      3.350892   284A      3.361452   285A      3.368682  
     286A      3.379697   287A      3.385443   288A      3.416347  
     289A      3.421373   290A      3.430989   291A      3.439295  
     292A      3.456599   293A      3.465439   294A      3.469772  
     295A      3.485873   296A      3.487640   297A      3.499378  
     298A      3.501946   299A      3.508300   300A      3.516481  
     301A      3.519260   302A      3.538608   303A      3.542876  
     304A      3.544142   305A      3.558232   306A      3.574034  
     307A      3.578616   308A      3.583299   309A      3.597797  
     310A      3.600957   311A      3.619947   312A      3.630731  
     313A      3.637895   314A      3.648244   315A      3.654266  
     316A      3.673526   317A      3.691658   318A      3.698710  
     319A      3.702747   320A      3.713810   321A      3.730677  
     322A      3.758648   323A      3.768057   324A      3.776654  
     325A      3.793861   326A      3.797935   327A      3.804221  
     328A      3.816791   329A      3.822826   330A      3.834825  
     331A      3.842508   332A      3.860857   333A      3.874141  
     334A      3.895071   335A      3.919927   336A      3.930983  
     337A      3.935758   338A      3.940657   339A      3.944476  
     340A      3.958975   341A      3.966353   342A      3.982935  
     343A      3.987251   344A      3.996399   345A      4.020164  
     346A      4.031185   347A      4.055524   348A      4.060522  
     349A      4.094897   350A      4.099272   351A      4.111534  
     352A      4.142536   353A      4.155003   354A      4.169170  
     355A      4.174538   356A      4.180831   357A      4.207500  
     358A      4.235799   359A      4.244375   360A      4.246444  
     361A      4.254465   362A      4.263044   363A      4.273630  
     364A      4.298128   365A      4.307228   366A      4.315124  
     367A      4.340382   368A      4.352740   369A      4.358631  
     370A      4.367734   371A      4.377822   372A      4.385728  
     373A      4.391993   374A      4.397147   375A      4.400953  
     376A      4.410665   377A      4.424614   378A      4.442136  
     379A      4.449324   380A      4.465366   381A      4.469938  
     382A      4.479521   383A      4.493665   384A      4.498631  
     385A      4.507418   386A      4.514434   387A      4.516877  
     388A      4.523814   389A      4.533703   390A      4.541044  
     391A      4.557633   392A      4.564218   393A      4.569621  
     394A      4.580694   395A      4.599068   396A      4.606545  
     397A      4.620574   398A      4.623313   399A      4.636675  
     400A      4.653599   401A      4.658753   402A      4.675082  
     403A      4.684848   404A      4.716505   405A      4.720755  
     406A      4.725327   407A      4.733695   408A      4.756236  
     409A      4.761449   410A      4.770564   411A      4.779318  
     412A      4.796422   413A      4.812668   414A      4.825986  
     415A      4.832740   416A      4.835321   417A      4.852236  
     418A      4.862882   419A      4.874761   420A      4.901083  
     421A      4.906278   422A      4.912022   423A      4.914783  
     424A      4.952285   425A      4.968980   426A      4.971999  
     427A      4.993536   428A      5.001022   429A      5.009559  
     430A      5.014762   431A      5.029453   432A      5.050744  
     433A      5.062912   434A      5.071951   435A      5.083127  
     436A      5.106807   437A      5.118430   438A      5.157991  
     439A      5.188259   440A      5.198457   441A      5.214762  
     442A      5.222685   443A      5.240101   444A      5.253239  
     445A      5.271387   446A      5.287858   447A      5.308570  
     448A      5.313293   449A      5.320702   450A      5.323854  
     451A      5.328404   452A      5.374787   453A      5.389558  
     454A      5.413760   455A      5.419340   456A      5.429586  
     457A      5.448332   458A      5.476443   459A      5.481902  
     460A      5.502609   461A      5.548161   462A      5.555393  
     463A      5.620193   464A      5.641805   465A      5.643347  
     466A      5.655896   467A      5.666652   468A      5.692480  
     469A      5.723724   470A      5.744916   471A      5.767076  
     472A      5.773972   473A      5.776013   474A      5.782462  
     475A      5.816573   476A      5.832834   477A      5.884285  
     478A      5.910900   479A      5.921821   480A      5.935199  
     481A      5.960081   482A      5.973518   483A      5.983224  
     484A      5.996239   485A      6.009395   486A      6.029258  
     487A      6.102625   488A      6.182141   489A      6.225870  
     490A      6.245801   491A      6.334064   492A      6.341899  
     493A      6.364525   494A      6.384242   495A      6.419745  
     496A      6.455890   497A      6.460360   498A      6.515932  
     499A      6.524794   500A      6.532957   501A      6.537402  
     502A      6.591592   503A      6.647428   504A      6.650348  
     505A      6.803792   506A      6.906631   507A      7.357232  
     508A      7.496232   509A      7.525509   510A      7.651835  
     511A      7.694824   512A      7.791327   513A      7.807438  
     514A      7.894254   515A      7.922544   516A      8.306702  
     517A      9.726558   518A      9.967804   519A     13.749331  
     520A     14.112552   521A     14.417206   522A     14.558439  
     523A     14.586715   524A     45.197923   525A     45.770593  

    Final Occupation by Irrep:
              A 
    DOCC [    21 ]

  @DF-RHF Final Energy:  -196.40367875126057

   => Energetics <=

    Nuclear Repulsion Energy =            185.5849139342524552
    One-Electron Energy =                -631.0359818154583991
    Two-Electron Energy =                 249.0473891299454010
    Total Energy =                       -196.4036787512605713

Computation Completed


Properties will be evaluated at   0.000000,   0.000000,   0.000000 [a0]

Properties computed using the SCF density matrix

  Nuclear Dipole Moment: [e a0]
     X:    85.2409      Y:    25.4854      Z:    -0.5685

  Electronic Dipole Moment: [e a0]
     X:   -85.2403      Y:   -25.4865      Z:     0.6013

  Dipole Moment: [e a0]
     X:     0.0006      Y:    -0.0011      Z:     0.0328     Total:     0.0328

  Dipole Moment: [D]
     X:     0.0014      Y:    -0.0027      Z:     0.0834     Total:     0.0835


*** tstop() called on r282 at Fri Sep 10 20:39:50 2021
Module time:
	user time   =      44.99 seconds =       0.75 minutes
	system time =       0.78 seconds =       0.01 minutes
	total time  =         46 seconds =       0.77 minutes
Total time:
	user time   =     117.82 seconds =       1.96 minutes
	system time =       2.28 seconds =       0.04 minutes
	total time  =        120 seconds =       2.00 minutes

  //>>>>>>>>>>>>>>>>>>>>>>>>>>>>>>>>>>>//
  //            Monomer B HF           //
  //<<<<<<<<<<<<<<<<<<<<<<<<<<<<<<<<<<<//


*** tstart() called on r282
*** at Fri Sep 10 20:39:50 2021

   => Loading Basis Set <=

    Name: JUN-CC-PVTZ
    Role: ORBITAL
    Keyword: BASIS
    atoms 1, 5, 8, 11, 14, 18-19              entry C          line   217 file /home/r08543048/miniconda3/share/psi4/basis/jun-cc-pvtz.gbs 
    atoms 2-4, 6-7, 9-10, 12-13, 15-17, 20-25 entry H          line    36 file /home/r08543048/miniconda3/share/psi4/basis/jun-cc-pvtz.gbs 


         ---------------------------------------------------------
                                   SCF
               by Justin Turney, Rob Parrish, Andy Simmonett
                          and Daniel G. A. Smith
                              RHF Reference
                        1 Threads,  20980 MiB Core
         ---------------------------------------------------------

  ==> Geometry <==

    Molecular point group: c1
    Full point group: C1

    Geometry (in Angstrom), charge = 0, multiplicity = 1:

       Center              X                  Y                   Z               Mass       
    ------------   -----------------  -----------------  -----------------  -----------------
      Gh(C)           1.929374591274    -2.049201450483    -0.421269539391    12.000000000000
      Gh(H)           1.090484591274    -2.364067450483    -1.043835539391     1.007825032230
      Gh(H)           2.744680591274    -1.761712450483    -1.086460539391     1.007825032230
      Gh(H)           2.257689591274    -2.911167450483     0.159021460609     1.007825032230
      Gh(C)           1.528091591274    -0.885119450483     0.476034460609    12.000000000000
      Gh(H)           2.369939591274    -0.602146450483     1.113626460609     1.007825032230
      Gh(H)           0.722606591274    -1.196152450483     1.146203460609     1.007825032230
      Gh(C)           1.074423591274     0.332383549517    -0.318962539391    12.000000000000
      Gh(H)           1.893326591274     0.667872549517    -0.964020539391     1.007825032230
      Gh(H)           0.255065591274     0.045156549517    -0.986706539391     1.007825032230
      Gh(C)           0.621226591274     1.488955549517     0.562380460609    12.000000000000
      Gh(H)           1.428148591274     1.752341549517     1.251608460609     1.007825032230
      Gh(H)          -0.217694408726     1.158523549517     1.181514460609     1.007825032230
      Gh(C)           0.216766591274     2.715174549517    -0.246717539391    12.000000000000
      Gh(H)          -0.594365408726     2.475977549517    -0.935968539391     1.007825032230
      Gh(H)          -0.118263408726     3.529453549517     0.395383460609     1.007825032230
      Gh(H)           1.056603591274     3.079047549517    -0.840004539391     1.007825032230
         C           -2.284824408726    -1.387866450483     0.336528460609    12.000000000000
         C           -2.868969408726    -0.151688450483    -0.336894539391    12.000000000000
         H           -2.006247408726    -1.179629450483     1.369288460609     1.007825032230
         H           -1.392079408726    -1.735981450483    -0.182438539391     1.007825032230
         H           -3.002726408726    -2.207303450483     0.346250460609     1.007825032230
         H           -2.155409408726     0.671635549517    -0.336194539391     1.007825032230
         H           -3.767088408726     0.189291549517     0.176874460609     1.007825032230
         H           -3.137607408726    -0.356957450483    -1.372571539391     1.007825032230

  Running in c1 symmetry.

  Rotational constants: A =      0.05798  B =      0.04769  C =      0.02875 [cm^-1]
  Rotational constants: A =   1738.05801  B =   1429.59850  C =    861.84333 [MHz]
  Nuclear repulsion =   42.338071023081049

  Charge       = 0
  Multiplicity = 1
  Electrons    = 18
  Nalpha       = 9
  Nbeta        = 9

  ==> Algorithm <==

  SCF Algorithm Type is DF.
  DIIS enabled.
  MOM disabled.
  Fractional occupation disabled.
  Guess Type is SAD.
  Energy threshold   = 1.00e-08
  Density threshold  = 1.00e-08
  Integral threshold = 0.00e+00

  ==> Primary Basis <==

  Basis Set: JUN-CC-PVTZ
    Blend: JUN-CC-PVTZ
    Number of shells: 199
    Number of basis function: 525
    Number of Cartesian functions: 585
    Spherical Harmonics?: true
    Max angular momentum: 3

   => Loading Basis Set <=

    Name: (JUN-CC-PVTZ AUX)
    Role: JKFIT
    Keyword: DF_BASIS_SCF
    atoms 1, 5, 8, 11, 14, 18-19              entry C          line   152 file /home/r08543048/miniconda3/share/psi4/basis/jun-cc-pvtz-jkfit.gbs 
    atoms 2-4, 6-7, 9-10, 12-13, 15-17, 20-25 entry H          line    70 file /home/r08543048/miniconda3/share/psi4/basis/jun-cc-pvtz-jkfit.gbs 

  ==> Pre-Iterations <==

   -------------------------------------------------------
    Irrep   Nso     Nmo     Nalpha   Nbeta   Ndocc  Nsocc
   -------------------------------------------------------
     A        525     525       0       0       0       0
   -------------------------------------------------------
    Total     525     525       9       9       9       0
   -------------------------------------------------------

  ==> Integral Setup <==

  ==> DiskDFJK: Density-Fitted J/K Matrices <==

    J tasked:                  Yes
    K tasked:                  Yes
    wK tasked:                  No
    OpenMP threads:              1
    Integrals threads:           1
    Memory [MiB]:            15735
    Algorithm:                Core
    Integral Cache:           LOAD
    Schwarz Cutoff:          1E-12
    Fitting Condition:       1E-10

   => Auxiliary Basis Set <=

  Basis Set: (JUN-CC-PVTZ AUX)
    Blend: JUN-CC-PVTZ-JKFIT
    Number of shells: 383
    Number of basis function: 1205
    Number of Cartesian functions: 1442
    Spherical Harmonics?: true
    Max angular momentum: 4

  Minimum eigenvalue in the overlap matrix is 3.1128068308E-05.
  Using Symmetric Orthogonalization.

  SCF Guess: Superposition of Atomic Densities via on-the-fly atomic UHF.

  ==> Iterations <==

                           Total Energy        Delta E     RMS |[F,P]|

   @DF-RHF iter SAD:   -78.65989579237791   -7.86599e+01   0.00000e+00 
   @DF-RHF iter   1:   -79.14810604072130   -4.88210e-01   8.27210e-04 DIIS
   @DF-RHF iter   2:   -79.23891991432338   -9.08139e-02   3.77770e-04 DIIS
   @DF-RHF iter   3:   -79.25885661051143   -1.99367e-02   6.17685e-05 DIIS
   @DF-RHF iter   4:   -79.26012236086322   -1.26575e-03   8.57010e-06 DIIS
   @DF-RHF iter   5:   -79.26015022115658   -2.78603e-05   1.53250e-06 DIIS
   @DF-RHF iter   6:   -79.26015106327729   -8.42121e-07   1.84113e-07 DIIS
   @DF-RHF iter   7:   -79.26015107617548   -1.28982e-08   2.05627e-08 DIIS
   @DF-RHF iter   8:   -79.26015107630937   -1.33895e-10   3.89803e-09 DIIS
  Energy and wave function converged.


  ==> Post-Iterations <==

    Orbital Energies [Eh]
    ---------------------

    Doubly Occupied:                                                      

       1A    -11.210546     2A    -11.209932     3A     -1.018454  
       4A     -0.841628     5A     -0.597075     6A     -0.596958  
       7A     -0.509892     8A     -0.486594     9A     -0.486503  

    Virtual:                                                              

      10A      0.028889    11A      0.039607    12A      0.048283  
      13A      0.060159    14A      0.067589    15A      0.068368  
      16A      0.072551    17A      0.083216    18A      0.085624  
      19A      0.100475    20A      0.101320    21A      0.108316  
      22A      0.111862    23A      0.115880    24A      0.119901  
      25A      0.123029    26A      0.130932    27A      0.137177  
      28A      0.141490    29A      0.150662    30A      0.153984  
      31A      0.161413    32A      0.168379    33A      0.172529  
      34A      0.174644    35A      0.191485    36A      0.197512  
      37A      0.207852    38A      0.214344    39A      0.246565  
      40A      0.260617    41A      0.264525    42A      0.271613  
      43A      0.280536    44A      0.290706    45A      0.293421  
      46A      0.297687    47A      0.300600    48A      0.308873  
      49A      0.312388    50A      0.315783    51A      0.319171  
      52A      0.327586    53A      0.334464    54A      0.336522  
      55A      0.344859    56A      0.352469    57A      0.354842  
      58A      0.358470    59A      0.364629    60A      0.367736  
      61A      0.370158    62A      0.381827    63A      0.386552  
      64A      0.392282    65A      0.394322    66A      0.401904  
      67A      0.402507    68A      0.405908    69A      0.417240  
      70A      0.424799    71A      0.431171    72A      0.445850  
      73A      0.460755    74A      0.473020    75A      0.483200  
      76A      0.491911    77A      0.497959    78A      0.503304  
      79A      0.508318    80A      0.517701    81A      0.530751  
      82A      0.537942    83A      0.543670    84A      0.555255  
      85A      0.562729    86A      0.563822    87A      0.568494  
      88A      0.587405    89A      0.597924    90A      0.605471  
      91A      0.618810    92A      0.629123    93A      0.632321  
      94A      0.641367    95A      0.645346    96A      0.651966  
      97A      0.657150    98A      0.665276    99A      0.675403  
     100A      0.682955   101A      0.684196   102A      0.689035  
     103A      0.695493   104A      0.711238   105A      0.718431  
     106A      0.722426   107A      0.736710   108A      0.748942  
     109A      0.755289   110A      0.762628   111A      0.777564  
     112A      0.781413   113A      0.793230   114A      0.810457  
     115A      0.813515   116A      0.832191   117A      0.845169  
     118A      0.854966   119A      0.868361   120A      0.887510  
     121A      0.896874   122A      0.918343   123A      0.936581  
     124A      0.948159   125A      0.970322   126A      0.988627  
     127A      1.002629   128A      1.041387   129A      1.053312  
     130A      1.070185   131A      1.073455   132A      1.084575  
     133A      1.108979   134A      1.120694   135A      1.131468  
     136A      1.142176   137A      1.149755   138A      1.178837  
     139A      1.184183   140A      1.186428   141A      1.192647  
     142A      1.203233   143A      1.206263   144A      1.220341  
     145A      1.232969   146A      1.250208   147A      1.257948  
     148A      1.263348   149A      1.272608   150A      1.281314  
     151A      1.284571   152A      1.296808   153A      1.302858  
     154A      1.310736   155A      1.322706   156A      1.330557  
     157A      1.337539   158A      1.338939   159A      1.349421  
     160A      1.353264   161A      1.358588   162A      1.371283  
     163A      1.373599   164A      1.378608   165A      1.381925  
     166A      1.398574   167A      1.401254   168A      1.408102  
     169A      1.413267   170A      1.420079   171A      1.428347  
     172A      1.438810   173A      1.448419   174A      1.455881  
     175A      1.466855   176A      1.477836   177A      1.485989  
     178A      1.509152   179A      1.521218   180A      1.525911  
     181A      1.535745   182A      1.541305   183A      1.554863  
     184A      1.574909   185A      1.579068   186A      1.582497  
     187A      1.589827   188A      1.594591   189A      1.597488  
     190A      1.603213   191A      1.610763   192A      1.628413  
     193A      1.642001   194A      1.646734   195A      1.664495  
     196A      1.670207   197A      1.676282   198A      1.689932  
     199A      1.701415   200A      1.717029   201A      1.722890  
     202A      1.743016   203A      1.757059   204A      1.765947  
     205A      1.780652   206A      1.810073   207A      1.829340  
     208A      1.833377   209A      1.842439   210A      1.855334  
     211A      1.878562   212A      1.912029   213A      1.921234  
     214A      1.932984   215A      1.940361   216A      1.954649  
     217A      1.971178   218A      1.975876   219A      2.008198  
     220A      2.033202   221A      2.053408   222A      2.071159  
     223A      2.118968   224A      2.152737   225A      2.154836  
     226A      2.178380   227A      2.222598   228A      2.247459  
     229A      2.254233   230A      2.269071   231A      2.305885  
     232A      2.350382   233A      2.393735   234A      2.396090  
     235A      2.421492   236A      2.430166   237A      2.449533  
     238A      2.458086   239A      2.474291   240A      2.494916  
     241A      2.521734   242A      2.650786   243A      2.656710  
     244A      2.684307   245A      2.702253   246A      2.744079  
     247A      2.758627   248A      2.766236   249A      2.797113  
     250A      2.804186   251A      2.850608   252A      2.863286  
     253A      2.952506   254A      2.995304   255A      3.081250  
     256A      3.115812   257A      3.132952   258A      3.190707  
     259A      3.207717   260A      3.225891   261A      3.238470  
     262A      3.280796   263A      3.310152   264A      3.345553  
     265A      3.351288   266A      3.433629   267A      3.437708  
     268A      3.445454   269A      3.457759   270A      3.499674  
     271A      3.508582   272A      3.516579   273A      3.534581  
     274A      3.544720   275A      3.555241   276A      3.561762  
     277A      3.562486   278A      3.575988   279A      3.582310  
     280A      3.586250   281A      3.589667   282A      3.594112  
     283A      3.609035   284A      3.614145   285A      3.632704  
     286A      3.634919   287A      3.645504   288A      3.664600  
     289A      3.693500   290A      3.722306   291A      3.759178  
     292A      3.765061   293A      3.766786   294A      3.790002  
     295A      3.795032   296A      3.804280   297A      3.810094  
     298A      3.824228   299A      3.832000   300A      3.834059  
     301A      3.847542   302A      3.850853   303A      3.860369  
     304A      3.864304   305A      3.873177   306A      3.889069  
     307A      3.891905   308A      3.902337   309A      3.910246  
     310A      3.923066   311A      3.925523   312A      3.933945  
     313A      3.946970   314A      3.952542   315A      3.968154  
     316A      3.972467   317A      3.997921   318A      4.024284  
     319A      4.064325   320A      4.085127   321A      4.094183  
     322A      4.101860   323A      4.150650   324A      4.157325  
     325A      4.160713   326A      4.183572   327A      4.189138  
     328A      4.193535   329A      4.195650   330A      4.208527  
     331A      4.220344   332A      4.236658   333A      4.243780  
     334A      4.269292   335A      4.277143   336A      4.287630  
     337A      4.300716   338A      4.310310   339A      4.315888  
     340A      4.333957   341A      4.368707   342A      4.376771  
     343A      4.387230   344A      4.395376   345A      4.412143  
     346A      4.425400   347A      4.444545   348A      4.465357  
     349A      4.467682   350A      4.481156   351A      4.488243  
     352A      4.493037   353A      4.496647   354A      4.518595  
     355A      4.522511   356A      4.525856   357A      4.533379  
     358A      4.539389   359A      4.544208   360A      4.561878  
     361A      4.567009   362A      4.587491   363A      4.602519  
     364A      4.612415   365A      4.619967   366A      4.640104  
     367A      4.652269   368A      4.659552   369A      4.663847  
     370A      4.672320   371A      4.677332   372A      4.686878  
     373A      4.703332   374A      4.713299   375A      4.719617  
     376A      4.723988   377A      4.736415   378A      4.750319  
     379A      4.756088   380A      4.771167   381A      4.778469  
     382A      4.784691   383A      4.786586   384A      4.790635  
     385A      4.809058   386A      4.811650   387A      4.819181  
     388A      4.824031   389A      4.834435   390A      4.840784  
     391A      4.858902   392A      4.869515   393A      4.877782  
     394A      4.883014   395A      4.896515   396A      4.905116  
     397A      4.917265   398A      4.923349   399A      4.925500  
     400A      4.935649   401A      4.950856   402A      4.953803  
     403A      4.960906   404A      4.973940   405A      4.986589  
     406A      5.007597   407A      5.014430   408A      5.024913  
     409A      5.033310   410A      5.040437   411A      5.045748  
     412A      5.069491   413A      5.082806   414A      5.098935  
     415A      5.128803   416A      5.157380   417A      5.174549  
     418A      5.182072   419A      5.197830   420A      5.210823  
     421A      5.228451   422A      5.235158   423A      5.255312  
     424A      5.262969   425A      5.283350   426A      5.289736  
     427A      5.301275   428A      5.307100   429A      5.321553  
     430A      5.341881   431A      5.348160   432A      5.371609  
     433A      5.375417   434A      5.391697   435A      5.433817  
     436A      5.478036   437A      5.498715   438A      5.519010  
     439A      5.544744   440A      5.579494   441A      5.585127  
     442A      5.617806   443A      5.663620   444A      5.680478  
     445A      5.693918   446A      5.705067   447A      5.727032  
     448A      5.763945   449A      5.769352   450A      5.780143  
     451A      5.781839   452A      5.787976   453A      5.802463  
     454A      5.818177   455A      5.837336   456A      5.854718  
     457A      5.879401   458A      5.919390   459A      5.948668  
     460A      5.960727   461A      5.978185   462A      6.030192  
     463A      6.041782   464A      6.051004   465A      6.061671  
     466A      6.081539   467A      6.109582   468A      6.247427  
     469A      6.271414   470A      6.305160   471A      6.349774  
     472A      6.356132   473A      6.381134   474A      6.402366  
     475A      6.408324   476A      6.448379   477A      6.464665  
     478A      6.485690   479A      6.487909   480A      6.497519  
     481A      6.507304   482A      6.533771   483A      6.547617  
     484A      6.561228   485A      6.622023   486A      6.765488  
     487A      6.780098   488A      6.837689   489A      6.915319  
     490A      6.952016   491A      7.077548   492A      7.254796  
     493A      7.463955   494A      7.510409   495A      7.574748  
     496A      7.579506   497A      7.586739   498A      7.653587  
     499A      7.679855   500A      7.711738   501A      7.723755  
     502A      7.739575   503A      7.802912   504A      7.809933  
     505A      7.847523   506A      7.884118   507A      7.899678  
     508A      8.039732   509A      8.148363   510A      8.310291  
     511A      8.432281   512A      8.625140   513A      8.719207  
     514A      9.609230   515A      9.661812   516A      9.775380  
     517A      9.883193   518A      9.900162   519A     14.293678  
     520A     14.768130   521A     43.730122   522A     44.911874  
     523A     45.600675   524A     45.657099   525A     45.783525  

    Final Occupation by Irrep:
              A 
    DOCC [     9 ]

  @DF-RHF Final Energy:   -79.26015107630937

   => Energetics <=

    Nuclear Repulsion Energy =             42.3380710230810493
    One-Electron Energy =                -189.2812833448899141
    Two-Electron Energy =                  67.6830612454994878
    Total Energy =                        -79.2601510763093700

Computation Completed


Properties will be evaluated at   0.000000,   0.000000,   0.000000 [a0]

Properties computed using the SCF density matrix

  Nuclear Dipole Moment: [e a0]
     X:   -87.6529      Y:   -26.1846      Z:    -0.0019

  Electronic Dipole Moment: [e a0]
     X:    87.6525      Y:    26.1847      Z:     0.0020

  Dipole Moment: [e a0]
     X:    -0.0004      Y:     0.0001      Z:     0.0001     Total:     0.0004

  Dipole Moment: [D]
     X:    -0.0011      Y:     0.0003      Z:     0.0002     Total:     0.0011


*** tstop() called on r282 at Fri Sep 10 20:40:24 2021
Module time:
	user time   =      33.77 seconds =       0.56 minutes
	system time =       0.59 seconds =       0.01 minutes
	total time  =         34 seconds =       0.57 minutes
Total time:
	user time   =     151.59 seconds =       2.53 minutes
	system time =       2.87 seconds =       0.05 minutes
	total time  =        154 seconds =       2.57 minutes
  Constructing Basis Sets for SAPT...

   => Loading Basis Set <=

    Name: (JUN-CC-PVTZ AUX)
    Role: RIFIT
    Keyword: DF_BASIS_SAPT
    atoms 1, 5, 8, 11, 14, 18-19              entry C          line   132 file /home/r08543048/miniconda3/share/psi4/basis/jun-cc-pvtz-ri.gbs 
    atoms 2-4, 6-7, 9-10, 12-13, 15-17, 20-25 entry H          line    30 file /home/r08543048/miniconda3/share/psi4/basis/jun-cc-pvtz-ri.gbs 


  //>>>>>>>>>>>>>>>>>>>>>>>>>>>>>>>>>>>//
  //               SAPT0               //
  //<<<<<<<<<<<<<<<<<<<<<<<<<<<<<<<<<<<//


*** tstart() called on r282
*** at Fri Sep 10 20:40:25 2021

        SAPT0  
    Ed Hohenstein
     6 June 2009

      Orbital Information
  --------------------------
    NSO        =       525
    NMO        =       525
    NRI        =      1219
    NOCC A     =        21
    NOCC B     =         9
    FOCC A     =         0
    FOCC B     =         0
    NVIR A     =       504
    NVIR B     =       516

    Elst10,r            =    -0.001451380221 [Eh]
    Exch10              =     0.004710086334 [Eh]
    Exch10 (S^2)        =     0.004703638206 [Eh]

    Iter     Energy [mEh]          dE [mEh]         Residual      Time [s]
       1      -0.24221160       0.242211604       1.903738499             1
       2      -0.29056363       0.048352022       0.296381349             2
       3      -0.29040257      -0.000161052       0.089500505             3
       4      -0.28989977      -0.000502805       0.021398975             5
       5      -0.28990679       0.000007022       0.006106673             6
       6      -0.28993395       0.000027157       0.001175731             7
       7      -0.28993163      -0.000002313       0.000294496             8
       8      -0.28993104      -0.000000594       0.000077315             9
       9      -0.28993115       0.000000113       0.000022336            10
      10      -0.28993120       0.000000040       0.000005371            12
      11      -0.28993119      -0.000000009       0.000001273            13
      12      -0.28993118      -0.000000001       0.000000372            14

    CHF Iterations converged


    Iter     Energy [mEh]          dE [mEh]         Residual      Time [s]
       1      -0.34564168       0.345641675       2.332101964             1
       2      -0.42057990       0.074938220       0.404931989             2
       3      -0.42043118      -0.000148717       0.127147039             3
       4      -0.41950756      -0.000923615       0.026955837             4
       5      -0.41960809       0.000100528       0.005913079             5
       6      -0.41962512       0.000017031       0.000969189             6
       7      -0.41962068      -0.000004439       0.000163127             7
       8      -0.41962109       0.000000410       0.000031031             8
       9      -0.41962110       0.000000001       0.000005164             9
      10      -0.41962108      -0.000000012       0.000000857            10

    CHF Iterations converged

    Ind20,r (A<-B)      =    -0.000289931185 [Eh]
    Ind20,r (B<-A)      =    -0.000419621084 [Eh]
    Ind20,r             =    -0.000709552269 [Eh]
    Exch-Ind20,r (A<-B) =     0.000241872096 [Eh]
    Exch-Ind20,r (B<-A) =     0.000382567535 [Eh]
    Exch-Ind20,r        =     0.000624439632 [Eh]
    Disp20              =    -0.006620217601 [Eh]
    Disp20 (SS)         =    -0.003310108801 [Eh]
    Disp20 (OS)         =    -0.003310108801 [Eh]
    Exch-Disp20         =     0.000519815312 [Eh]
    Exch-Disp20 (SS)    =     0.000342032599 [Eh]
    Exch-Disp20 (OS)    =     0.000177782713 [Eh]

    SAPT Results 
  --------------------------------------------------------------------------------------------------------
    Electrostatics                 -1.45138022 [mEh]      -0.91075484 [kcal/mol]      -3.81059824 [kJ/mol]
      Elst10,r                     -1.45138022 [mEh]      -0.91075484 [kcal/mol]      -3.81059824 [kJ/mol]

    Exchange                        4.71008633 [mEh]       2.95562380 [kcal/mol]      12.36632997 [kJ/mol]
      Exch10                        4.71008633 [mEh]       2.95562380 [kcal/mol]      12.36632997 [kJ/mol]
      Exch10(S^2)                   4.70363821 [mEh]       2.95157754 [kcal/mol]      12.34940041 [kJ/mol]

    Induction                      -0.39936253 [mEh]      -0.25060377 [kcal/mol]      -1.04852619 [kJ/mol]
      Ind20,r                      -0.70955227 [mEh]      -0.44525077 [kcal/mol]      -1.86292922 [kJ/mol]
      Exch-Ind20,r                  0.62443963 [mEh]       0.39184178 [kcal/mol]       1.63946603 [kJ/mol]
      delta HF,r (2)               -0.31424990 [mEh]      -0.19719479 [kcal/mol]      -0.82506299 [kJ/mol]

    Dispersion                     -6.10040229 [mEh]      -3.82806023 [kcal/mol]     -16.01660400 [kJ/mol]
      Disp20                       -6.62021760 [mEh]      -4.15424926 [kcal/mol]     -17.38137892 [kJ/mol]
      Exch-Disp20                   0.51981531 [mEh]       0.32618903 [kcal/mol]       1.36477491 [kJ/mol]
      Disp20 (SS)                  -3.31010880 [mEh]      -2.07712463 [kcal/mol]      -8.69068946 [kJ/mol]
      Disp20 (OS)                  -3.31010880 [mEh]      -2.07712463 [kcal/mol]      -8.69068946 [kJ/mol]
      Exch-Disp20 (SS)              0.34203260 [mEh]       0.21462870 [kcal/mol]       0.89800646 [kJ/mol]
      Exch-Disp20 (OS)              0.17778271 [mEh]       0.11156034 [kcal/mol]       0.46676845 [kJ/mol]

  Total HF                          2.85934358 [mEh]       1.79426518 [kcal/mol]       7.50720553 [kJ/mol]
  Total SAPT0                      -3.24105871 [mEh]      -2.03379505 [kcal/mol]      -8.50939847 [kJ/mol]

  Special recipe for scaled SAPT0 (see Manual):
    Electrostatics sSAPT0          -1.45138022 [mEh]      -0.91075484 [kcal/mol]      -3.81059824 [kJ/mol]
    Exchange sSAPT0                 4.71008633 [mEh]       2.95562380 [kcal/mol]      12.36632997 [kJ/mol]
    Induction sSAPT0               -0.39679091 [mEh]      -0.24899006 [kcal/mol]      -1.04177440 [kJ/mol]
    Dispersion sSAPT0              -6.09826154 [mEh]      -3.82671689 [kcal/mol]     -16.01098347 [kJ/mol]
  Total sSAPT0                     -3.23634634 [mEh]      -2.03083799 [kcal/mol]      -8.49702616 [kJ/mol]
  --------------------------------------------------------------------------------------------------------

*** tstop() called on r282 at Fri Sep 10 20:42:33 2021
Module time:
	user time   =     111.53 seconds =       1.86 minutes
	system time =      16.73 seconds =       0.28 minutes
	total time  =        128 seconds =       2.13 minutes
Total time:
	user time   =     263.27 seconds =       4.39 minutes
	system time =      19.60 seconds =       0.33 minutes
	total time  =        283 seconds =       4.72 minutes

    Psi4 stopped on: Friday, 10 September 2021 08:42PM
    Psi4 wall time for execution: 0:04:43.20

*** Psi4 exiting successfully. Buy a developer a beer!
