
    -----------------------------------------------------------------------
          Psi4: An Open-Source Ab Initio Electronic Structure Package
                               Psi4 1.3.2 release

                         Git: Rev {HEAD} ecbda83 


    R. M. Parrish, L. A. Burns, D. G. A. Smith, A. C. Simmonett,
    A. E. DePrince III, E. G. Hohenstein, U. Bozkaya, A. Yu. Sokolov,
    R. Di Remigio, R. M. Richard, J. F. Gonthier, A. M. James,
    H. R. McAlexander, A. Kumar, M. Saitow, X. Wang, B. P. Pritchard,
    P. Verma, H. F. Schaefer III, K. Patkowski, R. A. King, E. F. Valeev,
    F. A. Evangelista, J. M. Turney, T. D. Crawford, and C. D. Sherrill,
    J. Chem. Theory Comput. 13(7) pp 3185--3197 (2017).
    (doi: 10.1021/acs.jctc.7b00174)


                         Additional Contributions by
    P. Kraus, H. Kruse, M. H. Lechner, M. C. Schieber, R. A. Shaw,
    A. Alenaizan, R. Galvelis, Z. L. Glick, S. Lehtola, and J. P. Misiewicz

    -----------------------------------------------------------------------


    Psi4 started on: Friday, 10 September 2021 09:00PM

    Process ID: 57107
    Host:       r282
    PSIDATADIR: /home/r08543048/miniconda3/share/psi4
    Memory:     500.0 MiB
    Threads:    1
    
  ==> Input File <==

--------------------------------------------------------------------------
# Any line starting with the # character is a comment line
#! Sample  computation

memory 22 gb

molecule Dimer {
0 1
 C 0.459161    1.982840    0.255988
 H 1.244490    2.492317    0.816064
 H -0.310174    1.677532    0.966844
 H 0.014817    2.704598   -0.429353
 C 1.020162    0.774454   -0.482491
 H 0.225285    0.288767   -1.055331
 H 1.769541    1.099039   -1.209690
 C 1.648638   -0.244483    0.459664
 H 0.907404   -0.547105    1.204080
 H 2.463618    0.232975    1.010519
 C 2.171027   -1.472042   -0.275649
 H 2.924443   -1.190440   -1.012479
 H 2.622628   -2.190164    0.408267
 H 1.362398   -1.977191   -0.806116






 --
0 1
 C -2.844558    0.005884   -0.444928
 C -2.157384   -0.987368    0.484773
 H -3.726801    0.438851    0.025141
 H -3.164248   -0.475801   -1.368283
 H -2.176680    0.824432   -0.711149
 H -2.828911   -1.800870    0.757181
 H -1.831575   -0.505178    1.406124
 H -1.278512   -1.427468    0.014037




units angstrom

no_reorient
symmetry c1
}

set globals{
  basis jun-cc-pvtz
}

energy('sapt0')


--------------------------------------------------------------------------

  Memory set to  20.489 GiB by Python driver.

  //>>>>>>>>>>>>>>>>>>>>>>>>>>>>>>>>>>>//
  //              Dimer HF             //
  //<<<<<<<<<<<<<<<<<<<<<<<<<<<<<<<<<<<//


*** tstart() called on r282
*** at Fri Sep 10 21:00:07 2021

   => Loading Basis Set <=

    Name: JUN-CC-PVTZ
    Role: ORBITAL
    Keyword: BASIS
    atoms 1, 5, 8, 11, 15-16           entry C          line   217 file /home/r08543048/miniconda3/share/psi4/basis/jun-cc-pvtz.gbs 
    atoms 2-4, 6-7, 9-10, 12-14, 17-22 entry H          line    36 file /home/r08543048/miniconda3/share/psi4/basis/jun-cc-pvtz.gbs 


         ---------------------------------------------------------
                                   SCF
               by Justin Turney, Rob Parrish, Andy Simmonett
                          and Daniel G. A. Smith
                              RHF Reference
                        1 Threads,  20980 MiB Core
         ---------------------------------------------------------

  ==> Geometry <==

    Molecular point group: c1
    Full point group: C1

    Geometry (in Angstrom), charge = 0, multiplicity = 1:

       Center              X                  Y                   Z               Mass       
    ------------   -----------------  -----------------  -----------------  -----------------
         C            0.439094905232     1.978835122995     0.256166563296    12.000000000000
         H            1.224423905232     2.488312122995     0.816242563296     1.007825032230
         H           -0.330240094768     1.673527122995     0.967022563296     1.007825032230
         H           -0.005249094768     2.700593122995    -0.429174436704     1.007825032230
         C            1.000095905232     0.770449122995    -0.482312436704    12.000000000000
         H            0.205218905232     0.284762122995    -1.055152436704     1.007825032230
         H            1.749474905232     1.095034122995    -1.209511436704     1.007825032230
         C            1.628571905232    -0.248487877005     0.459842563296    12.000000000000
         H            0.887337905232    -0.551109877005     1.204258563296     1.007825032230
         H            2.443551905232     0.228970122995     1.010697563296     1.007825032230
         C            2.150960905232    -1.476046877005    -0.275470436704    12.000000000000
         H            2.904376905232    -1.194444877005    -1.012300436704     1.007825032230
         H            2.602561905232    -2.194168877005     0.408445563296     1.007825032230
         H            1.342331905232    -1.981195877005    -0.805937436704     1.007825032230
         C           -2.864624094768     0.001879122995    -0.444749436704    12.000000000000
         C           -2.177450094768    -0.991372877005     0.484951563296    12.000000000000
         H           -3.746867094768     0.434846122995     0.025319563296     1.007825032230
         H           -3.184314094768    -0.479805877005    -1.368104436704     1.007825032230
         H           -2.196746094768     0.820427122995    -0.710970436704     1.007825032230
         H           -2.848977094768    -1.804874877005     0.757359563296     1.007825032230
         H           -1.851641094768    -0.509182877005     1.406302563296     1.007825032230
         H           -1.298578094768    -1.431472877005     0.014215563296     1.007825032230

  Running in c1 symmetry.

  Rotational constants: A =      0.10965  B =      0.04759  C =      0.03696 [cm^-1]
  Rotational constants: A =   3287.32694  B =   1426.65468  C =   1108.01597 [MHz]
  Nuclear repulsion =  250.510567996865689

  Charge       = 0
  Multiplicity = 1
  Electrons    = 52
  Nalpha       = 26
  Nbeta        = 26

  ==> Algorithm <==

  SCF Algorithm Type is DF.
  DIIS enabled.
  MOM disabled.
  Fractional occupation disabled.
  Guess Type is SAD.
  Energy threshold   = 1.00e-08
  Density threshold  = 1.00e-08
  Integral threshold = 0.00e+00

  ==> Primary Basis <==

  Basis Set: JUN-CC-PVTZ
    Blend: JUN-CC-PVTZ
    Number of shells: 174
    Number of basis function: 458
    Number of Cartesian functions: 510
    Spherical Harmonics?: true
    Max angular momentum: 3

   => Loading Basis Set <=

    Name: (JUN-CC-PVTZ AUX)
    Role: JKFIT
    Keyword: DF_BASIS_SCF
    atoms 1, 5, 8, 11, 15-16           entry C          line   152 file /home/r08543048/miniconda3/share/psi4/basis/jun-cc-pvtz-jkfit.gbs 
    atoms 2-4, 6-7, 9-10, 12-14, 17-22 entry H          line    70 file /home/r08543048/miniconda3/share/psi4/basis/jun-cc-pvtz-jkfit.gbs 

  ==> Pre-Iterations <==

   -------------------------------------------------------
    Irrep   Nso     Nmo     Nalpha   Nbeta   Ndocc  Nsocc
   -------------------------------------------------------
     A        458     458       0       0       0       0
   -------------------------------------------------------
    Total     458     458      26      26      26       0
   -------------------------------------------------------

  ==> Integral Setup <==

  ==> DiskDFJK: Density-Fitted J/K Matrices <==

    J tasked:                  Yes
    K tasked:                  Yes
    wK tasked:                  No
    OpenMP threads:              1
    Integrals threads:           1
    Memory [MiB]:            15735
    Algorithm:                Core
    Integral Cache:           SAVE
    Schwarz Cutoff:          1E-12
    Fitting Condition:       1E-10

   => Auxiliary Basis Set <=

  Basis Set: (JUN-CC-PVTZ AUX)
    Blend: JUN-CC-PVTZ-JKFIT
    Number of shells: 334
    Number of basis function: 1050
    Number of Cartesian functions: 1256
    Spherical Harmonics?: true
    Max angular momentum: 4

  Minimum eigenvalue in the overlap matrix is 5.0811808771E-05.
  Using Symmetric Orthogonalization.

  SCF Guess: Superposition of Atomic Densities via on-the-fly atomic UHF.

  ==> Iterations <==

                           Total Energy        Delta E     RMS |[F,P]|

   @DF-RHF iter SAD:  -235.58733218621518   -2.35587e+02   0.00000e+00 
   @DF-RHF iter   1:  -236.29728645960290   -7.09954e-01   1.56481e-03 DIIS
   @DF-RHF iter   2:  -236.55359637662224   -2.56310e-01   7.19522e-04 DIIS
   @DF-RHF iter   3:  -236.60970327426219   -5.61069e-02   1.26894e-04 DIIS
   @DF-RHF iter   4:  -236.61339929247853   -3.69602e-03   2.75330e-05 DIIS
   @DF-RHF iter   5:  -236.61352623814770   -1.26946e-04   7.97504e-06 DIIS
   @DF-RHF iter   6:  -236.61353783055790   -1.15924e-05   1.13728e-06 DIIS
   @DF-RHF iter   7:  -236.61353815562248   -3.25065e-07   2.54670e-07 DIIS
   @DF-RHF iter   8:  -236.61353816823853   -1.26161e-08   6.95447e-08 DIIS
   @DF-RHF iter   9:  -236.61353816912447   -8.85933e-10   1.77681e-08 DIIS
   @DF-RHF iter  10:  -236.61353816920570   -8.12292e-11   4.27197e-09 DIIS
  Energy and wave function converged.


  ==> Post-Iterations <==

    Orbital Energies [Eh]
    ---------------------

    Doubly Occupied:                                                      

       1A    -11.212824     2A    -11.212157     3A    -11.210908  
       4A    -11.209970     5A    -11.207621     6A    -11.207584  
       7A     -1.071637     8A     -1.019201     9A     -0.980495  
      10A     -0.860350    11A     -0.842433    12A     -0.787525  
      13A     -0.642383    14A     -0.598490    15A     -0.596085  
      16A     -0.584191    17A     -0.575718    18A     -0.566165  
      19A     -0.514312    20A     -0.510331    21A     -0.495232  
      22A     -0.487938    23A     -0.486163    24A     -0.468830  
      25A     -0.460786    26A     -0.455777  

    Virtual:                                                              

      27A      0.051623    28A      0.053748    29A      0.055270  
      30A      0.063532    31A      0.073150    32A      0.077220  
      33A      0.086990    34A      0.090020    35A      0.092550  
      36A      0.112379    37A      0.114342    38A      0.119348  
      39A      0.122035    40A      0.124159    41A      0.132631  
      42A      0.136675    43A      0.151718    44A      0.154951  
      45A      0.177129    46A      0.183550    47A      0.193888  
      48A      0.196692    49A      0.212409    50A      0.217477  
      51A      0.249867    52A      0.253520    53A      0.259188  
      54A      0.269559    55A      0.278509    56A      0.282587  
      57A      0.289218    58A      0.292439    59A      0.300248  
      60A      0.313256    61A      0.316096    62A      0.321691  
      63A      0.323772    64A      0.329249    65A      0.334234  
      66A      0.343166    67A      0.344544    68A      0.347856  
      69A      0.352057    70A      0.357412    71A      0.368243  
      72A      0.371507    73A      0.375159    74A      0.379142  
      75A      0.386061    76A      0.387786    77A      0.396970  
      78A      0.404086    79A      0.410009    80A      0.430744  
      81A      0.435809    82A      0.445670    83A      0.454982  
      84A      0.461056    85A      0.474338    86A      0.489269  
      87A      0.508527    88A      0.513866    89A      0.515942  
      90A      0.523017    91A      0.529333    92A      0.541471  
      93A      0.547280    94A      0.547964    95A      0.564607  
      96A      0.574144    97A      0.580217    98A      0.588482  
      99A      0.597387   100A      0.605743   101A      0.644073  
     102A      0.654359   103A      0.669589   104A      0.675471  
     105A      0.700779   106A      0.710868   107A      0.718409  
     108A      0.722855   109A      0.730709   110A      0.740913  
     111A      0.745493   112A      0.760351   113A      0.770307  
     114A      0.780027   115A      0.785712   116A      0.798890  
     117A      0.807582   118A      0.813246   119A      0.818533  
     120A      0.825487   121A      0.835847   122A      0.847989  
     123A      0.849548   124A      0.855210   125A      0.864916  
     126A      0.867789   127A      0.885343   128A      0.894148  
     129A      0.895684   130A      0.897106   131A      0.918748  
     132A      0.926833   133A      0.934754   134A      0.953507  
     135A      0.964944   136A      0.972322   137A      0.994360  
     138A      0.995081   139A      1.000819   140A      1.017358  
     141A      1.027720   142A      1.042812   143A      1.067527  
     144A      1.084885   145A      1.107686   146A      1.125890  
     147A      1.143530   148A      1.178337   149A      1.198575  
     150A      1.213443   151A      1.222446   152A      1.240937  
     153A      1.244981   154A      1.263068   155A      1.282035  
     156A      1.295566   157A      1.309197   158A      1.319112  
     159A      1.332779   160A      1.341170   161A      1.343241  
     162A      1.345856   163A      1.357324   164A      1.364048  
     165A      1.382207   166A      1.392774   167A      1.398134  
     168A      1.414545   169A      1.431968   170A      1.435162  
     171A      1.443204   172A      1.463301   173A      1.477414  
     174A      1.483346   175A      1.489800   176A      1.499142  
     177A      1.504085   178A      1.509469   179A      1.523261  
     180A      1.540779   181A      1.555389   182A      1.565552  
     183A      1.568704   184A      1.597516   185A      1.606310  
     186A      1.612009   187A      1.624441   188A      1.627321  
     189A      1.633540   190A      1.642796   191A      1.653246  
     192A      1.674425   193A      1.681985   194A      1.700718  
     195A      1.707192   196A      1.711031   197A      1.736467  
     198A      1.752647   199A      1.764966   200A      1.775315  
     201A      1.785774   202A      1.811047   203A      1.846723  
     204A      1.852120   205A      1.877479   206A      1.886564  
     207A      1.888829   208A      1.908691   209A      1.919183  
     210A      1.933015   211A      1.950981   212A      1.953519  
     213A      1.976794   214A      2.009514   215A      2.037426  
     216A      2.056829   217A      2.072364   218A      2.170661  
     219A      2.720551   220A      2.727628   221A      2.741114  
     222A      2.748511   223A      2.751481   224A      2.783544  
     225A      2.791992   226A      2.816486   227A      2.822409  
     228A      2.823459   229A      2.849693   230A      2.866806  
     231A      2.871820   232A      2.884476   233A      2.900290  
     234A      2.916170   235A      2.927185   236A      2.936042  
     237A      2.964496   238A      2.996149   239A      3.004391  
     240A      3.042909   241A      3.066557   242A      3.084229  
     243A      3.100984   244A      3.123389   245A      3.128060  
     246A      3.134738   247A      3.137206   248A      3.142967  
     249A      3.144368   250A      3.162060   251A      3.183914  
     252A      3.191070   253A      3.199699   254A      3.214217  
     255A      3.227302   256A      3.250359   257A      3.257256  
     258A      3.274635   259A      3.284938   260A      3.289501  
     261A      3.304966   262A      3.309137   263A      3.327231  
     264A      3.332961   265A      3.341414   266A      3.369434  
     267A      3.372305   268A      3.399010   269A      3.406162  
     270A      3.409499   271A      3.412952   272A      3.423105  
     273A      3.444540   274A      3.447740   275A      3.451619  
     276A      3.463662   277A      3.470063   278A      3.485462  
     279A      3.499945   280A      3.503511   281A      3.506936  
     282A      3.510812   283A      3.517947   284A      3.529586  
     285A      3.533269   286A      3.553279   287A      3.562732  
     288A      3.574287   289A      3.584162   290A      3.593350  
     291A      3.596841   292A      3.621121   293A      3.639493  
     294A      3.655884   295A      3.666007   296A      3.677611  
     297A      3.683576   298A      3.712224   299A      3.724496  
     300A      3.741653   301A      3.758474   302A      3.788873  
     303A      3.796784   304A      3.810682   305A      3.825359  
     306A      3.835657   307A      3.838531   308A      3.848559  
     309A      3.859214   310A      3.869174   311A      3.887469  
     312A      3.903037   313A      3.913297   314A      3.926284  
     315A      3.938772   316A      3.943293   317A      3.959287  
     318A      3.972897   319A      3.983918   320A      3.986461  
     321A      4.001371   322A      4.015429   323A      4.037476  
     324A      4.097733   325A      4.150396   326A      4.165416  
     327A      4.173806   328A      4.179400   329A      4.191344  
     330A      4.192459   331A      4.211393   332A      4.216004  
     333A      4.216873   334A      4.238446   335A      4.254328  
     336A      4.263249   337A      4.270137   338A      4.274138  
     339A      4.294981   340A      4.300705   341A      4.303960  
     342A      4.318821   343A      4.334722   344A      4.348625  
     345A      4.369444   346A      4.379610   347A      4.385851  
     348A      4.399424   349A      4.415835   350A      4.436809  
     351A      4.437248   352A      4.450540   353A      4.471008  
     354A      4.476159   355A      4.489547   356A      4.492528  
     357A      4.502005   358A      4.511043   359A      4.515396  
     360A      4.533302   361A      4.539525   362A      4.546033  
     363A      4.560974   364A      4.570985   365A      4.585169  
     366A      4.605867   367A      4.628729   368A      4.643764  
     369A      4.658758   370A      4.660000   371A      4.680592  
     372A      4.683835   373A      4.712032   374A      4.718472  
     375A      4.735364   376A      4.745001   377A      4.782393  
     378A      4.798074   379A      4.807878   380A      4.810292  
     381A      4.839176   382A      4.853495   383A      4.898067  
     384A      4.913436   385A      4.954087   386A      4.967834  
     387A      5.037325   388A      5.057902   389A      5.112833  
     390A      5.120629   391A      5.131761   392A      5.150401  
     393A      5.179243   394A      5.216096   395A      5.220356  
     396A      5.248796   397A      5.263989   398A      5.266463  
     399A      5.277857   400A      5.290729   401A      5.293259  
     402A      5.304288   403A      5.309337   404A      5.316398  
     405A      5.337209   406A      5.345437   407A      5.359548  
     408A      5.361752   409A      5.372112   410A      5.376393  
     411A      5.432782   412A      5.439010   413A      5.463506  
     414A      5.534017   415A      5.558177   416A      5.625225  
     417A      5.654803   418A      5.669254   419A      5.694534  
     420A      5.703025   421A      5.742097   422A      5.748798  
     423A      5.759656   424A      5.764683   425A      5.769764  
     426A      5.780075   427A      5.795166   428A      5.797285  
     429A      5.804791   430A      5.818680   431A      5.852625  
     432A      5.900868   433A      5.908780   434A      5.916069  
     435A      5.930922   436A      5.942558   437A      5.962706  
     438A      5.966438   439A      5.981815   440A      5.996662  
     441A      6.078032   442A      6.187948   443A      6.456313  
     444A      6.480169   445A      6.485390   446A      6.497303  
     447A      6.499793   448A      6.530959   449A      6.550977  
     450A      6.558069   451A      6.603814   452A      6.642075  
     453A     13.708454   454A     14.200274   455A     14.236202  
     456A     14.511633   457A     14.699615   458A     14.707719  

    Final Occupation by Irrep:
              A 
    DOCC [    26 ]

  @DF-RHF Final Energy:  -236.61353816920570

   => Energetics <=

    Nuclear Repulsion Energy =            250.5105679968656887
    One-Electron Energy =                -813.7180016770779503
    Two-Electron Energy =                 326.5938955110065649
    Total Energy =                       -236.6135381692056967

Computation Completed


Properties will be evaluated at   0.000000,   0.000000,   0.000000 [a0]

Properties computed using the SCF density matrix

  Nuclear Dipole Moment: [e a0]
     X:    -1.9718      Y:    -0.3935      Z:     0.0175

  Electronic Dipole Moment: [e a0]
     X:     1.9696      Y:     0.3950      Z:    -0.0123

  Dipole Moment: [e a0]
     X:    -0.0022      Y:     0.0015      Z:     0.0052     Total:     0.0059

  Dipole Moment: [D]
     X:    -0.0055      Y:     0.0038      Z:     0.0133     Total:     0.0149


*** tstop() called on r282 at Fri Sep 10 21:00:49 2021
Module time:
	user time   =      41.17 seconds =       0.69 minutes
	system time =       1.07 seconds =       0.02 minutes
	total time  =         42 seconds =       0.70 minutes
Total time:
	user time   =      41.17 seconds =       0.69 minutes
	system time =       1.07 seconds =       0.02 minutes
	total time  =         42 seconds =       0.70 minutes

  //>>>>>>>>>>>>>>>>>>>>>>>>>>>>>>>>>>>//
  //            Monomer A HF           //
  //<<<<<<<<<<<<<<<<<<<<<<<<<<<<<<<<<<<//


*** tstart() called on r282
*** at Fri Sep 10 21:00:49 2021

   => Loading Basis Set <=

    Name: JUN-CC-PVTZ
    Role: ORBITAL
    Keyword: BASIS
    atoms 1, 5, 8, 11, 15-16           entry C          line   217 file /home/r08543048/miniconda3/share/psi4/basis/jun-cc-pvtz.gbs 
    atoms 2-4, 6-7, 9-10, 12-14, 17-22 entry H          line    36 file /home/r08543048/miniconda3/share/psi4/basis/jun-cc-pvtz.gbs 


         ---------------------------------------------------------
                                   SCF
               by Justin Turney, Rob Parrish, Andy Simmonett
                          and Daniel G. A. Smith
                              RHF Reference
                        1 Threads,  20980 MiB Core
         ---------------------------------------------------------

  ==> Geometry <==

    Molecular point group: c1
    Full point group: C1

    Geometry (in Angstrom), charge = 0, multiplicity = 1:

       Center              X                  Y                   Z               Mass       
    ------------   -----------------  -----------------  -----------------  -----------------
         C            0.439094905232     1.978835122995     0.256166563296    12.000000000000
         H            1.224423905232     2.488312122995     0.816242563296     1.007825032230
         H           -0.330240094768     1.673527122995     0.967022563296     1.007825032230
         H           -0.005249094768     2.700593122995    -0.429174436704     1.007825032230
         C            1.000095905232     0.770449122995    -0.482312436704    12.000000000000
         H            0.205218905232     0.284762122995    -1.055152436704     1.007825032230
         H            1.749474905232     1.095034122995    -1.209511436704     1.007825032230
         C            1.628571905232    -0.248487877005     0.459842563296    12.000000000000
         H            0.887337905232    -0.551109877005     1.204258563296     1.007825032230
         H            2.443551905232     0.228970122995     1.010697563296     1.007825032230
         C            2.150960905232    -1.476046877005    -0.275470436704    12.000000000000
         H            2.904376905232    -1.194444877005    -1.012300436704     1.007825032230
         H            2.602561905232    -2.194168877005     0.408445563296     1.007825032230
         H            1.342331905232    -1.981195877005    -0.805937436704     1.007825032230
      Gh(C)          -2.864624094768     0.001879122995    -0.444749436704    12.000000000000
      Gh(C)          -2.177450094768    -0.991372877005     0.484951563296    12.000000000000
      Gh(H)          -3.746867094768     0.434846122995     0.025319563296     1.007825032230
      Gh(H)          -3.184314094768    -0.479805877005    -1.368104436704     1.007825032230
      Gh(H)          -2.196746094768     0.820427122995    -0.710970436704     1.007825032230
      Gh(H)          -2.848977094768    -1.804874877005     0.757359563296     1.007825032230
      Gh(H)          -1.851641094768    -0.509182877005     1.406302563296     1.007825032230
      Gh(H)          -1.298578094768    -1.431472877005     0.014215563296     1.007825032230

  Running in c1 symmetry.

  Rotational constants: A =      0.10965  B =      0.04759  C =      0.03696 [cm^-1]
  Rotational constants: A =   3287.32694  B =   1426.65468  C =   1108.01597 [MHz]
  Nuclear repulsion =  131.108379496993280

  Charge       = 0
  Multiplicity = 1
  Electrons    = 34
  Nalpha       = 17
  Nbeta        = 17

  ==> Algorithm <==

  SCF Algorithm Type is DF.
  DIIS enabled.
  MOM disabled.
  Fractional occupation disabled.
  Guess Type is SAD.
  Energy threshold   = 1.00e-08
  Density threshold  = 1.00e-08
  Integral threshold = 0.00e+00

  ==> Primary Basis <==

  Basis Set: JUN-CC-PVTZ
    Blend: JUN-CC-PVTZ
    Number of shells: 174
    Number of basis function: 458
    Number of Cartesian functions: 510
    Spherical Harmonics?: true
    Max angular momentum: 3

   => Loading Basis Set <=

    Name: (JUN-CC-PVTZ AUX)
    Role: JKFIT
    Keyword: DF_BASIS_SCF
    atoms 1, 5, 8, 11, 15-16           entry C          line   152 file /home/r08543048/miniconda3/share/psi4/basis/jun-cc-pvtz-jkfit.gbs 
    atoms 2-4, 6-7, 9-10, 12-14, 17-22 entry H          line    70 file /home/r08543048/miniconda3/share/psi4/basis/jun-cc-pvtz-jkfit.gbs 

  ==> Pre-Iterations <==

   -------------------------------------------------------
    Irrep   Nso     Nmo     Nalpha   Nbeta   Ndocc  Nsocc
   -------------------------------------------------------
     A        458     458       0       0       0       0
   -------------------------------------------------------
    Total     458     458      17      17      17       0
   -------------------------------------------------------

  ==> Integral Setup <==

  ==> DiskDFJK: Density-Fitted J/K Matrices <==

    J tasked:                  Yes
    K tasked:                  Yes
    wK tasked:                  No
    OpenMP threads:              1
    Integrals threads:           1
    Memory [MiB]:            15735
    Algorithm:                Core
    Integral Cache:           LOAD
    Schwarz Cutoff:          1E-12
    Fitting Condition:       1E-10

   => Auxiliary Basis Set <=

  Basis Set: (JUN-CC-PVTZ AUX)
    Blend: JUN-CC-PVTZ-JKFIT
    Number of shells: 334
    Number of basis function: 1050
    Number of Cartesian functions: 1256
    Spherical Harmonics?: true
    Max angular momentum: 4

  Minimum eigenvalue in the overlap matrix is 5.0811808771E-05.
  Using Symmetric Orthogonalization.

  SCF Guess: Superposition of Atomic Densities via on-the-fly atomic UHF.

  ==> Iterations <==

                           Total Energy        Delta E     RMS |[F,P]|

   @DF-RHF iter SAD:  -156.79625432272681   -1.56796e+02   0.00000e+00 
   @DF-RHF iter   1:  -157.14968581411404   -3.53431e-01   1.25894e-03 DIIS
   @DF-RHF iter   2:  -157.31615247500315   -1.66467e-01   5.85236e-04 DIIS
   @DF-RHF iter   3:  -157.35342115572308   -3.72687e-02   1.03130e-04 DIIS
   @DF-RHF iter   4:  -157.35581485820219   -2.39370e-03   2.40679e-05 DIIS
   @DF-RHF iter   5:  -157.35590651307035   -9.16549e-05   6.22142e-06 DIIS
   @DF-RHF iter   6:  -157.35591416589790   -7.65283e-06   7.78641e-07 DIIS
   @DF-RHF iter   7:  -157.35591434539333   -1.79495e-07   1.37241e-07 DIIS
   @DF-RHF iter   8:  -157.35591435037821   -4.98488e-09   3.06947e-08 DIIS
   @DF-RHF iter   9:  -157.35591435064998   -2.71768e-10   7.00229e-09 DIIS
  Energy and wave function converged.


  ==> Post-Iterations <==

    Orbital Energies [Eh]
    ---------------------

    Doubly Occupied:                                                      

       1A    -11.213344     2A    -11.212720     3A    -11.207539  
       4A    -11.207489     5A     -1.071519     6A     -0.980323  
       7A     -0.860129     8A     -0.787518     9A     -0.639151  
      10A     -0.584256    11A     -0.575659    12A     -0.566923  
      13A     -0.513971    14A     -0.494104    15A     -0.469370  
      16A     -0.461693    17A     -0.455895  

    Virtual:                                                              

      18A      0.038757    19A      0.049621    20A      0.052602  
      21A      0.056525    22A      0.070650    23A      0.075875  
      24A      0.081328    25A      0.086452    26A      0.092444  
      27A      0.104330    28A      0.110013    29A      0.114854  
      30A      0.119264    31A      0.121106    32A      0.126556  
      33A      0.137949    34A      0.143143    35A      0.148929  
      36A      0.162355    37A      0.177214    38A      0.187970  
      39A      0.193814    40A      0.206829    41A      0.210942  
      42A      0.218581    43A      0.237943    44A      0.242134  
      45A      0.263700    46A      0.271083    47A      0.275135  
      48A      0.284515    49A      0.286693    50A      0.299478  
      51A      0.308642    52A      0.313645    53A      0.317951  
      54A      0.323560    55A      0.330612    56A      0.333304  
      57A      0.343272    58A      0.350104    59A      0.351693  
      60A      0.355278    61A      0.367978    62A      0.371212  
      63A      0.374290    64A      0.385586    65A      0.386708  
      66A      0.396737    67A      0.399339    68A      0.408068  
      69A      0.414639    70A      0.415704    71A      0.437840  
      72A      0.443951    73A      0.449848    74A      0.457656  
      75A      0.469340    76A      0.476037    77A      0.481548  
      78A      0.490444    79A      0.506646    80A      0.524686  
      81A      0.529615    82A      0.531007    83A      0.537792  
      84A      0.545710    85A      0.556916    86A      0.562797  
      87A      0.571133    88A      0.576163    89A      0.582778  
      90A      0.591097    91A      0.598874    92A      0.608629  
      93A      0.624448    94A      0.639563    95A      0.645866  
      96A      0.650619    97A      0.658077    98A      0.673081  
      99A      0.700665   100A      0.705784   101A      0.733015  
     102A      0.738089   103A      0.758485   104A      0.768324  
     105A      0.781269   106A      0.790132   107A      0.803632  
     108A      0.814492   109A      0.819561   110A      0.832074  
     111A      0.835506   112A      0.843184   113A      0.864303  
     114A      0.873202   115A      0.881434   116A      0.894419  
     117A      0.913097   118A      0.934008   119A      0.941564  
     120A      0.960819   121A      0.967671   122A      0.995841  
     123A      1.000473   124A      1.002954   125A      1.032738  
     126A      1.055124   127A      1.065738   128A      1.080040  
     129A      1.097360   130A      1.100260   131A      1.115014  
     132A      1.116676   133A      1.139629   134A      1.141317  
     135A      1.151355   136A      1.163652   137A      1.189208  
     138A      1.202586   139A      1.206904   140A      1.214986  
     141A      1.225986   142A      1.232174   143A      1.253993  
     144A      1.261432   145A      1.268886   146A      1.277221  
     147A      1.303654   148A      1.311245   149A      1.318727  
     150A      1.334592   151A      1.339197   152A      1.350376  
     153A      1.355055   154A      1.367995   155A      1.377393  
     156A      1.394757   157A      1.404376   158A      1.413548  
     159A      1.418113   160A      1.432400   161A      1.439558  
     162A      1.448897   163A      1.471220   164A      1.483095  
     165A      1.489117   166A      1.506549   167A      1.511751  
     168A      1.515777   169A      1.529090   170A      1.532963  
     171A      1.551672   172A      1.566903   173A      1.572010  
     174A      1.590996   175A      1.592841   176A      1.593526  
     177A      1.609710   178A      1.627814   179A      1.629844  
     180A      1.632490   181A      1.640014   182A      1.661331  
     183A      1.667629   184A      1.686550   185A      1.705326  
     186A      1.735716   187A      1.746869   188A      1.757557  
     189A      1.768169   190A      1.775511   191A      1.791192  
     192A      1.793601   193A      1.820736   194A      1.840325  
     195A      1.862217   196A      1.891039   197A      1.902243  
     198A      1.910120   199A      1.918695   200A      1.943075  
     201A      1.982042   202A      1.989389   203A      2.009318  
     204A      2.029764   205A      2.046672   206A      2.059914  
     207A      2.094689   208A      2.123128   209A      2.161404  
     210A      2.233667   211A      2.296025   212A      2.356501  
     213A      2.409821   214A      2.414712   215A      2.522746  
     216A      2.567933   217A      2.738192   218A      2.750002  
     219A      2.776977   220A      2.820700   221A      2.860956  
     222A      2.866789   223A      2.881433   224A      2.893474  
     225A      2.905380   226A      2.928948   227A      2.934550  
     228A      2.973785   229A      3.004735   230A      3.036554  
     231A      3.076279   232A      3.126196   233A      3.133463  
     234A      3.139405   235A      3.144046   236A      3.144283  
     237A      3.165264   238A      3.189885   239A      3.233207  
     240A      3.258504   241A      3.275504   242A      3.289889  
     243A      3.312296   244A      3.328290   245A      3.334002  
     246A      3.356716   247A      3.400393   248A      3.405511  
     249A      3.408276   250A      3.412897   251A      3.425019  
     252A      3.450610   253A      3.460821   254A      3.463157  
     255A      3.484402   256A      3.492417   257A      3.504105  
     258A      3.505068   259A      3.511203   260A      3.538126  
     261A      3.539829   262A      3.548210   263A      3.556993  
     264A      3.569272   265A      3.572936   266A      3.574840  
     267A      3.581618   268A      3.609259   269A      3.626756  
     270A      3.632516   271A      3.647111   272A      3.654554  
     273A      3.659936   274A      3.680569   275A      3.689464  
     276A      3.720488   277A      3.731620   278A      3.735900  
     279A      3.774875   280A      3.793937   281A      3.796908  
     282A      3.804363   283A      3.811623   284A      3.825901  
     285A      3.830173   286A      3.843201   287A      3.846230  
     288A      3.863338   289A      3.886426   290A      3.926364  
     291A      3.931030   292A      3.935565   293A      3.942905  
     294A      3.958391   295A      3.964181   296A      3.979989  
     297A      3.984621   298A      4.007694   299A      4.029016  
     300A      4.045686   301A      4.072752   302A      4.090342  
     303A      4.100289   304A      4.136411   305A      4.151955  
     306A      4.159418   307A      4.171081   308A      4.183112  
     309A      4.193666   310A      4.223810   311A      4.228080  
     312A      4.246097   313A      4.262714   314A      4.271643  
     315A      4.292594   316A      4.305551   317A      4.331142  
     318A      4.334668   319A      4.348375   320A      4.367010  
     321A      4.369908   322A      4.377590   323A      4.387038  
     324A      4.393190   325A      4.410333   326A      4.428594  
     327A      4.441440   328A      4.446328   329A      4.467986  
     330A      4.477829   331A      4.485312   332A      4.504945  
     333A      4.510063   334A      4.512699   335A      4.522543  
     336A      4.536081   337A      4.539632   338A      4.541909  
     339A      4.544650   340A      4.552465   341A      4.564306  
     342A      4.595718   343A      4.606280   344A      4.613964  
     345A      4.633519   346A      4.643774   347A      4.655485  
     348A      4.673861   349A      4.698463   350A      4.716365  
     351A      4.718238   352A      4.727807   353A      4.734155  
     354A      4.743021   355A      4.752358   356A      4.765461  
     357A      4.776894   358A      4.802098   359A      4.816617  
     360A      4.828863   361A      4.840067   362A      4.847519  
     363A      4.862083   364A      4.866422   365A      4.886998  
     366A      4.903409   367A      4.912080   368A      4.932777  
     369A      4.959601   370A      4.970457   371A      4.985246  
     372A      5.002179   373A      5.020013   374A      5.029954  
     375A      5.033152   376A      5.050922   377A      5.067961  
     378A      5.073921   379A      5.109427   380A      5.116782  
     381A      5.135280   382A      5.163573   383A      5.166716  
     384A      5.239113   385A      5.249954   386A      5.267979  
     387A      5.277485   388A      5.299696   389A      5.310955  
     390A      5.316534   391A      5.356988   392A      5.361159  
     393A      5.370092   394A      5.394236   395A      5.405636  
     396A      5.406521   397A      5.436699   398A      5.443344  
     399A      5.462523   400A      5.535197   401A      5.558440  
     402A      5.626903   403A      5.642915   404A      5.655247  
     405A      5.656711   406A      5.672554   407A      5.722354  
     408A      5.724286   409A      5.750882   410A      5.764252  
     411A      5.784684   412A      5.796725   413A      5.803851  
     414A      5.854616   415A      5.901595   416A      5.911329  
     417A      5.954407   418A      5.962337   419A      5.977163  
     420A      5.993967   421A      6.004857   422A      6.015246  
     423A      6.077744   424A      6.186918   425A      6.225713  
     426A      6.334212   427A      6.338258   428A      6.362323  
     429A      6.363541   430A      6.404914   431A      6.453543  
     432A      6.461011   433A      6.494728   434A      6.513398  
     435A      6.551049   436A      6.553769   437A      6.585027  
     438A      6.637253   439A      6.802747   440A      6.896536  
     441A      7.356613   442A      7.493289   443A      7.513118  
     444A      7.651237   445A      7.694684   446A      7.790198  
     447A      7.804424   448A      7.894070   449A      7.923237  
     450A      8.282613   451A      9.708599   452A      9.939123  
     453A     13.722860   454A     14.234743   455A     14.512647  
     456A     14.688407   457A     45.039065   458A     45.641805  

    Final Occupation by Irrep:
              A 
    DOCC [    17 ]

  @DF-RHF Final Energy:  -157.35591435064998

   => Energetics <=

    Nuclear Repulsion Energy =            131.1083794969932796
    One-Electron Energy =                -470.3253752590197792
    Two-Electron Energy =                 181.8610814113765173
    Total Energy =                       -157.3559143506499822

Computation Completed


Properties will be evaluated at   0.000000,   0.000000,   0.000000 [a0]

Properties computed using the SCF density matrix

  Nuclear Dipole Moment: [e a0]
     X:    83.7831      Y:    16.4383      Z:    -0.6728

  Electronic Dipole Moment: [e a0]
     X:   -83.7821      Y:   -16.4379      Z:     0.6727

  Dipole Moment: [e a0]
     X:     0.0010      Y:     0.0004      Z:    -0.0001     Total:     0.0011

  Dipole Moment: [D]
     X:     0.0026      Y:     0.0011      Z:    -0.0003     Total:     0.0028


*** tstop() called on r282 at Fri Sep 10 21:01:11 2021
Module time:
	user time   =      21.49 seconds =       0.36 minutes
	system time =       0.45 seconds =       0.01 minutes
	total time  =         22 seconds =       0.37 minutes
Total time:
	user time   =      62.66 seconds =       1.04 minutes
	system time =       1.52 seconds =       0.03 minutes
	total time  =         64 seconds =       1.07 minutes

  //>>>>>>>>>>>>>>>>>>>>>>>>>>>>>>>>>>>//
  //            Monomer B HF           //
  //<<<<<<<<<<<<<<<<<<<<<<<<<<<<<<<<<<<//


*** tstart() called on r282
*** at Fri Sep 10 21:01:11 2021

   => Loading Basis Set <=

    Name: JUN-CC-PVTZ
    Role: ORBITAL
    Keyword: BASIS
    atoms 1, 5, 8, 11, 15-16           entry C          line   217 file /home/r08543048/miniconda3/share/psi4/basis/jun-cc-pvtz.gbs 
    atoms 2-4, 6-7, 9-10, 12-14, 17-22 entry H          line    36 file /home/r08543048/miniconda3/share/psi4/basis/jun-cc-pvtz.gbs 


         ---------------------------------------------------------
                                   SCF
               by Justin Turney, Rob Parrish, Andy Simmonett
                          and Daniel G. A. Smith
                              RHF Reference
                        1 Threads,  20980 MiB Core
         ---------------------------------------------------------

  ==> Geometry <==

    Molecular point group: c1
    Full point group: C1

    Geometry (in Angstrom), charge = 0, multiplicity = 1:

       Center              X                  Y                   Z               Mass       
    ------------   -----------------  -----------------  -----------------  -----------------
      Gh(C)           0.439094905232     1.978835122995     0.256166563296    12.000000000000
      Gh(H)           1.224423905232     2.488312122995     0.816242563296     1.007825032230
      Gh(H)          -0.330240094768     1.673527122995     0.967022563296     1.007825032230
      Gh(H)          -0.005249094768     2.700593122995    -0.429174436704     1.007825032230
      Gh(C)           1.000095905232     0.770449122995    -0.482312436704    12.000000000000
      Gh(H)           0.205218905232     0.284762122995    -1.055152436704     1.007825032230
      Gh(H)           1.749474905232     1.095034122995    -1.209511436704     1.007825032230
      Gh(C)           1.628571905232    -0.248487877005     0.459842563296    12.000000000000
      Gh(H)           0.887337905232    -0.551109877005     1.204258563296     1.007825032230
      Gh(H)           2.443551905232     0.228970122995     1.010697563296     1.007825032230
      Gh(C)           2.150960905232    -1.476046877005    -0.275470436704    12.000000000000
      Gh(H)           2.904376905232    -1.194444877005    -1.012300436704     1.007825032230
      Gh(H)           2.602561905232    -2.194168877005     0.408445563296     1.007825032230
      Gh(H)           1.342331905232    -1.981195877005    -0.805937436704     1.007825032230
         C           -2.864624094768     0.001879122995    -0.444749436704    12.000000000000
         C           -2.177450094768    -0.991372877005     0.484951563296    12.000000000000
         H           -3.746867094768     0.434846122995     0.025319563296     1.007825032230
         H           -3.184314094768    -0.479805877005    -1.368104436704     1.007825032230
         H           -2.196746094768     0.820427122995    -0.710970436704     1.007825032230
         H           -2.848977094768    -1.804874877005     0.757359563296     1.007825032230
         H           -1.851641094768    -0.509182877005     1.406302563296     1.007825032230
         H           -1.298578094768    -1.431472877005     0.014215563296     1.007825032230

  Running in c1 symmetry.

  Rotational constants: A =      0.10965  B =      0.04759  C =      0.03696 [cm^-1]
  Rotational constants: A =   3287.32694  B =   1426.65468  C =   1108.01597 [MHz]
  Nuclear repulsion =   42.337051364680129

  Charge       = 0
  Multiplicity = 1
  Electrons    = 18
  Nalpha       = 9
  Nbeta        = 9

  ==> Algorithm <==

  SCF Algorithm Type is DF.
  DIIS enabled.
  MOM disabled.
  Fractional occupation disabled.
  Guess Type is SAD.
  Energy threshold   = 1.00e-08
  Density threshold  = 1.00e-08
  Integral threshold = 0.00e+00

  ==> Primary Basis <==

  Basis Set: JUN-CC-PVTZ
    Blend: JUN-CC-PVTZ
    Number of shells: 174
    Number of basis function: 458
    Number of Cartesian functions: 510
    Spherical Harmonics?: true
    Max angular momentum: 3

   => Loading Basis Set <=

    Name: (JUN-CC-PVTZ AUX)
    Role: JKFIT
    Keyword: DF_BASIS_SCF
    atoms 1, 5, 8, 11, 15-16           entry C          line   152 file /home/r08543048/miniconda3/share/psi4/basis/jun-cc-pvtz-jkfit.gbs 
    atoms 2-4, 6-7, 9-10, 12-14, 17-22 entry H          line    70 file /home/r08543048/miniconda3/share/psi4/basis/jun-cc-pvtz-jkfit.gbs 

  ==> Pre-Iterations <==

   -------------------------------------------------------
    Irrep   Nso     Nmo     Nalpha   Nbeta   Ndocc  Nsocc
   -------------------------------------------------------
     A        458     458       0       0       0       0
   -------------------------------------------------------
    Total     458     458       9       9       9       0
   -------------------------------------------------------

  ==> Integral Setup <==

  ==> DiskDFJK: Density-Fitted J/K Matrices <==

    J tasked:                  Yes
    K tasked:                  Yes
    wK tasked:                  No
    OpenMP threads:              1
    Integrals threads:           1
    Memory [MiB]:            15735
    Algorithm:                Core
    Integral Cache:           LOAD
    Schwarz Cutoff:          1E-12
    Fitting Condition:       1E-10

   => Auxiliary Basis Set <=

  Basis Set: (JUN-CC-PVTZ AUX)
    Blend: JUN-CC-PVTZ-JKFIT
    Number of shells: 334
    Number of basis function: 1050
    Number of Cartesian functions: 1256
    Spherical Harmonics?: true
    Max angular momentum: 4

  Minimum eigenvalue in the overlap matrix is 5.0811808771E-05.
  Using Symmetric Orthogonalization.

  SCF Guess: Superposition of Atomic Densities via on-the-fly atomic UHF.

  ==> Iterations <==

                           Total Energy        Delta E     RMS |[F,P]|

   @DF-RHF iter SAD:   -78.65977261379018   -7.86598e+01   0.00000e+00 
   @DF-RHF iter   1:   -79.14811501809484   -4.88342e-01   9.48154e-04 DIIS
   @DF-RHF iter   2:   -79.23892023836244   -9.08052e-02   4.32984e-04 DIIS
   @DF-RHF iter   3:   -79.25885274736109   -1.99325e-02   7.08011e-05 DIIS
   @DF-RHF iter   4:   -79.26011839903879   -1.26565e-03   9.82245e-06 DIIS
   @DF-RHF iter   5:   -79.26014625080442   -2.78518e-05   1.75639e-06 DIIS
   @DF-RHF iter   6:   -79.26014709260271   -8.41798e-07   2.11048e-07 DIIS
   @DF-RHF iter   7:   -79.26014710548758   -1.28849e-08   2.39133e-08 DIIS
   @DF-RHF iter   8:   -79.26014710562301   -1.35429e-10   5.24502e-09 DIIS
  Energy and wave function converged.


  ==> Post-Iterations <==

    Orbital Energies [Eh]
    ---------------------

    Doubly Occupied:                                                      

       1A    -11.210551     2A    -11.209938     3A     -1.018432  
       4A     -0.841649     5A     -0.597076     6A     -0.596922  
       7A     -0.509896     8A     -0.486624     9A     -0.486487  

    Virtual:                                                              

      10A      0.030941    11A      0.043209    12A      0.050748  
      13A      0.060721    14A      0.069196    15A      0.072207  
      16A      0.083801    17A      0.086202    18A      0.087552  
      19A      0.104893    20A      0.108880    21A      0.114734  
      22A      0.119082    23A      0.122096    24A      0.122624  
      25A      0.128948    26A      0.138799    27A      0.147140  
      28A      0.154678    29A      0.157543    30A      0.170686  
      31A      0.177707    32A      0.181532    33A      0.200265  
      34A      0.212028    35A      0.243989    36A      0.256697  
      37A      0.266963    38A      0.277690    39A      0.278816  
      40A      0.286706    41A      0.288408    42A      0.294627  
      43A      0.303493    44A      0.307621    45A      0.321203  
      46A      0.322447    47A      0.329299    48A      0.336864  
      49A      0.338921    50A      0.344107    51A      0.350576  
      52A      0.358449    53A      0.361068    54A      0.362988  
      55A      0.372215    56A      0.375192    57A      0.377942  
      58A      0.382427    59A      0.396911    60A      0.397979  
      61A      0.406080    62A      0.416638    63A      0.428227  
      64A      0.435813    65A      0.452537    66A      0.473207  
      67A      0.480812    68A      0.491493    69A      0.491956  
      70A      0.503585    71A      0.516101    72A      0.520036  
      73A      0.533459    74A      0.537678    75A      0.546209  
      76A      0.551499    77A      0.566463    78A      0.576729  
      79A      0.581543    80A      0.589230    81A      0.600927  
      82A      0.616462    83A      0.623382    84A      0.629460  
      85A      0.647920    86A      0.655154    87A      0.657431  
      88A      0.666609    89A      0.673680    90A      0.680416  
      91A      0.686198    92A      0.692304    93A      0.702620  
      94A      0.716415    95A      0.732622    96A      0.745209  
      97A      0.756509    98A      0.771293    99A      0.787800  
     100A      0.798882   101A      0.805533   102A      0.816317  
     103A      0.839530   104A      0.839912   105A      0.842981  
     106A      0.882977   107A      0.884950   108A      0.914423  
     109A      0.920900   110A      0.963136   111A      0.985329  
     112A      0.994864   113A      1.024266   114A      1.054708  
     115A      1.061110   116A      1.076426   117A      1.092477  
     118A      1.106209   119A      1.118036   120A      1.122538  
     121A      1.136581   122A      1.146866   123A      1.166639  
     124A      1.184205   125A      1.189091   126A      1.204223  
     127A      1.209834   128A      1.220581   129A      1.229743  
     130A      1.232268   131A      1.256100   132A      1.262112  
     133A      1.267131   134A      1.282124   135A      1.289615  
     136A      1.307057   137A      1.317651   138A      1.319742  
     139A      1.324816   140A      1.342981   141A      1.346446  
     142A      1.351483   143A      1.359007   144A      1.362491  
     145A      1.369290   146A      1.378292   147A      1.385869  
     148A      1.396975   149A      1.412185   150A      1.419838  
     151A      1.432953   152A      1.442892   153A      1.451819  
     154A      1.463295   155A      1.469498   156A      1.483108  
     157A      1.484576   158A      1.512142   159A      1.524076  
     160A      1.531913   161A      1.538876   162A      1.544520  
     163A      1.552895   164A      1.578246   165A      1.591419  
     166A      1.594529   167A      1.596028   168A      1.610495  
     169A      1.617327   170A      1.631323   171A      1.644791  
     172A      1.651817   173A      1.665678   174A      1.670573  
     175A      1.693391   176A      1.719941   177A      1.728060  
     178A      1.732454   179A      1.738866   180A      1.761520  
     181A      1.789703   182A      1.795500   183A      1.827963  
     184A      1.842403   185A      1.872449   186A      1.886433  
     187A      1.901487   188A      1.905311   189A      1.929388  
     190A      1.955931   191A      1.965674   192A      1.976399  
     193A      2.001256   194A      2.026790   195A      2.094525  
     196A      2.099269   197A      2.110378   198A      2.162577  
     199A      2.174167   200A      2.221563   201A      2.244536  
     202A      2.300309   203A      2.330642   204A      2.333767  
     205A      2.384420   206A      2.409546   207A      2.432150  
     208A      2.468277   209A      2.480921   210A      2.523471  
     211A      2.620044   212A      2.632752   213A      2.660187  
     214A      2.664600   215A      2.744670   216A      2.751645  
     217A      2.787979   218A      2.797909   219A      2.834888  
     220A      2.843298   221A      2.963597   222A      2.983045  
     223A      3.078852   224A      3.111146   225A      3.128002  
     226A      3.189848   227A      3.198814   228A      3.217772  
     229A      3.234179   230A      3.274209   231A      3.313612  
     232A      3.339679   233A      3.350790   234A      3.429082  
     235A      3.432522   236A      3.437534   237A      3.448553  
     238A      3.497328   239A      3.505369   240A      3.508885  
     241A      3.518587   242A      3.541438   243A      3.550826  
     244A      3.559256   245A      3.570251   246A      3.578435  
     247A      3.584074   248A      3.588105   249A      3.596414  
     250A      3.610454   251A      3.615600   252A      3.635737  
     253A      3.645656   254A      3.661291   255A      3.667500  
     256A      3.704544   257A      3.733634   258A      3.766978  
     259A      3.776554   260A      3.793529   261A      3.803752  
     262A      3.809546   263A      3.817613   264A      3.827183  
     265A      3.847860   266A      3.852957   267A      3.855411  
     268A      3.859658   269A      3.869054   270A      3.880529  
     271A      3.895271   272A      3.903743   273A      3.908335  
     274A      3.912122   275A      3.922505   276A      3.932246  
     277A      3.946566   278A      3.965649   279A      3.980108  
     280A      4.007134   281A      4.058964   282A      4.072384  
     283A      4.077654   284A      4.133128   285A      4.144587  
     286A      4.166509   287A      4.171223   288A      4.179497  
     289A      4.191501   290A      4.196726   291A      4.203507  
     292A      4.218696   293A      4.241654   294A      4.260298  
     295A      4.264825   296A      4.283986   297A      4.285769  
     298A      4.299792   299A      4.311636   300A      4.328938  
     301A      4.366252   302A      4.372388   303A      4.383762  
     304A      4.391691   305A      4.427195   306A      4.443802  
     307A      4.459611   308A      4.465075   309A      4.473587  
     310A      4.477789   311A      4.484239   312A      4.496476  
     313A      4.501398   314A      4.515864   315A      4.521425  
     316A      4.530636   317A      4.550440   318A      4.565555  
     319A      4.570576   320A      4.582072   321A      4.600322  
     322A      4.615137   323A      4.624371   324A      4.638531  
     325A      4.654367   326A      4.662690   327A      4.674555  
     328A      4.683577   329A      4.689093   330A      4.702164  
     331A      4.712384   332A      4.727764   333A      4.740621  
     334A      4.748427   335A      4.764402   336A      4.768562  
     337A      4.774987   338A      4.775998   339A      4.793596  
     340A      4.806606   341A      4.816382   342A      4.822866  
     343A      4.840117   344A      4.855378   345A      4.864601  
     346A      4.878672   347A      4.886440   348A      4.897468  
     349A      4.904991   350A      4.917201   351A      4.929223  
     352A      4.936051   353A      4.942096   354A      4.946076  
     355A      4.957868   356A      4.975594   357A      4.981884  
     358A      4.993607   359A      5.009601   360A      5.025800  
     361A      5.044932   362A      5.062792   363A      5.068772  
     364A      5.118342   365A      5.134227   366A      5.169988  
     367A      5.182770   368A      5.199581   369A      5.210253  
     370A      5.219559   371A      5.230344   372A      5.248520  
     373A      5.278593   374A      5.281303   375A      5.295455  
     376A      5.317816   377A      5.329456   378A      5.337602  
     379A      5.348156   380A      5.355179   381A      5.367254  
     382A      5.387957   383A      5.451477   384A      5.481520  
     385A      5.516459   386A      5.548317   387A      5.557175  
     388A      5.629153   389A      5.649014   390A      5.679293  
     391A      5.694905   392A      5.704478   393A      5.762341  
     394A      5.767413   395A      5.770706   396A      5.775098  
     397A      5.799296   398A      5.801862   399A      5.826298  
     400A      5.830309   401A      5.906480   402A      5.916447  
     403A      5.932152   404A      5.943262   405A      5.955819  
     406A      6.021627   407A      6.029174   408A      6.064848  
     409A      6.093704   410A      6.134889   411A      6.249434  
     412A      6.318555   413A      6.340145   414A      6.377424  
     415A      6.387704   416A      6.394244   417A      6.422866  
     418A      6.455055   419A      6.464410   420A      6.477258  
     421A      6.484623   422A      6.498910   423A      6.514570  
     424A      6.538882   425A      6.561484   426A      6.741603  
     427A      6.793385   428A      6.808435   429A      6.945325  
     430A      7.047161   431A      7.266548   432A      7.508260  
     433A      7.533511   434A      7.575737   435A      7.587020  
     436A      7.595863   437A      7.669896   438A      7.718501  
     439A      7.741645   440A      7.802885   441A      7.810786  
     442A      7.846459   443A      7.931294   444A      7.939918  
     445A      8.110745   446A      8.279590   447A      8.439876  
     448A      8.633324   449A      9.590234   450A      9.684600  
     451A      9.877776   452A      9.930005   453A     14.214973  
     454A     14.697123   455A     43.806323   456A     45.364401  
     457A     45.509373   458A     45.806602  

    Final Occupation by Irrep:
              A 
    DOCC [     9 ]

  @DF-RHF Final Energy:   -79.26014710562301

   => Energetics <=

    Nuclear Repulsion Energy =             42.3370513646801285
    One-Electron Energy =                -189.2792479607986422
    Two-Electron Energy =                  67.6820494904955154
    Total Energy =                        -79.2601471056230054

Computation Completed


Properties will be evaluated at   0.000000,   0.000000,   0.000000 [a0]

Properties computed using the SCF density matrix

  Nuclear Dipole Moment: [e a0]
     X:   -85.7550      Y:   -16.8318      Z:     0.6904

  Electronic Dipole Moment: [e a0]
     X:    85.7544      Y:    16.8319      Z:    -0.6903

  Dipole Moment: [e a0]
     X:    -0.0006      Y:     0.0001      Z:     0.0001     Total:     0.0006

  Dipole Moment: [D]
     X:    -0.0015      Y:     0.0002      Z:     0.0002     Total:     0.0015


*** tstop() called on r282 at Fri Sep 10 21:01:28 2021
Module time:
	user time   =      16.50 seconds =       0.27 minutes
	system time =       0.41 seconds =       0.01 minutes
	total time  =         17 seconds =       0.28 minutes
Total time:
	user time   =      79.17 seconds =       1.32 minutes
	system time =       1.93 seconds =       0.03 minutes
	total time  =         81 seconds =       1.35 minutes
  Constructing Basis Sets for SAPT...

   => Loading Basis Set <=

    Name: (JUN-CC-PVTZ AUX)
    Role: RIFIT
    Keyword: DF_BASIS_SAPT
    atoms 1, 5, 8, 11, 15-16           entry C          line   132 file /home/r08543048/miniconda3/share/psi4/basis/jun-cc-pvtz-ri.gbs 
    atoms 2-4, 6-7, 9-10, 12-14, 17-22 entry H          line    30 file /home/r08543048/miniconda3/share/psi4/basis/jun-cc-pvtz-ri.gbs 


  //>>>>>>>>>>>>>>>>>>>>>>>>>>>>>>>>>>>//
  //               SAPT0               //
  //<<<<<<<<<<<<<<<<<<<<<<<<<<<<<<<<<<<//


*** tstart() called on r282
*** at Fri Sep 10 21:01:28 2021

        SAPT0  
    Ed Hohenstein
     6 June 2009

      Orbital Information
  --------------------------
    NSO        =       458
    NMO        =       458
    NRI        =      1062
    NOCC A     =        17
    NOCC B     =         9
    FOCC A     =         0
    FOCC B     =         0
    NVIR A     =       441
    NVIR B     =       449

    Elst10,r            =    -0.001284571242 [Eh]
    Exch10              =     0.004137377873 [Eh]
    Exch10 (S^2)        =     0.004132153101 [Eh]

    Iter     Energy [mEh]          dE [mEh]         Residual      Time [s]
       1      -0.23017365       0.230173649       1.852742606             1
       2      -0.27645494       0.046281293       0.318093338             2
       3      -0.27650043       0.000045493       0.099796078             2
       4      -0.27587079      -0.000629646       0.021034532             3
       5      -0.27592418       0.000053390       0.005903224             4
       6      -0.27593939       0.000015209       0.001300511             5
       7      -0.27593671      -0.000002677       0.000343480             5
       8      -0.27593604      -0.000000672       0.000080687             6
       9      -0.27593623       0.000000192       0.000017047             7
      10      -0.27593623       0.000000003       0.000004389             8
      11      -0.27593623      -0.000000008       0.000001111             9
      12      -0.27593623      -0.000000000       0.000000331             9

    CHF Iterations converged


    Iter     Energy [mEh]          dE [mEh]         Residual      Time [s]
       1      -0.26518179       0.265181790       2.011239224             1
       2      -0.32037040       0.055188607       0.311727427             2
       3      -0.32007882      -0.000291578       0.096217234             2
       4      -0.31950219      -0.000576633       0.019278041             3
       5      -0.31956361       0.000061429       0.004502771             4
       6      -0.31957342       0.000009804       0.000811830             4
       7      -0.31957043      -0.000002989       0.000172954             5
       8      -0.31957051       0.000000081       0.000053484             6
       9      -0.31957063       0.000000122       0.000010935             6
      10      -0.31957062      -0.000000012       0.000001967             7
      11      -0.31957062      -0.000000002       0.000000382             7

    CHF Iterations converged

    Ind20,r (A<-B)      =    -0.000275936225 [Eh]
    Ind20,r (B<-A)      =    -0.000319570618 [Eh]
    Ind20,r             =    -0.000595506844 [Eh]
    Exch-Ind20,r (A<-B) =     0.000242851241 [Eh]
    Exch-Ind20,r (B<-A) =     0.000284407784 [Eh]
    Exch-Ind20,r        =     0.000527259025 [Eh]
    Disp20              =    -0.005849279526 [Eh]
    Disp20 (SS)         =    -0.002924639763 [Eh]
    Disp20 (OS)         =    -0.002924639763 [Eh]
    Exch-Disp20         =     0.000450015483 [Eh]
    Exch-Disp20 (SS)    =     0.000296904623 [Eh]
    Exch-Disp20 (OS)    =     0.000153110860 [Eh]

    SAPT Results 
  --------------------------------------------------------------------------------------------------------
    Electrostatics                 -1.28457124 [mEh]      -0.80608062 [kcal/mol]      -3.37264133 [kJ/mol]
      Elst10,r                     -1.28457124 [mEh]      -0.80608062 [kcal/mol]      -3.37264133 [kJ/mol]

    Exchange                        4.13737787 [mEh]       2.59624381 [kcal/mol]      10.86268411 [kJ/mol]
      Exch10                        4.13737787 [mEh]       2.59624381 [kcal/mol]      10.86268411 [kJ/mol]
      Exch10(S^2)                   4.13215310 [mEh]       2.59296522 [kcal/mol]      10.84896647 [kJ/mol]

    Induction                      -0.32951956 [mEh]      -0.20677665 [kcal/mol]      -0.86515349 [kJ/mol]
      Ind20,r                      -0.59550684 [mEh]      -0.37368619 [kcal/mol]      -1.56350300 [kJ/mol]
      Exch-Ind20,r                  0.52725903 [mEh]       0.33086003 [kcal/mol]       1.38431838 [kJ/mol]
      delta HF,r (2)               -0.26127174 [mEh]      -0.16395050 [kcal/mol]      -0.68596887 [kJ/mol]

    Dispersion                     -5.39926404 [mEh]      -3.38808934 [kcal/mol]     -14.17576579 [kJ/mol]
      Disp20                       -5.84927953 [mEh]      -3.67047832 [kcal/mol]     -15.35728128 [kJ/mol]
      Exch-Disp20                   0.45001548 [mEh]       0.28238898 [kcal/mol]       1.18151549 [kJ/mol]
      Disp20 (SS)                  -2.92463976 [mEh]      -1.83523916 [kcal/mol]      -7.67864064 [kJ/mol]
      Disp20 (OS)                  -2.92463976 [mEh]      -1.83523916 [kcal/mol]      -7.67864064 [kJ/mol]
      Exch-Disp20 (SS)              0.29690462 [mEh]       0.18631046 [kcal/mol]       0.77952298 [kJ/mol]
      Exch-Disp20 (OS)              0.15311086 [mEh]       0.09607851 [kcal/mol]       0.40199251 [kJ/mol]

  Total HF                          2.52328707 [mEh]       1.58338654 [kcal/mol]       6.62488928 [kJ/mol]
  Total SAPT0                      -2.87597698 [mEh]      -1.80470280 [kcal/mol]      -7.55087651 [kJ/mol]

  Special recipe for scaled SAPT0 (see Manual):
    Electrostatics sSAPT0          -1.28457124 [mEh]      -0.80608062 [kcal/mol]      -3.37264133 [kJ/mol]
    Exchange sSAPT0                 4.13737787 [mEh]       2.59624381 [kcal/mol]      10.86268411 [kJ/mol]
    Induction sSAPT0               -0.32751700 [mEh]      -0.20552002 [kcal/mol]      -0.85989578 [kJ/mol]
    Dispersion sSAPT0              -5.39755486 [mEh]      -3.38701681 [kcal/mol]     -14.17127833 [kJ/mol]
  Total sSAPT0                     -2.87226523 [mEh]      -1.80237365 [kcal/mol]      -7.54113133 [kJ/mol]
  --------------------------------------------------------------------------------------------------------

*** tstop() called on r282 at Fri Sep 10 21:02:45 2021
Module time:
	user time   =      65.61 seconds =       1.09 minutes
	system time =      11.12 seconds =       0.19 minutes
	total time  =         77 seconds =       1.28 minutes
Total time:
	user time   =     144.92 seconds =       2.42 minutes
	system time =      13.05 seconds =       0.22 minutes
	total time  =        158 seconds =       2.63 minutes

    Psi4 stopped on: Friday, 10 September 2021 09:02PM
    Psi4 wall time for execution: 0:02:38.57

*** Psi4 exiting successfully. Buy a developer a beer!
