
    -----------------------------------------------------------------------
          Psi4: An Open-Source Ab Initio Electronic Structure Package
                               Psi4 1.3.2 release

                         Git: Rev {HEAD} ecbda83 


    R. M. Parrish, L. A. Burns, D. G. A. Smith, A. C. Simmonett,
    A. E. DePrince III, E. G. Hohenstein, U. Bozkaya, A. Yu. Sokolov,
    R. Di Remigio, R. M. Richard, J. F. Gonthier, A. M. James,
    H. R. McAlexander, A. Kumar, M. Saitow, X. Wang, B. P. Pritchard,
    P. Verma, H. F. Schaefer III, K. Patkowski, R. A. King, E. F. Valeev,
    F. A. Evangelista, J. M. Turney, T. D. Crawford, and C. D. Sherrill,
    J. Chem. Theory Comput. 13(7) pp 3185--3197 (2017).
    (doi: 10.1021/acs.jctc.7b00174)


                         Additional Contributions by
    P. Kraus, H. Kruse, M. H. Lechner, M. C. Schieber, R. A. Shaw,
    A. Alenaizan, R. Galvelis, Z. L. Glick, S. Lehtola, and J. P. Misiewicz

    -----------------------------------------------------------------------


    Psi4 started on: Thursday, 09 September 2021 10:44AM

    Process ID: 53893
    Host:       r282
    PSIDATADIR: /home/r08543048/miniconda3/share/psi4
    Memory:     500.0 MiB
    Threads:    1
    
  ==> Input File <==

--------------------------------------------------------------------------
# Any line starting with the # character is a comment line
#! Sample  computation

memory 22 gb

molecule Dimer {
 
0 1                               
 C    -0.64798400    1.91755000    0.40194600
 C    -1.89463600    1.91169700   -0.47390300
 C    -3.18200100    1.90132500    0.34097200
 C     0.64727900    1.91554700   -0.39923400
 C     1.89402500    1.91703800    0.47649700
 C     3.18126700    1.90108100   -0.33850800
 H    -0.66626100    1.04349200    1.06137100
 H    -0.66944100    2.79652200    1.05476500
 H    -1.86579400    1.03802500   -1.13094900
 H    -1.87727100    2.78878200   -1.12667000
 H    -4.06397500    1.89644200   -0.29944600
 H    -3.23869800    2.78079200    0.98388600
 H    -3.22867600    1.01859900    0.98031300
 H     0.66639300    1.03714600   -1.05285100
 H     0.66776000    2.79017200   -1.05785500
 H     1.86568800    1.04834400    1.14017500
 H     1.87624600    2.79905500    1.12257500
 H     4.06336600    1.90184700    0.30175400
 H     3.23724800    2.77548800   -0.98836200
 H     3.22837000    1.01337300   -0.97085100


 
 --
0 1
 C     0.64797800   -1.91634900    0.39926500
 C     1.89469300   -1.91592800   -0.47650700
 C     3.18196600   -1.90232000    0.33848200
 C    -0.64727200   -1.91632400   -0.40191200
 C    -1.89396400   -1.91365800    0.47391900
 C    -3.18128700   -1.89972400   -0.34099800
 H     0.66724700   -1.03950300    1.05498400
 H     0.66839500   -2.79251400    1.05584100
 H     1.86656400   -1.04560600   -1.13804000
 H     1.87669400   -2.79633200   -1.12476500
 H     4.06404100   -1.90165500   -0.30181500
 H     3.23777700   -2.77838900    0.98610600
 H     3.22929600   -1.01622900    0.97309200
 H    -0.66576800   -1.04030400   -1.05873700
 H    -0.66845500   -2.79333900   -1.05732300
 H    -1.86491300   -1.04259000    1.13442200
 H    -1.87678700   -2.79332100    1.12321300
 H    -4.06330900   -1.89728700    0.29936400
 H    -3.23807800   -2.77655800   -0.98750200
 H    -3.22772400   -1.01438400   -0.97671500


 
 
 
units angstrom

no_reorient
symmetry c1
}

set globals{
  basis jun-cc-pVTZ
  scf_type DF 
  freeze_core True
}

energy('sapt0')


--------------------------------------------------------------------------

  Memory set to  20.489 GiB by Python driver.

  //>>>>>>>>>>>>>>>>>>>>>>>>>>>>>>>>>>>//
  //              Dimer HF             //
  //<<<<<<<<<<<<<<<<<<<<<<<<<<<<<<<<<<<//


*** tstart() called on r282
*** at Thu Sep  9 10:44:46 2021

   => Loading Basis Set <=

    Name: JUN-CC-PVTZ
    Role: ORBITAL
    Keyword: BASIS
    atoms 1-6, 21-26  entry C          line   217 file /home/r08543048/miniconda3/share/psi4/basis/jun-cc-pvtz.gbs 
    atoms 7-20, 27-40 entry H          line    36 file /home/r08543048/miniconda3/share/psi4/basis/jun-cc-pvtz.gbs 


         ---------------------------------------------------------
                                   SCF
               by Justin Turney, Rob Parrish, Andy Simmonett
                          and Daniel G. A. Smith
                              RHF Reference
                        1 Threads,  20980 MiB Core
         ---------------------------------------------------------

  ==> Geometry <==

    Molecular point group: c1
    Full point group: C1

    Geometry (in Angstrom), charge = 0, multiplicity = 1:

       Center              X                  Y                   Z               Mass       
    ------------   -----------------  -----------------  -----------------  -----------------
         C           -0.647988079056     1.917554131179     0.401944793145    12.000000000000
         C           -1.894640079056     1.911701131179    -0.473904206855    12.000000000000
         C           -3.182005079056     1.901329131179     0.340970793145    12.000000000000
         C            0.647274920944     1.915551131179    -0.399235206855    12.000000000000
         C            1.894020920944     1.917042131179     0.476495793145    12.000000000000
         C            3.181262920944     1.901085131179    -0.338509206855    12.000000000000
         H           -0.666265079056     1.043496131179     1.061369793145     1.007825032230
         H           -0.669445079056     2.796526131179     1.054763793145     1.007825032230
         H           -1.865798079056     1.038029131179    -1.130950206855     1.007825032230
         H           -1.877275079056     2.788786131179    -1.126671206855     1.007825032230
         H           -4.063979079056     1.896446131179    -0.299447206855     1.007825032230
         H           -3.238702079056     2.780796131179     0.983884793145     1.007825032230
         H           -3.228680079056     1.018603131179     0.980311793145     1.007825032230
         H            0.666388920944     1.037150131179    -1.052852206855     1.007825032230
         H            0.667755920944     2.790176131179    -1.057856206855     1.007825032230
         H            1.865683920944     1.048348131179     1.140173793145     1.007825032230
         H            1.876241920944     2.799059131179     1.122573793145     1.007825032230
         H            4.063361920944     1.901851131179     0.301752793145     1.007825032230
         H            3.237243920944     2.775492131179    -0.988363206855     1.007825032230
         H            3.228365920944     1.013377131179    -0.970852206855     1.007825032230
         C            0.647973920944    -1.916344868821     0.399263793145    12.000000000000
         C            1.894688920944    -1.915923868821    -0.476508206855    12.000000000000
         C            3.181961920944    -1.902315868821     0.338480793145    12.000000000000
         C           -0.647276079056    -1.916319868821    -0.401913206855    12.000000000000
         C           -1.893968079056    -1.913653868821     0.473917793145    12.000000000000
         C           -3.181291079056    -1.899719868821    -0.340999206855    12.000000000000
         H            0.667242920944    -1.039498868821     1.054982793145     1.007825032230
         H            0.668390920944    -2.792509868821     1.055839793145     1.007825032230
         H            1.866559920944    -1.045601868821    -1.138041206855     1.007825032230
         H            1.876689920944    -2.796327868821    -1.124766206855     1.007825032230
         H            4.064036920944    -1.901650868821    -0.301816206855     1.007825032230
         H            3.237772920944    -2.778384868821     0.986104793145     1.007825032230
         H            3.229291920944    -1.016224868821     0.973090793145     1.007825032230
         H           -0.665772079056    -1.040299868821    -1.058738206855     1.007825032230
         H           -0.668459079056    -2.793334868821    -1.057324206855     1.007825032230
         H           -1.864917079056    -1.042585868821     1.134420793145     1.007825032230
         H           -1.876791079056    -2.793316868821     1.123211793145     1.007825032230
         H           -4.063313079056    -1.897282868821     0.299362793145     1.007825032230
         H           -3.238082079056    -2.776553868821    -0.987503206855     1.007825032230
         H           -3.227728079056    -1.014379868821    -0.976716206855     1.007825032230

  Running in c1 symmetry.

  Rotational constants: A =      0.02413  B =      0.01847  C =      0.01118 [cm^-1]
  Rotational constants: A =    723.29486  B =    553.86656  C =    335.09510 [MHz]
  Nuclear repulsion =  771.018581207042757

  Charge       = 0
  Multiplicity = 1
  Electrons    = 100
  Nalpha       = 50
  Nbeta        = 50

  ==> Algorithm <==

  SCF Algorithm Type is DF.
  DIIS enabled.
  MOM disabled.
  Fractional occupation disabled.
  Guess Type is SAD.
  Energy threshold   = 1.00e-08
  Density threshold  = 1.00e-08
  Integral threshold = 0.00e+00

  ==> Primary Basis <==

  Basis Set: JUN-CC-PVTZ
    Blend: JUN-CC-PVTZ
    Number of shells: 324
    Number of basis function: 860
    Number of Cartesian functions: 960
    Spherical Harmonics?: true
    Max angular momentum: 3

   => Loading Basis Set <=

    Name: (JUN-CC-PVTZ AUX)
    Role: JKFIT
    Keyword: DF_BASIS_SCF
    atoms 1-6, 21-26  entry C          line   152 file /home/r08543048/miniconda3/share/psi4/basis/jun-cc-pvtz-jkfit.gbs 
    atoms 7-20, 27-40 entry H          line    70 file /home/r08543048/miniconda3/share/psi4/basis/jun-cc-pvtz-jkfit.gbs 

  ==> Pre-Iterations <==

   -------------------------------------------------------
    Irrep   Nso     Nmo     Nalpha   Nbeta   Ndocc  Nsocc
   -------------------------------------------------------
     A        860     860       0       0       0       0
   -------------------------------------------------------
    Total     860     860      50      50      50       0
   -------------------------------------------------------

  ==> Integral Setup <==

  ==> DiskDFJK: Density-Fitted J/K Matrices <==

    J tasked:                  Yes
    K tasked:                  Yes
    wK tasked:                  No
    OpenMP threads:              1
    Integrals threads:           1
    Memory [MiB]:            15735
    Algorithm:                Core
    Integral Cache:           SAVE
    Schwarz Cutoff:          1E-12
    Fitting Condition:       1E-10

   => Auxiliary Basis Set <=

  Basis Set: (JUN-CC-PVTZ AUX)
    Blend: JUN-CC-PVTZ-JKFIT
    Number of shells: 628
    Number of basis function: 1980
    Number of Cartesian functions: 2372
    Spherical Harmonics?: true
    Max angular momentum: 4

  Minimum eigenvalue in the overlap matrix is 1.9754648084E-05.
  Using Symmetric Orthogonalization.

  SCF Guess: Superposition of Atomic Densities via on-the-fly atomic UHF.

  ==> Iterations <==

                           Total Energy        Delta E     RMS |[F,P]|

   @DF-RHF iter SAD:  -470.18643710327336   -4.70186e+02   0.00000e+00 
   @DF-RHF iter   1:  -470.31499766052082   -1.28561e-01   1.11008e-03 DIIS
   @DF-RHF iter   2:  -470.79181110742036   -4.76813e-01   4.99648e-04 DIIS
   @DF-RHF iter   3:  -470.88929749984203   -9.74864e-02   9.37028e-05 DIIS
   @DF-RHF iter   4:  -470.89615913692182   -6.86164e-03   1.90318e-05 DIIS
   @DF-RHF iter   5:  -470.89636891488294   -2.09778e-04   5.70043e-06 DIIS
   @DF-RHF iter   6:  -470.89638946168446   -2.05468e-05   9.69454e-07 DIIS
   @DF-RHF iter   7:  -470.89639011772408   -6.56040e-07   2.75077e-07 DIIS
   @DF-RHF iter   8:  -470.89639016374451   -4.60204e-08   5.54188e-08 DIIS
   @DF-RHF iter   9:  -470.89639016585375   -2.10923e-09   1.27871e-08 DIIS
   @DF-RHF iter  10:  -470.89639016600006   -1.46315e-10   2.60670e-09 DIIS
  Energy and wave function converged.


  ==> Post-Iterations <==

    Orbital Energies [Eh]
    ---------------------

    Doubly Occupied:                                                      

       1A    -11.213184     2A    -11.213180     3A    -11.213167  
       4A    -11.213160     5A    -11.211128     6A    -11.211127  
       7A    -11.210507     8A    -11.210505     9A    -11.207238  
      10A    -11.207238    11A    -11.207232    12A    -11.207231  
      13A     -1.089880    14A     -1.084986    15A     -1.040289  
      16A     -1.035604    17A     -0.963833    18A     -0.959613  
      19A     -0.872964    20A     -0.870031    21A     -0.798936  
      22A     -0.796526    23A     -0.789213    24A     -0.781517  
      25A     -0.667224    26A     -0.639251    27A     -0.623556  
      28A     -0.598693    29A     -0.597022    30A     -0.594552  
      31A     -0.580369    32A     -0.575595    33A     -0.562649  
      34A     -0.544488    35A     -0.528909    36A     -0.527729  
      37A     -0.526571    38A     -0.524376    39A     -0.503096  
      40A     -0.496553    41A     -0.482974    42A     -0.478144  
      43A     -0.473406    44A     -0.471377    45A     -0.465580  
      46A     -0.461165    47A     -0.453990    48A     -0.446403  
      49A     -0.439305    50A     -0.437940  

    Virtual:                                                              

      51A      0.047356    52A      0.047638    53A      0.048444  
      54A      0.055497    55A      0.064569    56A      0.065374  
      57A      0.066861    58A      0.068652    59A      0.080860  
      60A      0.084221    61A      0.090095    62A      0.092661  
      63A      0.094168    64A      0.101479    65A      0.110029  
      66A      0.114722    67A      0.116017    68A      0.119095  
      69A      0.122932    70A      0.131968    71A      0.134280  
      72A      0.135309    73A      0.144286    74A      0.146514  
      75A      0.149045    76A      0.156920    77A      0.161362  
      78A      0.170099    79A      0.170868    80A      0.172869  
      81A      0.175078    82A      0.178096    83A      0.183504  
      84A      0.190086    85A      0.197157    86A      0.199120  
      87A      0.200276    88A      0.205421    89A      0.209512  
      90A      0.220013    91A      0.222580    92A      0.222674  
      93A      0.231394    94A      0.232177    95A      0.233250  
      96A      0.236759    97A      0.244830    98A      0.250573  
      99A      0.254687   100A      0.261904   101A      0.270323  
     102A      0.281179   103A      0.283861   104A      0.286428  
     105A      0.291982   106A      0.296617   107A      0.299295  
     108A      0.300674   109A      0.306522   110A      0.308232  
     111A      0.308382   112A      0.317114   113A      0.319898  
     114A      0.327009   115A      0.328615   116A      0.333544  
     117A      0.337550   118A      0.340182   119A      0.340883  
     120A      0.341974   121A      0.345673   122A      0.348450  
     123A      0.351373   124A      0.351391   125A      0.356284  
     126A      0.363358   127A      0.369354   128A      0.372008  
     129A      0.374609   130A      0.377610   131A      0.384142  
     132A      0.392552   133A      0.396036   134A      0.403948  
     135A      0.407501   136A      0.418714   137A      0.421438  
     138A      0.423997   139A      0.425893   140A      0.427344  
     141A      0.432593   142A      0.437523   143A      0.444498  
     144A      0.447295   145A      0.450767   146A      0.452097  
     147A      0.456608   148A      0.461808   149A      0.465810  
     150A      0.468902   151A      0.471350   152A      0.477419  
     153A      0.477475   154A      0.483889   155A      0.489409  
     156A      0.491557   157A      0.491907   158A      0.495076  
     159A      0.504120   160A      0.516779   161A      0.518653  
     162A      0.522310   163A      0.527684   164A      0.539912  
     165A      0.541030   166A      0.544752   167A      0.545962  
     168A      0.551664   169A      0.553688   170A      0.553874  
     171A      0.575704   172A      0.576184   173A      0.582732  
     174A      0.583174   175A      0.590067   176A      0.594527  
     177A      0.595534   178A      0.596196   179A      0.602368  
     180A      0.604798   181A      0.610484   182A      0.613662  
     183A      0.618959   184A      0.637906   185A      0.642432  
     186A      0.648959   187A      0.650399   188A      0.654323  
     189A      0.656243   190A      0.666722   191A      0.668591  
     192A      0.670810   193A      0.678023   194A      0.688087  
     195A      0.689181   196A      0.694535   197A      0.694864  
     198A      0.702252   199A      0.705550   200A      0.710210  
     201A      0.722213   202A      0.728194   203A      0.734468  
     204A      0.746097   205A      0.754654   206A      0.758350  
     207A      0.759712   208A      0.767442   209A      0.776427  
     210A      0.781046   211A      0.785456   212A      0.798638  
     213A      0.809994   214A      0.811966   215A      0.818098  
     216A      0.818715   217A      0.820220   218A      0.828673  
     219A      0.829881   220A      0.832442   221A      0.835678  
     222A      0.855432   223A      0.856855   224A      0.857412  
     225A      0.859981   226A      0.863748   227A      0.864683  
     228A      0.867079   229A      0.873643   230A      0.876393  
     231A      0.881218   232A      0.891278   233A      0.892424  
     234A      0.894875   235A      0.898784   236A      0.913377  
     237A      0.917425   238A      0.917549   239A      0.919709  
     240A      0.920023   241A      0.929865   242A      0.943276  
     243A      0.946961   244A      0.948317   245A      0.955064  
     246A      0.956110   247A      0.962147   248A      0.967618  
     249A      0.972650   250A      0.982917   251A      0.985672  
     252A      0.993821   253A      0.996693   254A      1.006516  
     255A      1.008967   256A      1.015664   257A      1.031916  
     258A      1.034255   259A      1.037009   260A      1.053743  
     261A      1.076614   262A      1.094754   263A      1.098046  
     264A      1.103074   265A      1.107961   266A      1.114239  
     267A      1.130391   268A      1.136653   269A      1.143499  
     270A      1.145590   271A      1.157290   272A      1.160253  
     273A      1.175760   274A      1.187798   275A      1.188658  
     276A      1.211241   277A      1.212284   278A      1.213049  
     279A      1.217308   280A      1.229174   281A      1.239159  
     282A      1.240321   283A      1.250235   284A      1.255464  
     285A      1.260018   286A      1.262015   287A      1.269318  
     288A      1.282748   289A      1.291368   290A      1.294047  
     291A      1.303769   292A      1.305027   293A      1.314220  
     294A      1.314872   295A      1.323741   296A      1.328765  
     297A      1.333482   298A      1.351137   299A      1.356422  
     300A      1.358299   301A      1.378061   302A      1.381053  
     303A      1.389082   304A      1.391589   305A      1.392883  
     306A      1.406098   307A      1.412193   308A      1.420191  
     309A      1.427161   310A      1.431867   311A      1.441380  
     312A      1.444467   313A      1.446048   314A      1.448527  
     315A      1.455999   316A      1.461680   317A      1.470786  
     318A      1.474353   319A      1.477933   320A      1.478939  
     321A      1.481462   322A      1.501833   323A      1.508314  
     324A      1.510820   325A      1.516168   326A      1.522781  
     327A      1.527652   328A      1.536105   329A      1.537951  
     330A      1.544656   331A      1.545687   332A      1.556568  
     333A      1.557718   334A      1.560048   335A      1.570641  
     336A      1.577756   337A      1.578983   338A      1.588073  
     339A      1.592674   340A      1.597298   341A      1.597899  
     342A      1.606473   343A      1.614309   344A      1.615596  
     345A      1.616249   346A      1.617893   347A      1.620311  
     348A      1.627155   349A      1.641609   350A      1.653343  
     351A      1.654686   352A      1.662631   353A      1.672037  
     354A      1.672151   355A      1.678910   356A      1.689328  
     357A      1.695317   358A      1.699844   359A      1.709042  
     360A      1.715038   361A      1.716746   362A      1.722569  
     363A      1.724409   364A      1.743638   365A      1.744039  
     366A      1.749407   367A      1.752256   368A      1.774325  
     369A      1.780706   370A      1.784573   371A      1.807259  
     372A      1.809121   373A      1.809646   374A      1.837765  
     375A      1.844038   376A      1.845433   377A      1.847668  
     378A      1.848026   379A      1.855290   380A      1.859219  
     381A      1.860763   382A      1.871423   383A      1.876780  
     384A      1.882187   385A      1.892839   386A      1.918786  
     387A      1.927248   388A      1.933986   389A      1.949675  
     390A      1.951952   391A      1.953816   392A      1.956702  
     393A      1.960174   394A      1.971628   395A      1.972599  
     396A      1.986202   397A      1.986512   398A      1.994054  
     399A      1.999444   400A      2.008247   401A      2.012412  
     402A      2.013809   403A      2.041119   404A      2.060028  
     405A      2.115209   406A      2.124061   407A      2.134397  
     408A      2.139192   409A      2.159238   410A      2.163593  
     411A      2.177918   412A      2.189022   413A      2.191478  
     414A      2.223317   415A      2.265243   416A      2.300847  
     417A      2.773185   418A      2.778476   419A      2.779022  
     420A      2.784802   421A      2.789745   422A      2.810735  
     423A      2.813949   424A      2.839075   425A      2.839805  
     426A      2.840385   427A      2.844366   428A      2.848278  
     429A      2.857992   430A      2.889888   431A      2.894101  
     432A      2.900636   433A      2.903834   434A      2.905579  
     435A      2.909800   436A      2.921659   437A      2.934788  
     438A      2.940774   439A      2.947129   440A      2.955781  
     441A      2.964326   442A      2.965620   443A      2.968362  
     444A      2.987148   445A      2.998433   446A      3.002746  
     447A      3.008767   448A      3.014134   449A      3.027756  
     450A      3.041910   451A      3.064856   452A      3.074525  
     453A      3.075755   454A      3.079998   455A      3.089859  
     456A      3.101156   457A      3.110500   458A      3.136618  
     459A      3.140354   460A      3.141733   461A      3.147606  
     462A      3.155591   463A      3.158498   464A      3.164766  
     465A      3.172391   466A      3.175737   467A      3.176149  
     468A      3.176453   469A      3.185675   470A      3.192766  
     471A      3.204281   472A      3.216529   473A      3.217854  
     474A      3.222537   475A      3.229145   476A      3.233993  
     477A      3.243581   478A      3.248021   479A      3.251700  
     480A      3.267638   481A      3.285952   482A      3.286797  
     483A      3.305739   484A      3.309278   485A      3.311814  
     486A      3.313703   487A      3.317421   488A      3.320875  
     489A      3.333340   490A      3.340694   491A      3.341111  
     492A      3.344847   493A      3.359579   494A      3.360874  
     495A      3.366192   496A      3.367835   497A      3.375903  
     498A      3.378997   499A      3.382749   500A      3.398752  
     501A      3.404628   502A      3.409055   503A      3.411035  
     504A      3.425372   505A      3.425874   506A      3.433397  
     507A      3.436780   508A      3.439685   509A      3.452244  
     510A      3.454804   511A      3.461225   512A      3.465300  
     513A      3.468713   514A      3.470106   515A      3.475517  
     516A      3.483510   517A      3.485476   518A      3.493546  
     519A      3.495834   520A      3.499533   521A      3.501117  
     522A      3.504401   523A      3.507755   524A      3.508050  
     525A      3.517646   526A      3.518464   527A      3.523159  
     528A      3.531234   529A      3.538342   530A      3.539175  
     531A      3.553881   532A      3.554654   533A      3.560577  
     534A      3.565823   535A      3.568611   536A      3.577570  
     537A      3.579467   538A      3.585427   539A      3.590064  
     540A      3.597809   541A      3.600761   542A      3.615249  
     543A      3.615540   544A      3.633004   545A      3.635681  
     546A      3.640784   547A      3.651515   548A      3.657778  
     549A      3.661040   550A      3.673718   551A      3.675650  
     552A      3.680492   553A      3.682277   554A      3.697724  
     555A      3.701011   556A      3.703818   557A      3.713625  
     558A      3.716980   559A      3.719818   560A      3.728201  
     561A      3.731112   562A      3.747401   563A      3.761737  
     564A      3.771606   565A      3.772266   566A      3.794985  
     567A      3.796357   568A      3.801673   569A      3.813665  
     570A      3.821662   571A      3.825956   572A      3.830044  
     573A      3.839396   574A      3.849111   575A      3.854773  
     576A      3.878633   577A      3.883329   578A      3.886840  
     579A      3.887762   580A      3.890314   581A      3.902780  
     582A      3.918827   583A      3.928705   584A      3.939865  
     585A      3.941604   586A      3.951195   587A      3.954969  
     588A      3.960235   589A      3.961006   590A      3.964012  
     591A      3.965034   592A      3.976749   593A      3.982297  
     594A      3.984553   595A      3.987554   596A      4.003581  
     597A      4.018645   598A      4.020206   599A      4.021999  
     600A      4.037170   601A      4.045453   602A      4.058697  
     603A      4.069263   604A      4.069423   605A      4.074925  
     606A      4.078690   607A      4.098519   608A      4.099786  
     609A      4.112912   610A      4.132055   611A      4.149110  
     612A      4.163874   613A      4.168219   614A      4.184938  
     615A      4.204827   616A      4.205829   617A      4.217086  
     618A      4.230309   619A      4.231536   620A      4.237304  
     621A      4.239207   622A      4.240589   623A      4.256618  
     624A      4.263870   625A      4.270195   626A      4.275799  
     627A      4.277657   628A      4.279243   629A      4.285963  
     630A      4.294944   631A      4.297864   632A      4.301442  
     633A      4.306987   634A      4.312281   635A      4.317122  
     636A      4.325349   637A      4.327326   638A      4.328831  
     639A      4.336375   640A      4.351767   641A      4.364850  
     642A      4.368863   643A      4.370350   644A      4.376933  
     645A      4.391269   646A      4.407511   647A      4.410444  
     648A      4.415696   649A      4.422010   650A      4.426606  
     651A      4.430167   652A      4.434737   653A      4.436574  
     654A      4.438270   655A      4.440583   656A      4.456172  
     657A      4.468753   658A      4.470670   659A      4.478405  
     660A      4.480932   661A      4.492934   662A      4.493879  
     663A      4.502361   664A      4.504444   665A      4.510064  
     666A      4.515536   667A      4.519303   668A      4.519823  
     669A      4.520189   670A      4.527380   671A      4.536334  
     672A      4.551334   673A      4.558080   674A      4.559012  
     675A      4.570436   676A      4.577206   677A      4.577433  
     678A      4.583073   679A      4.602269   680A      4.606968  
     681A      4.610799   682A      4.611116   683A      4.612520  
     684A      4.617857   685A      4.630477   686A      4.631493  
     687A      4.639836   688A      4.641430   689A      4.660151  
     690A      4.662906   691A      4.674446   692A      4.681731  
     693A      4.687848   694A      4.701585   695A      4.729050  
     696A      4.736554   697A      4.747816   698A      4.749086  
     699A      4.758073   700A      4.766635   701A      4.778753  
     702A      4.779394   703A      4.793866   704A      4.827326  
     705A      4.833431   706A      4.834939   707A      4.839719  
     708A      4.841754   709A      4.854327   710A      4.864109  
     711A      4.874744   712A      4.883863   713A      4.885123  
     714A      4.893644   715A      4.899005   716A      4.919234  
     717A      4.926107   718A      4.938524   719A      4.958252  
     720A      4.975119   721A      4.980139   722A      4.985507  
     723A      4.988816   724A      4.998447   725A      5.016835  
     726A      5.032738   727A      5.044374   728A      5.049596  
     729A      5.091090   730A      5.091794   731A      5.122690  
     732A      5.135914   733A      5.140762   734A      5.146197  
     735A      5.159845   736A      5.183525   737A      5.201662  
     738A      5.203887   739A      5.209596   740A      5.210801  
     741A      5.211168   742A      5.223849   743A      5.225595  
     744A      5.241776   745A      5.257959   746A      5.258141  
     747A      5.261939   748A      5.289115   749A      5.293305  
     750A      5.294998   751A      5.295107   752A      5.319198  
     753A      5.329920   754A      5.330920   755A      5.331053  
     756A      5.336378   757A      5.342528   758A      5.347264  
     759A      5.350086   760A      5.355405   761A      5.362927  
     762A      5.370041   763A      5.389776   764A      5.407454  
     765A      5.417707   766A      5.419339   767A      5.426705  
     768A      5.428625   769A      5.436000   770A      5.450139  
     771A      5.451381   772A      5.479203   773A      5.498737  
     774A      5.514875   775A      5.514961   776A      5.521203  
     777A      5.527759   778A      5.528366   779A      5.558458  
     780A      5.560522   781A      5.565371   782A      5.569897  
     783A      5.632545   784A      5.640337   785A      5.644007  
     786A      5.647736   787A      5.658544   788A      5.666095  
     789A      5.687966   790A      5.690461   791A      5.691193  
     792A      5.695864   793A      5.771211   794A      5.775132  
     795A      5.775557   796A      5.787638   797A      5.790178  
     798A      5.794582   799A      5.800390   800A      5.800966  
     801A      5.817224   802A      5.834106   803A      5.844611  
     804A      5.845773   805A      5.900604   806A      5.905222  
     807A      5.905482   808A      5.917612   809A      5.920529  
     810A      5.927791   811A      5.940067   812A      5.942280  
     813A      5.944702   814A      5.948239   815A      5.951748  
     816A      5.963055   817A      5.964997   818A      5.980198  
     819A      5.984752   820A      5.987980   821A      6.000708  
     822A      6.032493   823A      6.044926   824A      6.069521  
     825A      6.122354   826A      6.127655   827A      6.174974  
     828A      6.196024   829A      6.248700   830A      6.260316  
     831A      6.284525   832A      6.312585   833A      6.523981  
     834A      6.528567   835A      6.534240   836A      6.536473  
     837A      6.541814   838A      6.558272   839A      6.567100  
     840A      6.577064   841A      6.584475   842A      6.628609  
     843A      6.642071   844A      6.664178   845A      6.671225  
     846A      6.700114   847A      6.721277   848A      6.722161  
     849A     13.841221   850A     13.959221   851A     14.033304  
     852A     14.065510   853A     14.316409   854A     14.501898  
     855A     14.515458   856A     14.587630   857A     14.607473  
     858A     14.688786   859A     14.734902   860A     14.822159  

    Final Occupation by Irrep:
              A 
    DOCC [    50 ]

  @DF-RHF Final Energy:  -470.89639016600006

   => Energetics <=

    Nuclear Repulsion Energy =            771.0185812070427573
    One-Electron Energy =               -2165.2115368560898787
    Two-Electron Energy =                 923.2965654830471749
    Total Energy =                       -470.8963901660000602

Computation Completed


Properties will be evaluated at   0.000000,   0.000000,   0.000000 [a0]

Properties computed using the SCF density matrix

  Nuclear Dipole Moment: [e a0]
     X:    -0.0002      Y:     0.0002      Z:    -0.0001

  Electronic Dipole Moment: [e a0]
     X:     0.0001      Y:    -0.0002      Z:    -0.0001

  Dipole Moment: [e a0]
     X:    -0.0000      Y:    -0.0000      Z:    -0.0001     Total:     0.0001

  Dipole Moment: [D]
     X:    -0.0001      Y:    -0.0001      Z:    -0.0003     Total:     0.0003


*** tstop() called on r282 at Thu Sep  9 10:52:14 2021
Module time:
	user time   =     439.16 seconds =       7.32 minutes
	system time =       8.57 seconds =       0.14 minutes
	total time  =        448 seconds =       7.47 minutes
Total time:
	user time   =     439.16 seconds =       7.32 minutes
	system time =       8.57 seconds =       0.14 minutes
	total time  =        448 seconds =       7.47 minutes

  //>>>>>>>>>>>>>>>>>>>>>>>>>>>>>>>>>>>//
  //            Monomer A HF           //
  //<<<<<<<<<<<<<<<<<<<<<<<<<<<<<<<<<<<//


*** tstart() called on r282
*** at Thu Sep  9 10:52:14 2021

   => Loading Basis Set <=

    Name: JUN-CC-PVTZ
    Role: ORBITAL
    Keyword: BASIS
    atoms 1-6, 21-26  entry C          line   217 file /home/r08543048/miniconda3/share/psi4/basis/jun-cc-pvtz.gbs 
    atoms 7-20, 27-40 entry H          line    36 file /home/r08543048/miniconda3/share/psi4/basis/jun-cc-pvtz.gbs 


         ---------------------------------------------------------
                                   SCF
               by Justin Turney, Rob Parrish, Andy Simmonett
                          and Daniel G. A. Smith
                              RHF Reference
                        1 Threads,  20980 MiB Core
         ---------------------------------------------------------

  ==> Geometry <==

    Molecular point group: c1
    Full point group: C1

    Geometry (in Angstrom), charge = 0, multiplicity = 1:

       Center              X                  Y                   Z               Mass       
    ------------   -----------------  -----------------  -----------------  -----------------
         C           -0.647988079056     1.917554131179     0.401944793145    12.000000000000
         C           -1.894640079056     1.911701131179    -0.473904206855    12.000000000000
         C           -3.182005079056     1.901329131179     0.340970793145    12.000000000000
         C            0.647274920944     1.915551131179    -0.399235206855    12.000000000000
         C            1.894020920944     1.917042131179     0.476495793145    12.000000000000
         C            3.181262920944     1.901085131179    -0.338509206855    12.000000000000
         H           -0.666265079056     1.043496131179     1.061369793145     1.007825032230
         H           -0.669445079056     2.796526131179     1.054763793145     1.007825032230
         H           -1.865798079056     1.038029131179    -1.130950206855     1.007825032230
         H           -1.877275079056     2.788786131179    -1.126671206855     1.007825032230
         H           -4.063979079056     1.896446131179    -0.299447206855     1.007825032230
         H           -3.238702079056     2.780796131179     0.983884793145     1.007825032230
         H           -3.228680079056     1.018603131179     0.980311793145     1.007825032230
         H            0.666388920944     1.037150131179    -1.052852206855     1.007825032230
         H            0.667755920944     2.790176131179    -1.057856206855     1.007825032230
         H            1.865683920944     1.048348131179     1.140173793145     1.007825032230
         H            1.876241920944     2.799059131179     1.122573793145     1.007825032230
         H            4.063361920944     1.901851131179     0.301752793145     1.007825032230
         H            3.237243920944     2.775492131179    -0.988363206855     1.007825032230
         H            3.228365920944     1.013377131179    -0.970852206855     1.007825032230
      Gh(C)           0.647973920944    -1.916344868821     0.399263793145    12.000000000000
      Gh(C)           1.894688920944    -1.915923868821    -0.476508206855    12.000000000000
      Gh(C)           3.181961920944    -1.902315868821     0.338480793145    12.000000000000
      Gh(C)          -0.647276079056    -1.916319868821    -0.401913206855    12.000000000000
      Gh(C)          -1.893968079056    -1.913653868821     0.473917793145    12.000000000000
      Gh(C)          -3.181291079056    -1.899719868821    -0.340999206855    12.000000000000
      Gh(H)           0.667242920944    -1.039498868821     1.054982793145     1.007825032230
      Gh(H)           0.668390920944    -2.792509868821     1.055839793145     1.007825032230
      Gh(H)           1.866559920944    -1.045601868821    -1.138041206855     1.007825032230
      Gh(H)           1.876689920944    -2.796327868821    -1.124766206855     1.007825032230
      Gh(H)           4.064036920944    -1.901650868821    -0.301816206855     1.007825032230
      Gh(H)           3.237772920944    -2.778384868821     0.986104793145     1.007825032230
      Gh(H)           3.229291920944    -1.016224868821     0.973090793145     1.007825032230
      Gh(H)          -0.665772079056    -1.040299868821    -1.058738206855     1.007825032230
      Gh(H)          -0.668459079056    -2.793334868821    -1.057324206855     1.007825032230
      Gh(H)          -1.864917079056    -1.042585868821     1.134420793145     1.007825032230
      Gh(H)          -1.876791079056    -2.793316868821     1.123211793145     1.007825032230
      Gh(H)          -4.063313079056    -1.897282868821     0.299362793145     1.007825032230
      Gh(H)          -3.238082079056    -2.776553868821    -0.987503206855     1.007825032230
      Gh(H)          -3.227728079056    -1.014379868821    -0.976716206855     1.007825032230

  Running in c1 symmetry.

  Rotational constants: A =      0.02413  B =      0.01847  C =      0.01118 [cm^-1]
  Rotational constants: A =    723.29486  B =    553.86656  C =    335.09510 [MHz]
  Nuclear repulsion =  244.993276498938656

  Charge       = 0
  Multiplicity = 1
  Electrons    = 50
  Nalpha       = 25
  Nbeta        = 25

  ==> Algorithm <==

  SCF Algorithm Type is DF.
  DIIS enabled.
  MOM disabled.
  Fractional occupation disabled.
  Guess Type is SAD.
  Energy threshold   = 1.00e-08
  Density threshold  = 1.00e-08
  Integral threshold = 0.00e+00

  ==> Primary Basis <==

  Basis Set: JUN-CC-PVTZ
    Blend: JUN-CC-PVTZ
    Number of shells: 324
    Number of basis function: 860
    Number of Cartesian functions: 960
    Spherical Harmonics?: true
    Max angular momentum: 3

   => Loading Basis Set <=

    Name: (JUN-CC-PVTZ AUX)
    Role: JKFIT
    Keyword: DF_BASIS_SCF
    atoms 1-6, 21-26  entry C          line   152 file /home/r08543048/miniconda3/share/psi4/basis/jun-cc-pvtz-jkfit.gbs 
    atoms 7-20, 27-40 entry H          line    70 file /home/r08543048/miniconda3/share/psi4/basis/jun-cc-pvtz-jkfit.gbs 

  ==> Pre-Iterations <==

   -------------------------------------------------------
    Irrep   Nso     Nmo     Nalpha   Nbeta   Ndocc  Nsocc
   -------------------------------------------------------
     A        860     860       0       0       0       0
   -------------------------------------------------------
    Total     860     860      25      25      25       0
   -------------------------------------------------------

  ==> Integral Setup <==

  ==> DiskDFJK: Density-Fitted J/K Matrices <==

    J tasked:                  Yes
    K tasked:                  Yes
    wK tasked:                  No
    OpenMP threads:              1
    Integrals threads:           1
    Memory [MiB]:            15735
    Algorithm:                Core
    Integral Cache:           LOAD
    Schwarz Cutoff:          1E-12
    Fitting Condition:       1E-10

   => Auxiliary Basis Set <=

  Basis Set: (JUN-CC-PVTZ AUX)
    Blend: JUN-CC-PVTZ-JKFIT
    Number of shells: 628
    Number of basis function: 1980
    Number of Cartesian functions: 2372
    Spherical Harmonics?: true
    Max angular momentum: 4

  Minimum eigenvalue in the overlap matrix is 1.9754648084E-05.
  Using Symmetric Orthogonalization.

  SCF Guess: Superposition of Atomic Densities via on-the-fly atomic UHF.

  ==> Iterations <==

                           Total Energy        Delta E     RMS |[F,P]|

   @DF-RHF iter SAD:  -234.92930280973297   -2.34929e+02   0.00000e+00 
   @DF-RHF iter   1:  -235.15864993020722   -2.29347e-01   7.91054e-04 DIIS
   @DF-RHF iter   2:  -235.39900990262242   -2.40360e-01   3.55242e-04 DIIS
   @DF-RHF iter   3:  -235.44806110312240   -4.90512e-02   6.42898e-05 DIIS
   @DF-RHF iter   4:  -235.45143946559088   -3.37836e-03   1.13850e-05 DIIS
   @DF-RHF iter   5:  -235.45152283134649   -8.33658e-05   3.80278e-06 DIIS
   @DF-RHF iter   6:  -235.45153155473545   -8.72339e-06   6.22691e-07 DIIS
   @DF-RHF iter   7:  -235.45153184663533   -2.91900e-07   1.70829e-07 DIIS
   @DF-RHF iter   8:  -235.45153186492684   -1.82915e-08   3.99693e-08 DIIS
   @DF-RHF iter   9:  -235.45153186603793   -1.11109e-09   9.99099e-09 DIIS
  Energy and wave function converged.


  ==> Post-Iterations <==

    Orbital Energies [Eh]
    ---------------------

    Doubly Occupied:                                                      

       1A    -11.212782     2A    -11.212770     3A    -11.210702  
       4A    -11.210080     5A    -11.207245     6A    -11.207244  
       7A     -1.086541     8A     -1.037222     9A     -0.961112  
      10A     -0.870914    11A     -0.796918    12A     -0.784214  
      13A     -0.652022    14A     -0.610150    15A     -0.595072  
      16A     -0.577240    17A     -0.552780    18A     -0.527825  
      19A     -0.524903    20A     -0.498949    21A     -0.480130  
      22A     -0.466395    23A     -0.459324    24A     -0.458045  
      25A     -0.438150  

    Virtual:                                                              

      26A      0.028160    27A      0.038359    28A      0.044024  
      29A      0.051096    30A      0.059474    31A      0.059966  
      32A      0.062773    33A      0.066269    34A      0.078859  
      35A      0.080970    36A      0.087980    37A      0.088100  
      38A      0.092529    39A      0.093973    40A      0.097822  
      41A      0.111146    42A      0.112000    43A      0.113228  
      44A      0.115245    45A      0.119520    46A      0.127562  
      47A      0.128370    48A      0.135541    49A      0.137795  
      50A      0.143691    51A      0.144324    52A      0.145048  
      53A      0.151360    54A      0.152687    55A      0.165453  
      56A      0.169433    57A      0.173889    58A      0.176552  
      59A      0.180022    60A      0.181802    61A      0.185276  
      62A      0.191303    63A      0.193410    64A      0.197495  
      65A      0.198625    66A      0.202924    67A      0.211281  
      68A      0.212794    69A      0.221766    70A      0.224471  
      71A      0.225997    72A      0.232475    73A      0.243175  
      74A      0.248247    75A      0.249208    76A      0.261929  
      77A      0.269895    78A      0.280614    79A      0.282432  
      80A      0.286618    81A      0.290322    82A      0.295686  
      83A      0.298279    84A      0.303109    85A      0.309323  
      86A      0.311495    87A      0.317054    88A      0.320884  
      89A      0.323422    90A      0.325644    91A      0.330324  
      92A      0.332649    93A      0.334665    94A      0.337634  
      95A      0.347865    96A      0.351333    97A      0.351551  
      98A      0.357397    99A      0.357519   100A      0.359224  
     101A      0.365314   102A      0.367531   103A      0.375722  
     104A      0.377585   105A      0.386940   106A      0.388424  
     107A      0.392685   108A      0.398424   109A      0.400200  
     110A      0.406719   111A      0.410563   112A      0.412687  
     113A      0.416263   114A      0.423169   115A      0.426131  
     116A      0.427428   117A      0.432809   118A      0.437878  
     119A      0.444986   120A      0.445139   121A      0.448746  
     122A      0.454186   123A      0.466420   124A      0.471900  
     125A      0.472385   126A      0.475110   127A      0.481085  
     128A      0.486928   129A      0.488015   130A      0.491650  
     131A      0.493615   132A      0.503635   133A      0.513740  
     134A      0.519746   135A      0.525653   136A      0.535316  
     137A      0.536199   138A      0.541063   139A      0.546026  
     140A      0.549053   141A      0.556791   142A      0.558793  
     143A      0.560863   144A      0.562626   145A      0.579254  
     146A      0.587313   147A      0.590116   148A      0.591740  
     149A      0.594137   150A      0.596456   151A      0.602224  
     152A      0.606104   153A      0.608010   154A      0.615162  
     155A      0.617346   156A      0.630700   157A      0.632786  
     158A      0.634275   159A      0.639890   160A      0.641288  
     161A      0.643053   162A      0.646948   163A      0.651587  
     164A      0.658764   165A      0.665426   166A      0.674458  
     167A      0.675348   168A      0.676540   169A      0.680062  
     170A      0.682317   171A      0.684690   172A      0.697372  
     173A      0.701038   174A      0.704154   175A      0.708492  
     176A      0.711439   177A      0.715677   178A      0.725415  
     179A      0.730385   180A      0.738205   181A      0.747945  
     182A      0.753858   183A      0.765286   184A      0.771519  
     185A      0.775341   186A      0.785906   187A      0.793741  
     188A      0.794330   189A      0.803566   190A      0.807074  
     191A      0.807964   192A      0.813391   193A      0.815559  
     194A      0.834850   195A      0.836725   196A      0.842317  
     197A      0.843567   198A      0.848715   199A      0.855184  
     200A      0.866826   201A      0.868413   202A      0.875985  
     203A      0.884210   204A      0.889964   205A      0.891201  
     206A      0.897497   207A      0.909083   208A      0.913020  
     209A      0.917277   210A      0.925205   211A      0.940142  
     212A      0.944707   213A      0.946586   214A      0.952754  
     215A      0.964522   216A      0.972473   217A      0.988479  
     218A      0.997019   219A      0.997877   220A      1.013593  
     221A      1.030665   222A      1.035097   223A      1.052134  
     224A      1.072686   225A      1.082866   226A      1.087817  
     227A      1.102369   228A      1.103264   229A      1.106179  
     230A      1.121690   231A      1.124157   232A      1.140824  
     233A      1.148583   234A      1.161505   235A      1.161948  
     236A      1.175701   237A      1.178963   238A      1.188119  
     239A      1.191588   240A      1.193267   241A      1.202338  
     242A      1.212562   243A      1.212879   244A      1.219430  
     245A      1.223004   246A      1.235810   247A      1.241173  
     248A      1.243469   249A      1.246613   250A      1.260801  
     251A      1.269852   252A      1.273673   253A      1.280117  
     254A      1.286753   255A      1.287956   256A      1.294547  
     257A      1.294749   258A      1.303641   259A      1.307235  
     260A      1.310719   261A      1.323314   262A      1.328790  
     263A      1.329481   264A      1.335937   265A      1.343856  
     266A      1.347436   267A      1.349410   268A      1.356204  
     269A      1.368780   270A      1.371044   271A      1.373092  
     272A      1.381233   273A      1.383738   274A      1.390309  
     275A      1.398172   276A      1.398661   277A      1.406072  
     278A      1.413794   279A      1.414192   280A      1.423789  
     281A      1.424636   282A      1.433463   283A      1.434178  
     284A      1.443645   285A      1.443913   286A      1.453874  
     287A      1.455416   288A      1.455956   289A      1.465457  
     290A      1.479488   291A      1.483413   292A      1.493536  
     293A      1.495257   294A      1.503661   295A      1.505910  
     296A      1.513122   297A      1.514884   298A      1.523561  
     299A      1.532048   300A      1.533891   301A      1.538054  
     302A      1.544792   303A      1.556049   304A      1.563279  
     305A      1.566871   306A      1.570027   307A      1.573489  
     308A      1.582667   309A      1.583152   310A      1.589026  
     311A      1.595143   312A      1.601069   313A      1.609992  
     314A      1.615636   315A      1.621592   316A      1.629958  
     317A      1.633555   318A      1.639935   319A      1.646271  
     320A      1.649969   321A      1.653648   322A      1.662522  
     323A      1.670562   324A      1.673875   325A      1.683204  
     326A      1.686464   327A      1.688924   328A      1.692008  
     329A      1.699577   330A      1.704159   331A      1.710824  
     332A      1.714964   333A      1.716875   334A      1.725731  
     335A      1.733417   336A      1.740947   337A      1.746307  
     338A      1.758400   339A      1.765380   340A      1.772774  
     341A      1.788539   342A      1.792593   343A      1.793202  
     344A      1.796124   345A      1.811561   346A      1.823868  
     347A      1.838809   348A      1.844468   349A      1.846343  
     350A      1.861616   351A      1.863093   352A      1.866685  
     353A      1.884508   354A      1.902196   355A      1.907269  
     356A      1.909177   357A      1.910551   358A      1.921991  
     359A      1.931285   360A      1.951417   361A      1.954083  
     362A      1.962949   363A      1.963630   364A      1.973001  
     365A      1.973407   366A      1.978985   367A      2.001187  
     368A      2.010061   369A      2.014510   370A      2.015502  
     371A      2.024961   372A      2.032362   373A      2.044121  
     374A      2.068573   375A      2.074493   376A      2.108602  
     377A      2.131221   378A      2.137899   379A      2.157009  
     380A      2.164491   381A      2.165493   382A      2.191164  
     383A      2.201799   384A      2.206564   385A      2.243014  
     386A      2.254456   387A      2.266249   388A      2.272743  
     389A      2.279709   390A      2.322055   391A      2.328328  
     392A      2.371856   393A      2.381405   394A      2.401521  
     395A      2.423495   396A      2.443112   397A      2.450364  
     398A      2.482330   399A      2.484831   400A      2.491711  
     401A      2.516049   402A      2.523192   403A      2.533911  
     404A      2.586873   405A      2.661889   406A      2.700057  
     407A      2.711448   408A      2.737162   409A      2.773667  
     410A      2.786971   411A      2.796807   412A      2.801758  
     413A      2.827580   414A      2.834231   415A      2.868315  
     416A      2.891743   417A      2.901130   418A      2.914699  
     419A      2.915087   420A      2.930785   421A      2.943268  
     422A      2.967370   423A      2.973092   424A      2.978501  
     425A      2.983747   426A      3.001821   427A      3.021673  
     428A      3.063724   429A      3.084784   430A      3.105862  
     431A      3.129626   432A      3.138935   433A      3.161339  
     434A      3.164830   435A      3.172781   436A      3.189234  
     437A      3.189634   438A      3.203585   439A      3.228590  
     440A      3.234939   441A      3.248086   442A      3.276823  
     443A      3.293233   444A      3.307930   445A      3.317064  
     446A      3.320308   447A      3.324838   448A      3.341186  
     449A      3.357824   450A      3.366115   451A      3.369131  
     452A      3.375365   453A      3.389395   454A      3.427227  
     455A      3.428835   456A      3.444635   457A      3.447081  
     458A      3.472589   459A      3.473813   460A      3.477253  
     461A      3.486075   462A      3.486416   463A      3.495932  
     464A      3.500530   465A      3.504323   466A      3.517775  
     467A      3.520770   468A      3.533125   469A      3.533700  
     470A      3.545823   471A      3.549566   472A      3.562535  
     473A      3.570755   474A      3.574140   475A      3.580272  
     476A      3.582692   477A      3.583019   478A      3.588918  
     479A      3.595945   480A      3.600558   481A      3.607778  
     482A      3.608324   483A      3.609369   484A      3.625493  
     485A      3.633302   486A      3.634730   487A      3.646495  
     488A      3.657733   489A      3.659921   490A      3.664703  
     491A      3.668231   492A      3.673865   493A      3.680743  
     494A      3.694010   495A      3.697998   496A      3.700841  
     497A      3.713545   498A      3.713835   499A      3.727943  
     500A      3.732444   501A      3.746296   502A      3.749964  
     503A      3.761654   504A      3.778009   505A      3.787548  
     506A      3.797025   507A      3.798813   508A      3.816944  
     509A      3.825683   510A      3.833103   511A      3.840903  
     512A      3.857415   513A      3.859575   514A      3.860699  
     515A      3.867315   516A      3.871475   517A      3.876034  
     518A      3.882823   519A      3.892044   520A      3.893462  
     521A      3.895260   522A      3.904937   523A      3.913906  
     524A      3.919305   525A      3.925268   526A      3.929490  
     527A      3.932653   528A      3.942586   529A      3.948021  
     530A      3.956540   531A      3.961220   532A      3.961954  
     533A      3.970198   534A      3.970849   535A      3.989790  
     536A      3.997070   537A      4.008360   538A      4.013005  
     539A      4.019635   540A      4.023074   541A      4.033126  
     542A      4.035395   543A      4.046553   544A      4.053128  
     545A      4.071619   546A      4.075083   547A      4.081986  
     548A      4.091501   549A      4.100265   550A      4.111342  
     551A      4.153433   552A      4.163184   553A      4.169961  
     554A      4.176980   555A      4.183778   556A      4.192481  
     557A      4.194539   558A      4.201948   559A      4.215562  
     560A      4.223513   561A      4.235027   562A      4.237361  
     563A      4.244754   564A      4.249072   565A      4.252455  
     566A      4.254468   567A      4.266758   568A      4.277727  
     569A      4.286897   570A      4.296674   571A      4.301008  
     572A      4.303645   573A      4.307727   574A      4.322443  
     575A      4.343763   576A      4.343971   577A      4.352156  
     578A      4.360281   579A      4.371105   580A      4.375361  
     581A      4.376475   582A      4.379816   583A      4.399410  
     584A      4.400378   585A      4.409506   586A      4.416217  
     587A      4.420017   588A      4.422270   589A      4.427274  
     590A      4.451087   591A      4.451245   592A      4.461389  
     593A      4.470698   594A      4.471821   595A      4.486456  
     596A      4.495410   597A      4.505617   598A      4.506216  
     599A      4.507778   600A      4.520792   601A      4.527432  
     602A      4.531842   603A      4.537133   604A      4.539703  
     605A      4.547169   606A      4.557691   607A      4.558364  
     608A      4.565564   609A      4.566178   610A      4.576573  
     611A      4.584153   612A      4.587382   613A      4.597640  
     614A      4.600105   615A      4.612492   616A      4.612834  
     617A      4.622450   618A      4.628689   619A      4.633989  
     620A      4.638864   621A      4.639342   622A      4.651140  
     623A      4.651392   624A      4.656818   625A      4.666379  
     626A      4.670880   627A      4.671043   628A      4.673463  
     629A      4.684622   630A      4.691420   631A      4.699611  
     632A      4.718504   633A      4.720477   634A      4.729040  
     635A      4.737830   636A      4.740378   637A      4.742212  
     638A      4.746511   639A      4.759189   640A      4.766487  
     641A      4.780967   642A      4.784043   643A      4.785121  
     644A      4.788474   645A      4.795229   646A      4.819952  
     647A      4.823827   648A      4.825377   649A      4.829159  
     650A      4.832348   651A      4.846566   652A      4.847147  
     653A      4.855586   654A      4.856495   655A      4.860001  
     656A      4.867111   657A      4.870413   658A      4.883647  
     659A      4.889164   660A      4.903602   661A      4.914053  
     662A      4.916655   663A      4.931498   664A      4.933556  
     665A      4.937962   666A      4.942392   667A      4.949670  
     668A      4.957985   669A      4.965157   670A      4.967809  
     671A      4.971180   672A      4.978477   673A      4.980142  
     674A      4.982531   675A      4.998747   676A      5.003590  
     677A      5.012886   678A      5.017234   679A      5.021939  
     680A      5.032919   681A      5.033914   682A      5.037045  
     683A      5.051161   684A      5.061041   685A      5.067484  
     686A      5.077506   687A      5.086849   688A      5.095405  
     689A      5.105432   690A      5.109197   691A      5.121754  
     692A      5.132128   693A      5.146512   694A      5.151472  
     695A      5.154129   696A      5.162544   697A      5.187196  
     698A      5.199159   699A      5.207278   700A      5.210443  
     701A      5.212287   702A      5.226855   703A      5.231981  
     704A      5.242666   705A      5.249294   706A      5.255106  
     707A      5.262443   708A      5.267784   709A      5.296158  
     710A      5.308114   711A      5.313918   712A      5.314344  
     713A      5.318474   714A      5.325002   715A      5.333765  
     716A      5.338779   717A      5.345032   718A      5.351643  
     719A      5.372860   720A      5.376913   721A      5.385393  
     722A      5.399639   723A      5.417647   724A      5.420264  
     725A      5.431353   726A      5.434760   727A      5.455023  
     728A      5.460529   729A      5.484452   730A      5.493430  
     731A      5.513079   732A      5.514654   733A      5.518813  
     734A      5.530828   735A      5.552240   736A      5.562900  
     737A      5.577646   738A      5.581959   739A      5.593436  
     740A      5.631659   741A      5.637353   742A      5.646104  
     743A      5.648791   744A      5.660669   745A      5.663490  
     746A      5.690873   747A      5.694647   748A      5.695742  
     749A      5.699861   750A      5.758587   751A      5.761753  
     752A      5.777306   753A      5.779558   754A      5.796642  
     755A      5.805983   756A      5.809222   757A      5.827602  
     758A      5.846870   759A      5.860877   760A      5.895158  
     761A      5.903762   762A      5.906293   763A      5.930175  
     764A      5.936843   765A      5.937781   766A      5.943956  
     767A      5.951095   768A      5.956936   769A      5.963994  
     770A      5.977467   771A      5.991759   772A      6.009004  
     773A      6.024113   774A      6.028635   775A      6.052343  
     776A      6.058191   777A      6.065635   778A      6.088043  
     779A      6.114887   780A      6.118849   781A      6.130929  
     782A      6.186501   783A      6.208806   784A      6.252215  
     785A      6.266118   786A      6.299367   787A      6.326704  
     788A      6.344505   789A      6.382607   790A      6.384218  
     791A      6.412769   792A      6.413607   793A      6.421198  
     794A      6.461679   795A      6.498224   796A      6.498746  
     797A      6.530040   798A      6.543131   799A      6.545194  
     800A      6.552132   801A      6.558224   802A      6.559592  
     803A      6.575733   804A      6.581553   805A      6.612202  
     806A      6.674894   807A      6.690881   808A      6.693085  
     809A      6.695474   810A      6.787674   811A      6.800643  
     812A      6.810924   813A      6.938740   814A      6.952358  
     815A      6.963567   816A      7.117668   817A      7.266507  
     818A      7.423153   819A      7.542454   820A      7.564312  
     821A      7.594484   822A      7.600696   823A      7.619277  
     824A      7.662986   825A      7.703959   826A      7.710421  
     827A      7.725270   828A      7.749298   829A      7.769267  
     830A      7.814499   831A      7.816334   832A      7.833100  
     833A      7.889703   834A      7.911237   835A      7.940748  
     836A      8.113268   837A      8.173286   838A      8.347583  
     839A      8.457736   840A      8.643977   841A      8.725883  
     842A      8.834105   843A      9.638444   844A      9.651742  
     845A      9.741741   846A      9.866748   847A      9.930499  
     848A      9.966758   849A     13.902592   850A     14.051792  
     851A     14.417968   852A     14.574973   853A     14.638589  
     854A     14.760244   855A     43.996704   856A     44.714583  
     857A     45.601291   858A     45.745757   859A     45.963313  
     860A     46.137485  

    Final Occupation by Irrep:
              A 
    DOCC [    25 ]

  @DF-RHF Final Energy:  -235.45153186603793

   => Energetics <=

    Nuclear Repulsion Energy =            244.9932764989386555
    One-Electron Energy =                -801.6121561207052082
    Two-Electron Energy =                 321.1673477557287129
    Total Energy =                       -235.4515318660378966

Computation Completed


Properties will be evaluated at   0.000000,   0.000000,   0.000000 [a0]

Properties computed using the SCF density matrix

  Nuclear Dipole Moment: [e a0]
     X:    -0.0332      Y:   180.4948      Z:     0.1217

  Electronic Dipole Moment: [e a0]
     X:     0.0332      Y:  -180.4940      Z:    -0.1217

  Dipole Moment: [e a0]
     X:     0.0000      Y:     0.0008      Z:    -0.0000     Total:     0.0008

  Dipole Moment: [D]
     X:     0.0000      Y:     0.0021      Z:    -0.0000     Total:     0.0021


*** tstop() called on r282 at Thu Sep  9 10:56:03 2021
Module time:
	user time   =     226.03 seconds =       3.77 minutes
	system time =       2.62 seconds =       0.04 minutes
	total time  =        229 seconds =       3.82 minutes
Total time:
	user time   =     665.20 seconds =      11.09 minutes
	system time =      11.19 seconds =       0.19 minutes
	total time  =        677 seconds =      11.28 minutes

  //>>>>>>>>>>>>>>>>>>>>>>>>>>>>>>>>>>>//
  //            Monomer B HF           //
  //<<<<<<<<<<<<<<<<<<<<<<<<<<<<<<<<<<<//


*** tstart() called on r282
*** at Thu Sep  9 10:56:03 2021

   => Loading Basis Set <=

    Name: JUN-CC-PVTZ
    Role: ORBITAL
    Keyword: BASIS
    atoms 1-6, 21-26  entry C          line   217 file /home/r08543048/miniconda3/share/psi4/basis/jun-cc-pvtz.gbs 
    atoms 7-20, 27-40 entry H          line    36 file /home/r08543048/miniconda3/share/psi4/basis/jun-cc-pvtz.gbs 


         ---------------------------------------------------------
                                   SCF
               by Justin Turney, Rob Parrish, Andy Simmonett
                          and Daniel G. A. Smith
                              RHF Reference
                        1 Threads,  20980 MiB Core
         ---------------------------------------------------------

  ==> Geometry <==

    Molecular point group: c1
    Full point group: C1

    Geometry (in Angstrom), charge = 0, multiplicity = 1:

       Center              X                  Y                   Z               Mass       
    ------------   -----------------  -----------------  -----------------  -----------------
      Gh(C)          -0.647988079056     1.917554131179     0.401944793145    12.000000000000
      Gh(C)          -1.894640079056     1.911701131179    -0.473904206855    12.000000000000
      Gh(C)          -3.182005079056     1.901329131179     0.340970793145    12.000000000000
      Gh(C)           0.647274920944     1.915551131179    -0.399235206855    12.000000000000
      Gh(C)           1.894020920944     1.917042131179     0.476495793145    12.000000000000
      Gh(C)           3.181262920944     1.901085131179    -0.338509206855    12.000000000000
      Gh(H)          -0.666265079056     1.043496131179     1.061369793145     1.007825032230
      Gh(H)          -0.669445079056     2.796526131179     1.054763793145     1.007825032230
      Gh(H)          -1.865798079056     1.038029131179    -1.130950206855     1.007825032230
      Gh(H)          -1.877275079056     2.788786131179    -1.126671206855     1.007825032230
      Gh(H)          -4.063979079056     1.896446131179    -0.299447206855     1.007825032230
      Gh(H)          -3.238702079056     2.780796131179     0.983884793145     1.007825032230
      Gh(H)          -3.228680079056     1.018603131179     0.980311793145     1.007825032230
      Gh(H)           0.666388920944     1.037150131179    -1.052852206855     1.007825032230
      Gh(H)           0.667755920944     2.790176131179    -1.057856206855     1.007825032230
      Gh(H)           1.865683920944     1.048348131179     1.140173793145     1.007825032230
      Gh(H)           1.876241920944     2.799059131179     1.122573793145     1.007825032230
      Gh(H)           4.063361920944     1.901851131179     0.301752793145     1.007825032230
      Gh(H)           3.237243920944     2.775492131179    -0.988363206855     1.007825032230
      Gh(H)           3.228365920944     1.013377131179    -0.970852206855     1.007825032230
         C            0.647973920944    -1.916344868821     0.399263793145    12.000000000000
         C            1.894688920944    -1.915923868821    -0.476508206855    12.000000000000
         C            3.181961920944    -1.902315868821     0.338480793145    12.000000000000
         C           -0.647276079056    -1.916319868821    -0.401913206855    12.000000000000
         C           -1.893968079056    -1.913653868821     0.473917793145    12.000000000000
         C           -3.181291079056    -1.899719868821    -0.340999206855    12.000000000000
         H            0.667242920944    -1.039498868821     1.054982793145     1.007825032230
         H            0.668390920944    -2.792509868821     1.055839793145     1.007825032230
         H            1.866559920944    -1.045601868821    -1.138041206855     1.007825032230
         H            1.876689920944    -2.796327868821    -1.124766206855     1.007825032230
         H            4.064036920944    -1.901650868821    -0.301816206855     1.007825032230
         H            3.237772920944    -2.778384868821     0.986104793145     1.007825032230
         H            3.229291920944    -1.016224868821     0.973090793145     1.007825032230
         H           -0.665772079056    -1.040299868821    -1.058738206855     1.007825032230
         H           -0.668459079056    -2.793334868821    -1.057324206855     1.007825032230
         H           -1.864917079056    -1.042585868821     1.134420793145     1.007825032230
         H           -1.876791079056    -2.793316868821     1.123211793145     1.007825032230
         H           -4.063313079056    -1.897282868821     0.299362793145     1.007825032230
         H           -3.238082079056    -2.776553868821    -0.987503206855     1.007825032230
         H           -3.227728079056    -1.014379868821    -0.976716206855     1.007825032230

  Running in c1 symmetry.

  Rotational constants: A =      0.02413  B =      0.01847  C =      0.01118 [cm^-1]
  Rotational constants: A =    723.29486  B =    553.86656  C =    335.09510 [MHz]
  Nuclear repulsion =  244.993441536261145

  Charge       = 0
  Multiplicity = 1
  Electrons    = 50
  Nalpha       = 25
  Nbeta        = 25

  ==> Algorithm <==

  SCF Algorithm Type is DF.
  DIIS enabled.
  MOM disabled.
  Fractional occupation disabled.
  Guess Type is SAD.
  Energy threshold   = 1.00e-08
  Density threshold  = 1.00e-08
  Integral threshold = 0.00e+00

  ==> Primary Basis <==

  Basis Set: JUN-CC-PVTZ
    Blend: JUN-CC-PVTZ
    Number of shells: 324
    Number of basis function: 860
    Number of Cartesian functions: 960
    Spherical Harmonics?: true
    Max angular momentum: 3

   => Loading Basis Set <=

    Name: (JUN-CC-PVTZ AUX)
    Role: JKFIT
    Keyword: DF_BASIS_SCF
    atoms 1-6, 21-26  entry C          line   152 file /home/r08543048/miniconda3/share/psi4/basis/jun-cc-pvtz-jkfit.gbs 
    atoms 7-20, 27-40 entry H          line    70 file /home/r08543048/miniconda3/share/psi4/basis/jun-cc-pvtz-jkfit.gbs 

  ==> Pre-Iterations <==

   -------------------------------------------------------
    Irrep   Nso     Nmo     Nalpha   Nbeta   Ndocc  Nsocc
   -------------------------------------------------------
     A        860     860       0       0       0       0
   -------------------------------------------------------
    Total     860     860      25      25      25       0
   -------------------------------------------------------

  ==> Integral Setup <==

  ==> DiskDFJK: Density-Fitted J/K Matrices <==

    J tasked:                  Yes
    K tasked:                  Yes
    wK tasked:                  No
    OpenMP threads:              1
    Integrals threads:           1
    Memory [MiB]:            15735
    Algorithm:                Core
    Integral Cache:           LOAD
    Schwarz Cutoff:          1E-12
    Fitting Condition:       1E-10

   => Auxiliary Basis Set <=

  Basis Set: (JUN-CC-PVTZ AUX)
    Blend: JUN-CC-PVTZ-JKFIT
    Number of shells: 628
    Number of basis function: 1980
    Number of Cartesian functions: 2372
    Spherical Harmonics?: true
    Max angular momentum: 4

  Minimum eigenvalue in the overlap matrix is 1.9754648084E-05.
  Using Symmetric Orthogonalization.

  SCF Guess: Superposition of Atomic Densities via on-the-fly atomic UHF.

  ==> Iterations <==

                           Total Energy        Delta E     RMS |[F,P]|

   @DF-RHF iter SAD:  -234.92929958127706   -2.34929e+02   0.00000e+00 
   @DF-RHF iter   1:  -235.15865041272454   -2.29351e-01   7.91053e-04 DIIS
   @DF-RHF iter   2:  -235.39900972215918   -2.40359e-01   3.55241e-04 DIIS
   @DF-RHF iter   3:  -235.44806083423614   -4.90511e-02   6.42899e-05 DIIS
   @DF-RHF iter   4:  -235.45143919200774   -3.37836e-03   1.13852e-05 DIIS
   @DF-RHF iter   5:  -235.45152255960426   -8.33676e-05   3.80286e-06 DIIS
   @DF-RHF iter   6:  -235.45153128334428   -8.72374e-06   6.22703e-07 DIIS
   @DF-RHF iter   7:  -235.45153157523899   -2.91895e-07   1.70831e-07 DIIS
   @DF-RHF iter   8:  -235.45153159354345   -1.83045e-08   3.99691e-08 DIIS
   @DF-RHF iter   9:  -235.45153159464240   -1.09895e-09   9.99103e-09 DIIS
  Energy and wave function converged.


  ==> Post-Iterations <==

    Orbital Energies [Eh]
    ---------------------

    Doubly Occupied:                                                      

       1A    -11.212782     2A    -11.212771     3A    -11.210701  
       4A    -11.210080     5A    -11.207246     6A    -11.207245  
       7A     -1.086542     8A     -1.037220     9A     -0.961112  
      10A     -0.870912    11A     -0.796918    12A     -0.784216  
      13A     -0.652020    14A     -0.610149    15A     -0.595073  
      16A     -0.577239    17A     -0.552779    18A     -0.527824  
      19A     -0.524902    20A     -0.498948    21A     -0.480130  
      22A     -0.466395    23A     -0.459328    24A     -0.458044  
      25A     -0.438148  

    Virtual:                                                              

      26A      0.028160    27A      0.038359    28A      0.044024  
      29A      0.051098    30A      0.059473    31A      0.059967  
      32A      0.062771    33A      0.066268    34A      0.078859  
      35A      0.080969    36A      0.087981    37A      0.088099  
      38A      0.092529    39A      0.093975    40A      0.097819  
      41A      0.111147    42A      0.112000    43A      0.113223  
      44A      0.115251    45A      0.119520    46A      0.127563  
      47A      0.128372    48A      0.135540    49A      0.137797  
      50A      0.143690    51A      0.144324    52A      0.145050  
      53A      0.151359    54A      0.152687    55A      0.165456  
      56A      0.169431    57A      0.173885    58A      0.176558  
      59A      0.180018    60A      0.181800    61A      0.185283  
      62A      0.191308    63A      0.193402    64A      0.197496  
      65A      0.198619    66A      0.202926    67A      0.211287  
      68A      0.212799    69A      0.221769    70A      0.224467  
      71A      0.225995    72A      0.232475    73A      0.243177  
      74A      0.248252    75A      0.249201    76A      0.261936  
      77A      0.269893    78A      0.280609    79A      0.282449  
      80A      0.286605    81A      0.290320    82A      0.295688  
      83A      0.298283    84A      0.303098    85A      0.309303  
      86A      0.311492    87A      0.317055    88A      0.320894  
      89A      0.323412    90A      0.325644    91A      0.330317  
      92A      0.332650    93A      0.334654    94A      0.337642  
      95A      0.347878    96A      0.351315    97A      0.351551  
      98A      0.357403    99A      0.357521   100A      0.359236  
     101A      0.365326   102A      0.367528   103A      0.375725  
     104A      0.377576   105A      0.386950   106A      0.388433  
     107A      0.392687   108A      0.398408   109A      0.400182  
     110A      0.406735   111A      0.410562   112A      0.412676  
     113A      0.416245   114A      0.423162   115A      0.426127  
     116A      0.427426   117A      0.432816   118A      0.437873  
     119A      0.445036   120A      0.445137   121A      0.448767  
     122A      0.454202   123A      0.466389   124A      0.471912  
     125A      0.472367   126A      0.475119   127A      0.481076  
     128A      0.486916   129A      0.487991   130A      0.491671  
     131A      0.493627   132A      0.503632   133A      0.513728  
     134A      0.519751   135A      0.525695   136A      0.535325  
     137A      0.536207   138A      0.541059   139A      0.545990  
     140A      0.549010   141A      0.556795   142A      0.558820  
     143A      0.560899   144A      0.562628   145A      0.579265  
     146A      0.587360   147A      0.590112   148A      0.591771  
     149A      0.594080   150A      0.596459   151A      0.602222  
     152A      0.606131   153A      0.608013   154A      0.615170  
     155A      0.617334   156A      0.630703   157A      0.632784  
     158A      0.634296   159A      0.639840   160A      0.641280  
     161A      0.643025   162A      0.646958   163A      0.651613  
     164A      0.658767   165A      0.665452   166A      0.674426  
     167A      0.675326   168A      0.676531   169A      0.680015  
     170A      0.682296   171A      0.684712   172A      0.697365  
     173A      0.701067   174A      0.704164   175A      0.708478  
     176A      0.711429   177A      0.715658   178A      0.725423  
     179A      0.730395   180A      0.738195   181A      0.747950  
     182A      0.753831   183A      0.765241   184A      0.771555  
     185A      0.775358   186A      0.785893   187A      0.793763  
     188A      0.794359   189A      0.803557   190A      0.807068  
     191A      0.807948   192A      0.813374   193A      0.815552  
     194A      0.834864   195A      0.836730   196A      0.842315  
     197A      0.843551   198A      0.848734   199A      0.855156  
     200A      0.866835   201A      0.868397   202A      0.875998  
     203A      0.884226   204A      0.889917   205A      0.891244  
     206A      0.897423   207A      0.909074   208A      0.913025  
     209A      0.917283   210A      0.925242   211A      0.940136  
     212A      0.944710   213A      0.946578   214A      0.952737  
     215A      0.964582   216A      0.972439   217A      0.988446  
     218A      0.997079   219A      0.997871   220A      1.013636  
     221A      1.030672   222A      1.035082   223A      1.052095  
     224A      1.072650   225A      1.082884   226A      1.087836  
     227A      1.102339   228A      1.103341   229A      1.106179  
     230A      1.121730   231A      1.124206   232A      1.140828  
     233A      1.148632   234A      1.161553   235A      1.161906  
     236A      1.175756   237A      1.179027   238A      1.188130  
     239A      1.191506   240A      1.193239   241A      1.202342  
     242A      1.212613   243A      1.212841   244A      1.219431  
     245A      1.223033   246A      1.235885   247A      1.241248  
     248A      1.243406   249A      1.246676   250A      1.260749  
     251A      1.269878   252A      1.273681   253A      1.280105  
     254A      1.286728   255A      1.287862   256A      1.294412  
     257A      1.294846   258A      1.303596   259A      1.307188  
     260A      1.310686   261A      1.323355   262A      1.328756  
     263A      1.329424   264A      1.336058   265A      1.343845  
     266A      1.347410   267A      1.349372   268A      1.356174  
     269A      1.368747   270A      1.371020   271A      1.373138  
     272A      1.381263   273A      1.383775   274A      1.390351  
     275A      1.398119   276A      1.398675   277A      1.406055  
     278A      1.413747   279A      1.414200   280A      1.423745  
     281A      1.424679   282A      1.433418   283A      1.434216  
     284A      1.443587   285A      1.443942   286A      1.453876  
     287A      1.455426   288A      1.455984   289A      1.465520  
     290A      1.479464   291A      1.483400   292A      1.493434  
     293A      1.495338   294A      1.503680   295A      1.505848  
     296A      1.513188   297A      1.514932   298A      1.523552  
     299A      1.531993   300A      1.533930   301A      1.538110  
     302A      1.544698   303A      1.556081   304A      1.563220  
     305A      1.566848   306A      1.569989   307A      1.573468  
     308A      1.582661   309A      1.583176   310A      1.589044  
     311A      1.595080   312A      1.601098   313A      1.609954  
     314A      1.615708   315A      1.621594   316A      1.630003  
     317A      1.633499   318A      1.639950   319A      1.646215  
     320A      1.649987   321A      1.653606   322A      1.662553  
     323A      1.670511   324A      1.673838   325A      1.683221  
     326A      1.686532   327A      1.688889   328A      1.692042  
     329A      1.699645   330A      1.704177   331A      1.710818  
     332A      1.714952   333A      1.716890   334A      1.725816  
     335A      1.733357   336A      1.740865   337A      1.746342  
     338A      1.758411   339A      1.765372   340A      1.772689  
     341A      1.788547   342A      1.792557   343A      1.793061  
     344A      1.796146   345A      1.811606   346A      1.823890  
     347A      1.838751   348A      1.844505   349A      1.846343  
     350A      1.861668   351A      1.863088   352A      1.866601  
     353A      1.884662   354A      1.902243   355A      1.907339  
     356A      1.909325   357A      1.910490   358A      1.922010  
     359A      1.931305   360A      1.951519   361A      1.954105  
     362A      1.962841   363A      1.963675   364A      1.972816  
     365A      1.973345   366A      1.979072   367A      2.001186  
     368A      2.010053   369A      2.014477   370A      2.015623  
     371A      2.025073   372A      2.032279   373A      2.044173  
     374A      2.068442   375A      2.074515   376A      2.108618  
     377A      2.131203   378A      2.137872   379A      2.157016  
     380A      2.164353   381A      2.165473   382A      2.191222  
     383A      2.202005   384A      2.206472   385A      2.243017  
     386A      2.254394   387A      2.266203   388A      2.272746  
     389A      2.279761   390A      2.322083   391A      2.328246  
     392A      2.371920   393A      2.381410   394A      2.401523  
     395A      2.423502   396A      2.443132   397A      2.450359  
     398A      2.482294   399A      2.484793   400A      2.491717  
     401A      2.516105   402A      2.523136   403A      2.533913  
     404A      2.586866   405A      2.661925   406A      2.700086  
     407A      2.711482   408A      2.737154   409A      2.773679  
     410A      2.786946   411A      2.796837   412A      2.801769  
     413A      2.827543   414A      2.834211   415A      2.868325  
     416A      2.891726   417A      2.901099   418A      2.914716  
     419A      2.915154   420A      2.930793   421A      2.943234  
     422A      2.967448   423A      2.973019   424A      2.978505  
     425A      2.983724   426A      3.001779   427A      3.021680  
     428A      3.063754   429A      3.084787   430A      3.105840  
     431A      3.129578   432A      3.139055   433A      3.161360  
     434A      3.164868   435A      3.172744   436A      3.189335  
     437A      3.189478   438A      3.203572   439A      3.228607  
     440A      3.234957   441A      3.248053   442A      3.276830  
     443A      3.293224   444A      3.307941   445A      3.317027  
     446A      3.320316   447A      3.324813   448A      3.341178  
     449A      3.357777   450A      3.366202   451A      3.369151  
     452A      3.375361   453A      3.389367   454A      3.427191  
     455A      3.428843   456A      3.444618   457A      3.447064  
     458A      3.472567   459A      3.473848   460A      3.477204  
     461A      3.486159   462A      3.486388   463A      3.495992  
     464A      3.500517   465A      3.504357   466A      3.517745  
     467A      3.520796   468A      3.533184   469A      3.533656  
     470A      3.545814   471A      3.549555   472A      3.562510  
     473A      3.570770   474A      3.574130   475A      3.580297  
     476A      3.582676   477A      3.583023   478A      3.588925  
     479A      3.595959   480A      3.600574   481A      3.607794  
     482A      3.608296   483A      3.609432   484A      3.625467  
     485A      3.633197   486A      3.634719   487A      3.646460  
     488A      3.657722   489A      3.659775   490A      3.664759  
     491A      3.668262   492A      3.673937   493A      3.680784  
     494A      3.693969   495A      3.698010   496A      3.700825  
     497A      3.713567   498A      3.713815   499A      3.727943  
     500A      3.732495   501A      3.746211   502A      3.749968  
     503A      3.761694   504A      3.778025   505A      3.787574  
     506A      3.797067   507A      3.798807   508A      3.816986  
     509A      3.825754   510A      3.833124   511A      3.840914  
     512A      3.857409   513A      3.859583   514A      3.860697  
     515A      3.867250   516A      3.871456   517A      3.876041  
     518A      3.882817   519A      3.892037   520A      3.893491  
     521A      3.895282   522A      3.905017   523A      3.913837  
     524A      3.919219   525A      3.925232   526A      3.929483  
     527A      3.932676   528A      3.942506   529A      3.948010  
     530A      3.956539   531A      3.961205   532A      3.961947  
     533A      3.970329   534A      3.970818   535A      3.989792  
     536A      3.996952   537A      4.008292   538A      4.013027  
     539A      4.019618   540A      4.023093   541A      4.033147  
     542A      4.035330   543A      4.046593   544A      4.053179  
     545A      4.071550   546A      4.075148   547A      4.081991  
     548A      4.091480   549A      4.100268   550A      4.111328  
     551A      4.153465   552A      4.163248   553A      4.169926  
     554A      4.177032   555A      4.183751   556A      4.192439  
     557A      4.194525   558A      4.201925   559A      4.215650  
     560A      4.223504   561A      4.234995   562A      4.237378  
     563A      4.244751   564A      4.249103   565A      4.252519  
     566A      4.254492   567A      4.266664   568A      4.277712  
     569A      4.286901   570A      4.296684   571A      4.300992  
     572A      4.303660   573A      4.307709   574A      4.322453  
     575A      4.343719   576A      4.344128   577A      4.352151  
     578A      4.360288   579A      4.371109   580A      4.375302  
     581A      4.376578   582A      4.379834   583A      4.399316  
     584A      4.400358   585A      4.409515   586A      4.416221  
     587A      4.420028   588A      4.422241   589A      4.427291  
     590A      4.451079   591A      4.451263   592A      4.461281  
     593A      4.470686   594A      4.471791   595A      4.486454  
     596A      4.495370   597A      4.505625   598A      4.506121  
     599A      4.507841   600A      4.520802   601A      4.527458  
     602A      4.531839   603A      4.537038   604A      4.539729  
     605A      4.547217   606A      4.557619   607A      4.558353  
     608A      4.565535   609A      4.566264   610A      4.576648  
     611A      4.584171   612A      4.587418   613A      4.597604  
     614A      4.600164   615A      4.612422   616A      4.612909  
     617A      4.622477   618A      4.628731   619A      4.633967  
     620A      4.638901   621A      4.639352   622A      4.651135  
     623A      4.651470   624A      4.656725   625A      4.666326  
     626A      4.670853   627A      4.671076   628A      4.673389  
     629A      4.684583   630A      4.691510   631A      4.699544  
     632A      4.718577   633A      4.720431   634A      4.728954  
     635A      4.737909   636A      4.740330   637A      4.742262  
     638A      4.746483   639A      4.759163   640A      4.766476  
     641A      4.781009   642A      4.784013   643A      4.785112  
     644A      4.788493   645A      4.795198   646A      4.819914  
     647A      4.823905   648A      4.825358   649A      4.829156  
     650A      4.832318   651A      4.846608   652A      4.847083  
     653A      4.855534   654A      4.856592   655A      4.860058  
     656A      4.867095   657A      4.870415   658A      4.883684  
     659A      4.889190   660A      4.903603   661A      4.914117  
     662A      4.916581   663A      4.931531   664A      4.933470  
     665A      4.938021   666A      4.942380   667A      4.949678  
     668A      4.957972   669A      4.965123   670A      4.967757  
     671A      4.971165   672A      4.978510   673A      4.980119  
     674A      4.982501   675A      4.998785   676A      5.003504  
     677A      5.012863   678A      5.017243   679A      5.021930  
     680A      5.032894   681A      5.033806   682A      5.037030  
     683A      5.051084   684A      5.061042   685A      5.067535  
     686A      5.077728   687A      5.086862   688A      5.095357  
     689A      5.105415   690A      5.109257   691A      5.121860  
     692A      5.132221   693A      5.146450   694A      5.151455  
     695A      5.154070   696A      5.162572   697A      5.187174  
     698A      5.199114   699A      5.207288   700A      5.210458  
     701A      5.212219   702A      5.226787   703A      5.231995  
     704A      5.242763   705A      5.249259   706A      5.255122  
     707A      5.262437   708A      5.267774   709A      5.296107  
     710A      5.308115   711A      5.313873   712A      5.314302  
     713A      5.318454   714A      5.324964   715A      5.333782  
     716A      5.338752   717A      5.345081   718A      5.351664  
     719A      5.372952   720A      5.376919   721A      5.385443  
     722A      5.399666   723A      5.417647   724A      5.420265  
     725A      5.431351   726A      5.434833   727A      5.455085  
     728A      5.460539   729A      5.484433   730A      5.493417  
     731A      5.513088   732A      5.514674   733A      5.518807  
     734A      5.530802   735A      5.552247   736A      5.562918  
     737A      5.577736   738A      5.581845   739A      5.593486  
     740A      5.631677   741A      5.637348   742A      5.646095  
     743A      5.648800   744A      5.660691   745A      5.663449  
     746A      5.690879   747A      5.694644   748A      5.695710  
     749A      5.699858   750A      5.758496   751A      5.761722  
     752A      5.777296   753A      5.779568   754A      5.796719  
     755A      5.805981   756A      5.809297   757A      5.827634  
     758A      5.846857   759A      5.860907   760A      5.895140  
     761A      5.903746   762A      5.906325   763A      5.930192  
     764A      5.936847   765A      5.937837   766A      5.943928  
     767A      5.951036   768A      5.956948   769A      5.963961  
     770A      5.977439   771A      5.991798   772A      6.008989  
     773A      6.024125   774A      6.028686   775A      6.052307  
     776A      6.058192   777A      6.065620   778A      6.087998  
     779A      6.114827   780A      6.118814   781A      6.130955  
     782A      6.186521   783A      6.208812   784A      6.252180  
     785A      6.266090   786A      6.299400   787A      6.326749  
     788A      6.344502   789A      6.382594   790A      6.384203  
     791A      6.412790   792A      6.413650   793A      6.421172  
     794A      6.461682   795A      6.498232   796A      6.498787  
     797A      6.530009   798A      6.543117   799A      6.545240  
     800A      6.552120   801A      6.558297   802A      6.559610  
     803A      6.575650   804A      6.581600   805A      6.612163  
     806A      6.674862   807A      6.690885   808A      6.693140  
     809A      6.695458   810A      6.787670   811A      6.800618  
     812A      6.810922   813A      6.938748   814A      6.952369  
     815A      6.963616   816A      7.117699   817A      7.266495  
     818A      7.423174   819A      7.542452   820A      7.564315  
     821A      7.594502   822A      7.600666   823A      7.619333  
     824A      7.662971   825A      7.703985   826A      7.710423  
     827A      7.725253   828A      7.749311   829A      7.769240  
     830A      7.814518   831A      7.816317   832A      7.833112  
     833A      7.889705   834A      7.911237   835A      7.940761  
     836A      8.113237   837A      8.173245   838A      8.347580  
     839A      8.457730   840A      8.643944   841A      8.725958  
     842A      8.834110   843A      9.638455   844A      9.651761  
     845A      9.741732   846A      9.866764   847A      9.930567  
     848A      9.966823   849A     13.902451   850A     14.051713  
     851A     14.417820   852A     14.575109   853A     14.638440  
     854A     14.760114   855A     43.996938   856A     44.714646  
     857A     45.601654   858A     45.746023   859A     45.963478  
     860A     46.137219  

    Final Occupation by Irrep:
              A 
    DOCC [    25 ]

  @DF-RHF Final Energy:  -235.45153159464240

   => Energetics <=

    Nuclear Repulsion Energy =            244.9934415362611446
    One-Electron Energy =                -801.6124905431263414
    Two-Electron Energy =                 321.1675174122228213
    Total Energy =                       -235.4515315946424039

Computation Completed


Properties will be evaluated at   0.000000,   0.000000,   0.000000 [a0]

Properties computed using the SCF density matrix

  Nuclear Dipole Moment: [e a0]
     X:     0.0330      Y:  -180.4946      Z:    -0.1218

  Electronic Dipole Moment: [e a0]
     X:    -0.0330      Y:   180.4937      Z:     0.1218

  Dipole Moment: [e a0]
     X:    -0.0000      Y:    -0.0009      Z:    -0.0000     Total:     0.0009

  Dipole Moment: [D]
     X:    -0.0000      Y:    -0.0022      Z:    -0.0000     Total:     0.0022


*** tstop() called on r282 at Thu Sep  9 10:59:52 2021
Module time:
	user time   =     226.07 seconds =       3.77 minutes
	system time =       2.68 seconds =       0.04 minutes
	total time  =        229 seconds =       3.82 minutes
Total time:
	user time   =     891.27 seconds =      14.85 minutes
	system time =      13.87 seconds =       0.23 minutes
	total time  =        906 seconds =      15.10 minutes
  Constructing Basis Sets for SAPT...

   => Loading Basis Set <=

    Name: (JUN-CC-PVTZ AUX)
    Role: RIFIT
    Keyword: DF_BASIS_SAPT
    atoms 1-6, 21-26  entry C          line   132 file /home/r08543048/miniconda3/share/psi4/basis/jun-cc-pvtz-ri.gbs 
    atoms 7-20, 27-40 entry H          line    30 file /home/r08543048/miniconda3/share/psi4/basis/jun-cc-pvtz-ri.gbs 


  //>>>>>>>>>>>>>>>>>>>>>>>>>>>>>>>>>>>//
  //               SAPT0               //
  //<<<<<<<<<<<<<<<<<<<<<<<<<<<<<<<<<<<//


*** tstart() called on r282
*** at Thu Sep  9 10:59:52 2021

        SAPT0  
    Ed Hohenstein
     6 June 2009

      Orbital Information
  --------------------------
    NSO        =       860
    NMO        =       860
    NRI        =      2004
    NOCC A     =        25
    NOCC B     =        25
    FOCC A     =         6
    FOCC B     =         6
    NVIR A     =       835
    NVIR B     =       835

    Elst10,r            =    -0.003131812354 [Eh]
    Exch10              =     0.010801244291 [Eh]
    Exch10 (S^2)        =     0.010791338456 [Eh]

    Iter     Energy [mEh]          dE [mEh]         Residual      Time [s]
       1      -0.64024645       0.640246446       3.214285948             5
       2      -0.77544587       0.135199420       0.637630283            10
       3      -0.77695856       0.001512695       0.176732933            16
       4      -0.77494779      -0.002010766       0.041028030            21
       5      -0.77503573       0.000087940       0.012703635            26
       6      -0.77512475       0.000089015       0.002465898            32
       7      -0.77511763      -0.000007124       0.000772998            37
       8      -0.77511450      -0.000003130       0.000180919            42
       9      -0.77511513       0.000000634       0.000038210            48
      10      -0.77511516       0.000000032       0.000010317            53
      11      -0.77511514      -0.000000022       0.000002178            58
      12      -0.77511514      -0.000000003       0.000000472            64

    CHF Iterations converged


    Iter     Energy [mEh]          dE [mEh]         Residual      Time [s]
       1      -0.64041516       0.640415164       3.214513489             5
       2      -0.77564204       0.135226874       0.637398806            11
       3      -0.77715300       0.001510958       0.176596322            16
       4      -0.77514391      -0.002009089       0.040993825            21
       5      -0.77523149       0.000087582       0.012695820            26
       6      -0.77532048       0.000088988       0.002465059            32
       7      -0.77531337      -0.000007108       0.000772770            37
       8      -0.77531024      -0.000003132       0.000180906            42
       9      -0.77531087       0.000000633       0.000038250            48
      10      -0.77531090       0.000000033       0.000010325            53
      11      -0.77531088      -0.000000022       0.000002181            58
      12      -0.77531088      -0.000000003       0.000000472            64

    CHF Iterations converged

    Ind20,r (A<-B)      =    -0.000775115136 [Eh]
    Ind20,r (B<-A)      =    -0.000775310877 [Eh]
    Ind20,r             =    -0.001550426014 [Eh]
    Exch-Ind20,r (A<-B) =     0.000660911575 [Eh]
    Exch-Ind20,r (B<-A) =     0.000661124867 [Eh]
    Exch-Ind20,r        =     0.001322036441 [Eh]
    Disp20              =    -0.015488159649 [Eh]
    Disp20 (SS)         =    -0.007744079825 [Eh]
    Disp20 (OS)         =    -0.007744079825 [Eh]
    Exch-Disp20         =     0.001212227576 [Eh]
    Exch-Disp20 (SS)    =     0.000801394472 [Eh]
    Exch-Disp20 (OS)    =     0.000410833104 [Eh]

    SAPT Results 
  --------------------------------------------------------------------------------------------------------
    Electrostatics                 -3.13181235 [mEh]      -1.96524192 [kcal/mol]      -8.22257220 [kJ/mol]
      Elst10,r                     -3.13181235 [mEh]      -1.96524192 [kcal/mol]      -8.22257220 [kJ/mol]

    Exchange                       10.80124429 [mEh]       6.77788312 [kcal/mol]      28.35866298 [kJ/mol]
      Exch10                       10.80124429 [mEh]       6.77788312 [kcal/mol]      28.35866298 [kJ/mol]
      Exch10(S^2)                  10.79133846 [mEh]       6.77166712 [kcal/mol]      28.33265521 [kJ/mol]

    Induction                      -0.99613726 [mEh]      -0.62508557 [kcal/mol]      -2.61535801 [kJ/mol]
      Ind20,r                      -1.55042601 [mEh]      -0.97290701 [kcal/mol]      -4.07064294 [kJ/mol]
      Exch-Ind20,r                  1.32203644 [mEh]       0.82959039 [kcal/mol]       3.47100620 [kJ/mol]
      delta HF,r (2)               -0.76774768 [mEh]      -0.48176895 [kcal/mol]      -2.01572127 [kJ/mol]

    Dispersion                    -14.27593207 [mEh]      -8.95828262 [kcal/mol]     -37.48145450 [kJ/mol]
      Disp20                      -15.48815965 [mEh]      -9.71896691 [kcal/mol]     -40.66415756 [kJ/mol]
      Exch-Disp20                   1.21222758 [mEh]       0.76068429 [kcal/mol]       3.18270306 [kJ/mol]
      Disp20 (SS)                  -7.74407982 [mEh]      -4.85948346 [kcal/mol]     -20.33207878 [kJ/mol]
      Disp20 (OS)                  -7.74407982 [mEh]      -4.85948346 [kcal/mol]     -20.33207878 [kJ/mol]
      Exch-Disp20 (SS)              0.80139447 [mEh]       0.50288262 [kcal/mol]       2.10406090 [kJ/mol]
      Exch-Disp20 (OS)              0.41083310 [mEh]       0.25780166 [kcal/mol]       1.07864217 [kJ/mol]

  Total HF                          6.67329468 [mEh]       4.18755563 [kcal/mol]      17.52073277 [kJ/mol]
  Total SAPT0                      -7.60263739 [mEh]      -4.77072699 [kcal/mol]     -19.96072173 [kJ/mol]

  Special recipe for scaled SAPT0 (see Manual):
    Electrostatics sSAPT0          -3.13181235 [mEh]      -1.96524192 [kcal/mol]      -8.22257220 [kJ/mol]
    Exchange sSAPT0                10.80124429 [mEh]       6.77788312 [kcal/mol]      28.35866298 [kJ/mol]
    Induction sSAPT0               -0.99249325 [mEh]      -0.62279892 [kcal/mol]      -2.60579067 [kJ/mol]
    Dispersion sSAPT0             -14.27259074 [mEh]      -8.95618590 [kcal/mol]     -37.47268183 [kJ/mol]
  Total sSAPT0                     -7.59565205 [mEh]      -4.76634362 [kcal/mol]     -19.94238172 [kJ/mol]
  --------------------------------------------------------------------------------------------------------

*** tstop() called on r282 at Thu Sep  9 11:12:20 2021
Module time:
	user time   =     676.77 seconds =      11.28 minutes
	system time =      70.65 seconds =       1.18 minutes
	total time  =        748 seconds =      12.47 minutes
Total time:
	user time   =    1568.31 seconds =      26.14 minutes
	system time =      84.52 seconds =       1.41 minutes
	total time  =       1654 seconds =      27.57 minutes

    Psi4 stopped on: Thursday, 09 September 2021 11:12AM
    Psi4 wall time for execution: 0:27:34.12

*** Psi4 exiting successfully. Buy a developer a beer!
