
    -----------------------------------------------------------------------
          Psi4: An Open-Source Ab Initio Electronic Structure Package
                               Psi4 1.3.2 release

                         Git: Rev {HEAD} ecbda83 


    R. M. Parrish, L. A. Burns, D. G. A. Smith, A. C. Simmonett,
    A. E. DePrince III, E. G. Hohenstein, U. Bozkaya, A. Yu. Sokolov,
    R. Di Remigio, R. M. Richard, J. F. Gonthier, A. M. James,
    H. R. McAlexander, A. Kumar, M. Saitow, X. Wang, B. P. Pritchard,
    P. Verma, H. F. Schaefer III, K. Patkowski, R. A. King, E. F. Valeev,
    F. A. Evangelista, J. M. Turney, T. D. Crawford, and C. D. Sherrill,
    J. Chem. Theory Comput. 13(7) pp 3185--3197 (2017).
    (doi: 10.1021/acs.jctc.7b00174)


                         Additional Contributions by
    P. Kraus, H. Kruse, M. H. Lechner, M. C. Schieber, R. A. Shaw,
    A. Alenaizan, R. Galvelis, Z. L. Glick, S. Lehtola, and J. P. Misiewicz

    -----------------------------------------------------------------------


    Psi4 started on: Friday, 10 September 2021 08:42PM

    Process ID: 57096
    Host:       r282
    PSIDATADIR: /home/r08543048/miniconda3/share/psi4
    Memory:     500.0 MiB
    Threads:    1
    
  ==> Input File <==

--------------------------------------------------------------------------
# Any line starting with the # character is a comment line
#! Sample  computation

memory 22 gb

molecule Dimer {
0 1
 C -1.354273    0.667740    0.385234
 C -2.472649    0.178611   -0.526193
 C -3.521078   -0.632061    0.225274
 C -0.269076    1.436206   -0.357029
 C 0.850988    1.925706    0.552334
 C 1.927910    2.688377   -0.209219
 H -0.905915   -0.190665    0.895655
 H -1.779218    1.304677    1.167908
 H -2.042729   -0.428858   -1.327316
 H -2.943686    1.038711   -1.009609
 H -4.318516   -0.971288   -0.435442
 H -3.973468   -0.037368    1.019952
 H -3.068974   -1.511860    0.685351
 H  0.154399    0.798154   -1.140359
 H -0.717806    2.293398   -0.869890
 H  1.297922    1.069237    1.064362
 H  0.425787    2.564766    1.330964
 H  2.721914    3.032945    0.452969 
 H  1.503851    3.561023   -0.707784 
 H  2.381061    2.056937   -0.974769 
 
 
 
 
 

 --
0 1
 C  0.440195   -2.582366   -0.336320
 C  1.558161   -2.075039    0.566137
 C  2.652142   -1.370266   -0.226372
 H -0.009289   -1.758862   -0.893537
 H  0.825836   -3.300882   -1.061128
 H -0.349844   -3.071344    0.233939
 H  1.988377   -2.910813    1.121919
 H  1.146211   -1.390027    1.310506
 H  3.445096   -0.997568    0.421967
 H  3.101843   -2.050053   -0.951598
 H  2.243226   -0.521710   -0.777130




units angstrom

no_reorient
symmetry c1
}

set globals{
  basis jun-cc-pvtz
}

energy('sapt0')


--------------------------------------------------------------------------

  Memory set to  20.489 GiB by Python driver.

  //>>>>>>>>>>>>>>>>>>>>>>>>>>>>>>>>>>>//
  //              Dimer HF             //
  //<<<<<<<<<<<<<<<<<<<<<<<<<<<<<<<<<<<//


*** tstart() called on r282
*** at Fri Sep 10 20:42:34 2021

   => Loading Basis Set <=

    Name: JUN-CC-PVTZ
    Role: ORBITAL
    Keyword: BASIS
    atoms 1-6, 21-23  entry C          line   217 file /home/r08543048/miniconda3/share/psi4/basis/jun-cc-pvtz.gbs 
    atoms 7-20, 24-31 entry H          line    36 file /home/r08543048/miniconda3/share/psi4/basis/jun-cc-pvtz.gbs 


         ---------------------------------------------------------
                                   SCF
               by Justin Turney, Rob Parrish, Andy Simmonett
                          and Daniel G. A. Smith
                              RHF Reference
                        1 Threads,  20980 MiB Core
         ---------------------------------------------------------

  ==> Geometry <==

    Molecular point group: c1
    Full point group: C1

    Geometry (in Angstrom), charge = 0, multiplicity = 1:

       Center              X                  Y                   Z               Mass       
    ------------   -----------------  -----------------  -----------------  -----------------
         C           -1.345689978230     0.656905707870     0.381856818625    12.000000000000
         C           -2.464065978230     0.167776707870    -0.529570181375    12.000000000000
         C           -3.512494978230    -0.642895292130     0.221896818625    12.000000000000
         C           -0.260492978230     1.425371707870    -0.360406181375    12.000000000000
         C            0.859571021770     1.914871707870     0.548956818625    12.000000000000
         C            1.936493021770     2.677542707870    -0.212596181375    12.000000000000
         H           -0.897331978230    -0.201499292130     0.892277818625     1.007825032230
         H           -1.770634978230     1.293842707870     1.164530818625     1.007825032230
         H           -2.034145978230    -0.439692292130    -1.330693181375     1.007825032230
         H           -2.935102978230     1.027876707870    -1.012986181375     1.007825032230
         H           -4.309932978230    -0.982122292130    -0.438819181375     1.007825032230
         H           -3.964884978230    -0.048202292130     1.016574818625     1.007825032230
         H           -3.060390978230    -1.522694292130     0.681973818625     1.007825032230
         H            0.162982021770     0.787319707870    -1.143736181375     1.007825032230
         H           -0.709222978230     2.282563707870    -0.873267181375     1.007825032230
         H            1.306505021770     1.058402707870     1.060984818625     1.007825032230
         H            0.434370021770     2.553931707870     1.327586818625     1.007825032230
         H            2.730497021770     3.022110707870     0.449591818625     1.007825032230
         H            1.512434021770     3.550188707870    -0.711161181375     1.007825032230
         H            2.389644021770     2.046102707870    -0.978146181375     1.007825032230
         C            0.448778021770    -2.593200292130    -0.339697181375    12.000000000000
         C            1.566744021770    -2.085873292130     0.562759818625    12.000000000000
         C            2.660725021770    -1.381100292130    -0.229749181375    12.000000000000
         H           -0.000705978230    -1.769696292130    -0.896914181375     1.007825032230
         H            0.834419021770    -3.311716292130    -1.064505181375     1.007825032230
         H           -0.341260978230    -3.082178292130     0.230561818625     1.007825032230
         H            1.996960021770    -2.921647292130     1.118541818625     1.007825032230
         H            1.154794021770    -1.400861292130     1.307128818625     1.007825032230
         H            3.453679021770    -1.008402292130     0.418589818625     1.007825032230
         H            3.110426021770    -2.060887292130    -0.954975181375     1.007825032230
         H            2.251809021770    -0.532544292130    -0.780507181375     1.007825032230

  Running in c1 symmetry.

  Rotational constants: A =      0.03798  B =      0.02992  C =      0.01807 [cm^-1]
  Rotational constants: A =   1138.74089  B =    896.84644  C =    541.84120 [MHz]
  Nuclear repulsion =  481.034240115398234

  Charge       = 0
  Multiplicity = 1
  Electrons    = 76
  Nalpha       = 38
  Nbeta        = 38

  ==> Algorithm <==

  SCF Algorithm Type is DF.
  DIIS enabled.
  MOM disabled.
  Fractional occupation disabled.
  Guess Type is SAD.
  Energy threshold   = 1.00e-08
  Density threshold  = 1.00e-08
  Integral threshold = 0.00e+00

  ==> Primary Basis <==

  Basis Set: JUN-CC-PVTZ
    Blend: JUN-CC-PVTZ
    Number of shells: 249
    Number of basis function: 659
    Number of Cartesian functions: 735
    Spherical Harmonics?: true
    Max angular momentum: 3

   => Loading Basis Set <=

    Name: (JUN-CC-PVTZ AUX)
    Role: JKFIT
    Keyword: DF_BASIS_SCF
    atoms 1-6, 21-23  entry C          line   152 file /home/r08543048/miniconda3/share/psi4/basis/jun-cc-pvtz-jkfit.gbs 
    atoms 7-20, 24-31 entry H          line    70 file /home/r08543048/miniconda3/share/psi4/basis/jun-cc-pvtz-jkfit.gbs 

  ==> Pre-Iterations <==

   -------------------------------------------------------
    Irrep   Nso     Nmo     Nalpha   Nbeta   Ndocc  Nsocc
   -------------------------------------------------------
     A        659     659       0       0       0       0
   -------------------------------------------------------
    Total     659     659      38      38      38       0
   -------------------------------------------------------

  ==> Integral Setup <==

  ==> DiskDFJK: Density-Fitted J/K Matrices <==

    J tasked:                  Yes
    K tasked:                  Yes
    wK tasked:                  No
    OpenMP threads:              1
    Integrals threads:           1
    Memory [MiB]:            15735
    Algorithm:                Core
    Integral Cache:           SAVE
    Schwarz Cutoff:          1E-12
    Fitting Condition:       1E-10

   => Auxiliary Basis Set <=

  Basis Set: (JUN-CC-PVTZ AUX)
    Blend: JUN-CC-PVTZ-JKFIT
    Number of shells: 481
    Number of basis function: 1515
    Number of Cartesian functions: 1814
    Spherical Harmonics?: true
    Max angular momentum: 4

  Minimum eigenvalue in the overlap matrix is 2.3421701071E-05.
  Using Symmetric Orthogonalization.

  SCF Guess: Superposition of Atomic Densities via on-the-fly atomic UHF.

  ==> Iterations <==

                           Total Energy        Delta E     RMS |[F,P]|

   @DF-RHF iter SAD:  -352.85682983034786   -3.52857e+02   0.00000e+00 
   @DF-RHF iter   1:  -353.30431589082161   -4.47486e-01   1.28569e-03 DIIS
   @DF-RHF iter   2:  -353.67192496305023   -3.67609e-01   5.87097e-04 DIIS
   @DF-RHF iter   3:  -353.75007324844916   -7.81483e-02   1.06701e-04 DIIS
   @DF-RHF iter   4:  -353.75537028846600   -5.29704e-03   2.14062e-05 DIIS
   @DF-RHF iter   5:  -353.75553228048796   -1.61992e-04   6.33420e-06 DIIS
   @DF-RHF iter   6:  -353.75554732029241   -1.50398e-05   1.12943e-06 DIIS
   @DF-RHF iter   7:  -353.75554785255855   -5.32266e-07   2.88292e-07 DIIS
   @DF-RHF iter   8:  -353.75554788456321   -3.20047e-08   6.92100e-08 DIIS
   @DF-RHF iter   9:  -353.75554788630592   -1.74271e-09   1.70425e-08 DIIS
   @DF-RHF iter  10:  -353.75554788643399   -1.28068e-10   3.94670e-09 DIIS
  Energy and wave function converged.


  ==> Post-Iterations <==

    Orbital Energies [Eh]
    ---------------------

    Doubly Occupied:                                                      

       1A    -11.216345     2A    -11.212568     3A    -11.212514  
       4A    -11.210821     5A    -11.209779     6A    -11.208446  
       7A    -11.208277     8A    -11.207108     9A    -11.206995  
      10A     -1.087106    11A     -1.055131    12A     -1.037502  
      13A     -0.961200    14A     -0.925784    15A     -0.870923  
      16A     -0.801414    17A     -0.797152    18A     -0.784490  
      19A     -0.657757    20A     -0.621996    21A     -0.610949  
      22A     -0.599521    23A     -0.595404    24A     -0.577449  
      25A     -0.553794    26A     -0.549992    27A     -0.530488  
      28A     -0.527591    29A     -0.524816    30A     -0.498866  
      31A     -0.480339    32A     -0.477273    33A     -0.475620  
      34A     -0.473206    35A     -0.466574    36A     -0.458308  
      37A     -0.454377    38A     -0.438053  

    Virtual:                                                              

      39A      0.048970    40A      0.049318    41A      0.051829  
      42A      0.058526    43A      0.066784    44A      0.068858  
      45A      0.073596    46A      0.075549    47A      0.084332  
      48A      0.094797    49A      0.100191    50A      0.105831  
      51A      0.108831    52A      0.111289    53A      0.116763  
      54A      0.118319    55A      0.126543    56A      0.134585  
      57A      0.139517    58A      0.147294    59A      0.149526  
      60A      0.152207    61A      0.157777    62A      0.163057  
      63A      0.167503    64A      0.180947    65A      0.182510  
      66A      0.193619    67A      0.197701    68A      0.203698  
      69A      0.208927    70A      0.212325    71A      0.220119  
      72A      0.226358    73A      0.233061    74A      0.246908  
      75A      0.253511    76A      0.258613    77A      0.266327  
      78A      0.266477    79A      0.276805    80A      0.280547  
      81A      0.287183    82A      0.299420    83A      0.301567  
      84A      0.305853    85A      0.310778    86A      0.312962  
      87A      0.317516    88A      0.319425    89A      0.325486  
      90A      0.330462    91A      0.335982    92A      0.338373  
      93A      0.340380    94A      0.342292    95A      0.344562  
      96A      0.349720    97A      0.355532    98A      0.359757  
      99A      0.362628   100A      0.370410   101A      0.377233  
     102A      0.378100   103A      0.383802   104A      0.387709  
     105A      0.398469   106A      0.398942   107A      0.406826  
     108A      0.414334   109A      0.415550   110A      0.421757  
     111A      0.431731   112A      0.433131   113A      0.439568  
     114A      0.445407   115A      0.448096   116A      0.452485  
     117A      0.464264   118A      0.470296   119A      0.477069  
     120A      0.478065   121A      0.482062   122A      0.486357  
     123A      0.506855   124A      0.509915   125A      0.515344  
     126A      0.521175   127A      0.526438   128A      0.532175  
     129A      0.533146   130A      0.539596   131A      0.546310  
     132A      0.548953   133A      0.552294   134A      0.564244  
     135A      0.574576   136A      0.575345   137A      0.587200  
     138A      0.595406   139A      0.599374   140A      0.607526  
     141A      0.616730   142A      0.620087   143A      0.623734  
     144A      0.635848   145A      0.645400   146A      0.651580  
     147A      0.658156   148A      0.662654   149A      0.673017  
     150A      0.676739   151A      0.680830   152A      0.688233  
     153A      0.701606   154A      0.710607   155A      0.723208  
     156A      0.731819   157A      0.738567   158A      0.743334  
     159A      0.754669   160A      0.763942   161A      0.769927  
     162A      0.772905   163A      0.775411   164A      0.787729  
     165A      0.797368   166A      0.802323   167A      0.809920  
     168A      0.817690   169A      0.822689   170A      0.825528  
     171A      0.836510   172A      0.840192   173A      0.845441  
     174A      0.850703   175A      0.853799   176A      0.858197  
     177A      0.863871   178A      0.870295   179A      0.875356  
     180A      0.881734   181A      0.885338   182A      0.893336  
     183A      0.896479   184A      0.905485   185A      0.913506  
     186A      0.916997   187A      0.928331   188A      0.937548  
     189A      0.943590   190A      0.945854   191A      0.946922  
     192A      0.964233   193A      0.969036   194A      0.983648  
     195A      0.989971   196A      0.994953   197A      1.002725  
     198A      1.017105   199A      1.021969   200A      1.038048  
     201A      1.045586   202A      1.053236   203A      1.060384  
     204A      1.079378   205A      1.097549   206A      1.102975  
     207A      1.122851   208A      1.128740   209A      1.158045  
     210A      1.162799   211A      1.164253   212A      1.191437  
     213A      1.200986   214A      1.205375   215A      1.214363  
     216A      1.222437   217A      1.235922   218A      1.253602  
     219A      1.254431   220A      1.276193   221A      1.281879  
     222A      1.286927   223A      1.287818   224A      1.295804  
     225A      1.306637   226A      1.312521   227A      1.319055  
     228A      1.331238   229A      1.345742   230A      1.351165  
     231A      1.355227   232A      1.364343   233A      1.377175  
     234A      1.378952   235A      1.388017   236A      1.392317  
     237A      1.400686   238A      1.403800   239A      1.414863  
     240A      1.420700   241A      1.426698   242A      1.437240  
     243A      1.445679   244A      1.452759   245A      1.456930  
     246A      1.463023   247A      1.465493   248A      1.476661  
     249A      1.482412   250A      1.489831   251A      1.503550  
     252A      1.514034   253A      1.523635   254A      1.527519  
     255A      1.544071   256A      1.546265   257A      1.548074  
     258A      1.557315   259A      1.567672   260A      1.582330  
     261A      1.586759   262A      1.590797   263A      1.593418  
     264A      1.598978   265A      1.604636   266A      1.608468  
     267A      1.615028   268A      1.629167   269A      1.639730  
     270A      1.642352   271A      1.645911   272A      1.662709  
     273A      1.664032   274A      1.676164   275A      1.684860  
     276A      1.694805   277A      1.696268   278A      1.706929  
     279A      1.714574   280A      1.719622   281A      1.727815  
     282A      1.745334   283A      1.761809   284A      1.765105  
     285A      1.784020   286A      1.791136   287A      1.797911  
     288A      1.817766   289A      1.826611   290A      1.837647  
     291A      1.842329   292A      1.853221   293A      1.862637  
     294A      1.868603   295A      1.884685   296A      1.891428  
     297A      1.903807   298A      1.911997   299A      1.930724  
     300A      1.940153   301A      1.952646   302A      1.956327  
     303A      1.958728   304A      1.967545   305A      1.970333  
     306A      1.978064   307A      1.991201   308A      2.002937  
     309A      2.005225   310A      2.055920   311A      2.106699  
     312A      2.112075   313A      2.121315   314A      2.161039  
     315A      2.178302   316A      2.185367   317A      2.280961  
     318A      2.742352   319A      2.757543   320A      2.767277  
     321A      2.774570   322A      2.783553   323A      2.792812  
     324A      2.804032   325A      2.819938   326A      2.826923  
     327A      2.842811   328A      2.848346   329A      2.869209  
     330A      2.883867   331A      2.886752   332A      2.888671  
     333A      2.894174   334A      2.911167   335A      2.931124  
     336A      2.933052   337A      2.942386   338A      2.953774  
     339A      2.959235   340A      2.965484   341A      2.970013  
     342A      2.971766   343A      2.985971   344A      2.999318  
     345A      3.017379   346A      3.053809   347A      3.058215  
     348A      3.068096   349A      3.079328   350A      3.087329  
     351A      3.099863   352A      3.114214   353A      3.131753  
     354A      3.135070   355A      3.137253   356A      3.151919  
     357A      3.161493   358A      3.162918   359A      3.170861  
     360A      3.178312   361A      3.186748   362A      3.188893  
     363A      3.209969   364A      3.222428   365A      3.229621  
     366A      3.242444   367A      3.252818   368A      3.265406  
     369A      3.272510   370A      3.280397   371A      3.286960  
     372A      3.294106   373A      3.300018   374A      3.307538  
     375A      3.314990   376A      3.333424   377A      3.334211  
     378A      3.338310   379A      3.348671   380A      3.354942  
     381A      3.357518   382A      3.375243   383A      3.377171  
     384A      3.385945   385A      3.392833   386A      3.397461  
     387A      3.408651   388A      3.416643   389A      3.423108  
     390A      3.434185   391A      3.453215   392A      3.456306  
     393A      3.459757   394A      3.468487   395A      3.471991  
     396A      3.477459   397A      3.484901   398A      3.487683  
     399A      3.490355   400A      3.492236   401A      3.499150  
     402A      3.502699   403A      3.505034   404A      3.509356  
     405A      3.524177   406A      3.527830   407A      3.540763  
     408A      3.545565   409A      3.551652   410A      3.555704  
     411A      3.566897   412A      3.571625   413A      3.575612  
     414A      3.576652   415A      3.596471   416A      3.597814  
     417A      3.603308   418A      3.619050   419A      3.625326  
     420A      3.635350   421A      3.642174   422A      3.653482  
     423A      3.665629   424A      3.678309   425A      3.686947  
     426A      3.695442   427A      3.701084   428A      3.706093  
     429A      3.718571   430A      3.733991   431A      3.748496  
     432A      3.753705   433A      3.758354   434A      3.775655  
     435A      3.789310   436A      3.801771   437A      3.806571  
     438A      3.814476   439A      3.822230   440A      3.840183  
     441A      3.849180   442A      3.866482   443A      3.869735  
     444A      3.874062   445A      3.878004   446A      3.887205  
     447A      3.904742   448A      3.914396   449A      3.926591  
     450A      3.932071   451A      3.940448   452A      3.945455  
     453A      3.960769   454A      3.961856   455A      3.969584  
     456A      3.972740   457A      3.976530   458A      3.984685  
     459A      3.996828   460A      4.011607   461A      4.030163  
     462A      4.035421   463A      4.049496   464A      4.057111  
     465A      4.074123   466A      4.100613   467A      4.114620  
     468A      4.130140   469A      4.147440   470A      4.165155  
     471A      4.189800   472A      4.203014   473A      4.212711  
     474A      4.216531   475A      4.224500   476A      4.230949  
     477A      4.237387   478A      4.245018   479A      4.252513  
     480A      4.256403   481A      4.263870   482A      4.268813  
     483A      4.274404   484A      4.289108   485A      4.297827  
     486A      4.307765   487A      4.308260   488A      4.319260  
     489A      4.333116   490A      4.338532   491A      4.344374  
     492A      4.359320   493A      4.372720   494A      4.375665  
     495A      4.379361   496A      4.385555   497A      4.388427  
     498A      4.395332   499A      4.407380   500A      4.413417  
     501A      4.429350   502A      4.430986   503A      4.439688  
     504A      4.445080   505A      4.446822   506A      4.467432  
     507A      4.480322   508A      4.487674   509A      4.489746  
     510A      4.497075   511A      4.505642   512A      4.515061  
     513A      4.519590   514A      4.523156   515A      4.528330  
     516A      4.539077   517A      4.545538   518A      4.553892  
     519A      4.561866   520A      4.568168   521A      4.577951  
     522A      4.584744   523A      4.598462   524A      4.610908  
     525A      4.615049   526A      4.625349   527A      4.627978  
     528A      4.640875   529A      4.648674   530A      4.658180  
     531A      4.668044   532A      4.675704   533A      4.705791  
     534A      4.709783   535A      4.713027   536A      4.716607  
     537A      4.740945   538A      4.763579   539A      4.771516  
     540A      4.783974   541A      4.807074   542A      4.816844  
     543A      4.824912   544A      4.839379   545A      4.852594  
     546A      4.856744   547A      4.866065   548A      4.885893  
     549A      4.897228   550A      4.903034   551A      4.912483  
     552A      4.959167   553A      4.969688   554A      4.972668  
     555A      4.993448   556A      5.012057   557A      5.013941  
     558A      5.045407   559A      5.053508   560A      5.085811  
     561A      5.120715   562A      5.135867   563A      5.144672  
     564A      5.161872   565A      5.186911   566A      5.191132  
     567A      5.195642   568A      5.203425   569A      5.210329  
     570A      5.224448   571A      5.246847   572A      5.268269  
     573A      5.276899   574A      5.284853   575A      5.288705  
     576A      5.293677   577A      5.302361   578A      5.306119  
     579A      5.309525   580A      5.315142   581A      5.335262  
     582A      5.338034   583A      5.358931   584A      5.368557  
     585A      5.389566   586A      5.400238   587A      5.410933  
     588A      5.420957   589A      5.425798   590A      5.432354  
     591A      5.465279   592A      5.483193   593A      5.498794  
     594A      5.507356   595A      5.514809   596A      5.521238  
     597A      5.555333   598A      5.561366   599A      5.588641  
     600A      5.605648   601A      5.634851   602A      5.641008  
     603A      5.660775   604A      5.684017   605A      5.690012  
     606A      5.728066   607A      5.754413   608A      5.767099  
     609A      5.770212   610A      5.772055   611A      5.775685  
     612A      5.785201   613A      5.788887   614A      5.805093  
     615A      5.809741   616A      5.827844   617A      5.829479  
     618A      5.841509   619A      5.898362   620A      5.899312  
     621A      5.920467   622A      5.927674   623A      5.931707  
     624A      5.937964   625A      5.941734   626A      5.948426  
     627A      5.966096   628A      5.979808   629A      5.984874  
     630A      5.993804   631A      6.020700   632A      6.032791  
     633A      6.105560   634A      6.128327   635A      6.174069  
     636A      6.245185   637A      6.290785   638A      6.485304  
     639A      6.513664   640A      6.523832   641A      6.531752  
     642A      6.540280   643A      6.547967   644A      6.550635  
     645A      6.570103   646A      6.582960   647A      6.612715  
     648A      6.651009   649A      6.672392   650A      6.683521  
     651A     13.799842   652A     13.872616   653A     14.010568  
     654A     14.390718   655A     14.488317   656A     14.551072  
     657A     14.604075   658A     14.678609   659A     14.816056  

    Final Occupation by Irrep:
              A 
    DOCC [    38 ]

  @DF-RHF Final Energy:  -353.75554788643399

   => Energetics <=

    Nuclear Repulsion Energy =            481.0342401153982337
    One-Electron Energy =               -1430.0077189070375425
    Two-Electron Energy =                 595.2179309052053213
    Total Energy =                       -353.7555478864339875

Computation Completed


Properties will be evaluated at   0.000000,   0.000000,   0.000000 [a0]

Properties computed using the SCF density matrix

  Nuclear Dipole Moment: [e a0]
     X:     1.2327      Y:    -1.5560      Z:    -0.4850

  Electronic Dipole Moment: [e a0]
     X:    -1.2279      Y:     1.5488      Z:     0.5203

  Dipole Moment: [e a0]
     X:     0.0048      Y:    -0.0072      Z:     0.0352     Total:     0.0363

  Dipole Moment: [D]
     X:     0.0122      Y:    -0.0184      Z:     0.0896     Total:     0.0922


*** tstop() called on r282 at Fri Sep 10 20:45:27 2021
Module time:
	user time   =     169.00 seconds =       2.82 minutes
	system time =       3.77 seconds =       0.06 minutes
	total time  =        173 seconds =       2.88 minutes
Total time:
	user time   =     169.00 seconds =       2.82 minutes
	system time =       3.77 seconds =       0.06 minutes
	total time  =        173 seconds =       2.88 minutes

  //>>>>>>>>>>>>>>>>>>>>>>>>>>>>>>>>>>>//
  //            Monomer A HF           //
  //<<<<<<<<<<<<<<<<<<<<<<<<<<<<<<<<<<<//


*** tstart() called on r282
*** at Fri Sep 10 20:45:27 2021

   => Loading Basis Set <=

    Name: JUN-CC-PVTZ
    Role: ORBITAL
    Keyword: BASIS
    atoms 1-6, 21-23  entry C          line   217 file /home/r08543048/miniconda3/share/psi4/basis/jun-cc-pvtz.gbs 
    atoms 7-20, 24-31 entry H          line    36 file /home/r08543048/miniconda3/share/psi4/basis/jun-cc-pvtz.gbs 


         ---------------------------------------------------------
                                   SCF
               by Justin Turney, Rob Parrish, Andy Simmonett
                          and Daniel G. A. Smith
                              RHF Reference
                        1 Threads,  20980 MiB Core
         ---------------------------------------------------------

  ==> Geometry <==

    Molecular point group: c1
    Full point group: C1

    Geometry (in Angstrom), charge = 0, multiplicity = 1:

       Center              X                  Y                   Z               Mass       
    ------------   -----------------  -----------------  -----------------  -----------------
         C           -1.345689978230     0.656905707870     0.381856818625    12.000000000000
         C           -2.464065978230     0.167776707870    -0.529570181375    12.000000000000
         C           -3.512494978230    -0.642895292130     0.221896818625    12.000000000000
         C           -0.260492978230     1.425371707870    -0.360406181375    12.000000000000
         C            0.859571021770     1.914871707870     0.548956818625    12.000000000000
         C            1.936493021770     2.677542707870    -0.212596181375    12.000000000000
         H           -0.897331978230    -0.201499292130     0.892277818625     1.007825032230
         H           -1.770634978230     1.293842707870     1.164530818625     1.007825032230
         H           -2.034145978230    -0.439692292130    -1.330693181375     1.007825032230
         H           -2.935102978230     1.027876707870    -1.012986181375     1.007825032230
         H           -4.309932978230    -0.982122292130    -0.438819181375     1.007825032230
         H           -3.964884978230    -0.048202292130     1.016574818625     1.007825032230
         H           -3.060390978230    -1.522694292130     0.681973818625     1.007825032230
         H            0.162982021770     0.787319707870    -1.143736181375     1.007825032230
         H           -0.709222978230     2.282563707870    -0.873267181375     1.007825032230
         H            1.306505021770     1.058402707870     1.060984818625     1.007825032230
         H            0.434370021770     2.553931707870     1.327586818625     1.007825032230
         H            2.730497021770     3.022110707870     0.449591818625     1.007825032230
         H            1.512434021770     3.550188707870    -0.711161181375     1.007825032230
         H            2.389644021770     2.046102707870    -0.978146181375     1.007825032230
      Gh(C)           0.448778021770    -2.593200292130    -0.339697181375    12.000000000000
      Gh(C)           1.566744021770    -2.085873292130     0.562759818625    12.000000000000
      Gh(C)           2.660725021770    -1.381100292130    -0.229749181375    12.000000000000
      Gh(H)          -0.000705978230    -1.769696292130    -0.896914181375     1.007825032230
      Gh(H)           0.834419021770    -3.311716292130    -1.064505181375     1.007825032230
      Gh(H)          -0.341260978230    -3.082178292130     0.230561818625     1.007825032230
      Gh(H)           1.996960021770    -2.921647292130     1.118541818625     1.007825032230
      Gh(H)           1.154794021770    -1.400861292130     1.307128818625     1.007825032230
      Gh(H)           3.453679021770    -1.008402292130     0.418589818625     1.007825032230
      Gh(H)           3.110426021770    -2.060887292130    -0.954975181375     1.007825032230
      Gh(H)           2.251809021770    -0.532544292130    -0.780507181375     1.007825032230

  Running in c1 symmetry.

  Rotational constants: A =      0.03798  B =      0.02992  C =      0.01807 [cm^-1]
  Rotational constants: A =   1138.74089  B =    896.84644  C =    541.84120 [MHz]
  Nuclear repulsion =  245.037184556790749

  Charge       = 0
  Multiplicity = 1
  Electrons    = 50
  Nalpha       = 25
  Nbeta        = 25

  ==> Algorithm <==

  SCF Algorithm Type is DF.
  DIIS enabled.
  MOM disabled.
  Fractional occupation disabled.
  Guess Type is SAD.
  Energy threshold   = 1.00e-08
  Density threshold  = 1.00e-08
  Integral threshold = 0.00e+00

  ==> Primary Basis <==

  Basis Set: JUN-CC-PVTZ
    Blend: JUN-CC-PVTZ
    Number of shells: 249
    Number of basis function: 659
    Number of Cartesian functions: 735
    Spherical Harmonics?: true
    Max angular momentum: 3

   => Loading Basis Set <=

    Name: (JUN-CC-PVTZ AUX)
    Role: JKFIT
    Keyword: DF_BASIS_SCF
    atoms 1-6, 21-23  entry C          line   152 file /home/r08543048/miniconda3/share/psi4/basis/jun-cc-pvtz-jkfit.gbs 
    atoms 7-20, 24-31 entry H          line    70 file /home/r08543048/miniconda3/share/psi4/basis/jun-cc-pvtz-jkfit.gbs 

  ==> Pre-Iterations <==

   -------------------------------------------------------
    Irrep   Nso     Nmo     Nalpha   Nbeta   Ndocc  Nsocc
   -------------------------------------------------------
     A        659     659       0       0       0       0
   -------------------------------------------------------
    Total     659     659      25      25      25       0
   -------------------------------------------------------

  ==> Integral Setup <==

  ==> DiskDFJK: Density-Fitted J/K Matrices <==

    J tasked:                  Yes
    K tasked:                  Yes
    wK tasked:                  No
    OpenMP threads:              1
    Integrals threads:           1
    Memory [MiB]:            15735
    Algorithm:                Core
    Integral Cache:           LOAD
    Schwarz Cutoff:          1E-12
    Fitting Condition:       1E-10

   => Auxiliary Basis Set <=

  Basis Set: (JUN-CC-PVTZ AUX)
    Blend: JUN-CC-PVTZ-JKFIT
    Number of shells: 481
    Number of basis function: 1515
    Number of Cartesian functions: 1814
    Spherical Harmonics?: true
    Max angular momentum: 4

  Minimum eigenvalue in the overlap matrix is 2.3421701071E-05.
  Using Symmetric Orthogonalization.

  SCF Guess: Superposition of Atomic Densities via on-the-fly atomic UHF.

  ==> Iterations <==

                           Total Energy        Delta E     RMS |[F,P]|

   @DF-RHF iter SAD:  -234.93174979316112   -2.34932e+02   0.00000e+00 
   @DF-RHF iter   1:  -235.15848589111815   -2.26736e-01   1.03265e-03 DIIS
   @DF-RHF iter   2:  -235.39892880070337   -2.40443e-01   4.63778e-04 DIIS
   @DF-RHF iter   3:  -235.44801261280429   -4.90838e-02   8.39053e-05 DIIS
   @DF-RHF iter   4:  -235.45139054238405   -3.37793e-03   1.48459e-05 DIIS
   @DF-RHF iter   5:  -235.45147380086388   -8.32585e-05   4.96026e-06 DIIS
   @DF-RHF iter   6:  -235.45148251365288   -8.71279e-06   8.12776e-07 DIIS
   @DF-RHF iter   7:  -235.45148280554355   -2.91891e-07   2.22514e-07 DIIS
   @DF-RHF iter   8:  -235.45148282380379   -1.82602e-08   5.21150e-08 DIIS
   @DF-RHF iter   9:  -235.45148282488765   -1.08386e-09   1.30332e-08 DIIS
   @DF-RHF iter  10:  -235.45148282498317   -9.55254e-11   2.61517e-09 DIIS
  Energy and wave function converged.


  ==> Post-Iterations <==

    Orbital Energies [Eh]
    ---------------------

    Doubly Occupied:                                                      

       1A    -11.212750     2A    -11.212674     3A    -11.210652  
       4A    -11.210024     5A    -11.207171     6A    -11.207140  
       7A     -1.086610     8A     -1.037372     9A     -0.961053  
      10A     -0.870815    11A     -0.797001    12A     -0.784264  
      13A     -0.652047    14A     -0.610287    15A     -0.595267  
      16A     -0.577301    17A     -0.552653    18A     -0.527696  
      19A     -0.524867    20A     -0.498835    21A     -0.480306  
      22A     -0.466547    23A     -0.459419    24A     -0.458029  
      25A     -0.438032  

    Virtual:                                                              

      26A      0.033812    27A      0.045774    28A      0.048623  
      29A      0.052920    30A      0.063443    31A      0.066105  
      32A      0.070901    33A      0.073878    34A      0.082702  
      35A      0.094124    36A      0.096022    37A      0.100033  
      38A      0.105204    39A      0.108043    40A      0.108065  
      41A      0.117136    42A      0.121857    43A      0.126236  
      44A      0.131115    45A      0.136909    46A      0.146072  
      47A      0.148735    48A      0.153272    49A      0.158023  
      50A      0.161238    51A      0.165423    52A      0.172541  
      53A      0.187910    54A      0.190342    55A      0.193048  
      56A      0.197143    57A      0.203985    58A      0.212831  
      59A      0.216875    60A      0.228931    61A      0.230580  
      62A      0.243461    63A      0.251737    64A      0.256195  
      65A      0.265917    66A      0.273030    67A      0.279063  
      68A      0.281886    69A      0.289149    70A      0.289782  
      71A      0.303459    72A      0.304642    73A      0.305693  
      74A      0.314222    75A      0.321010    76A      0.325356  
      77A      0.331034    78A      0.331802    79A      0.338782  
      80A      0.340492    81A      0.342664    82A      0.351331  
      83A      0.361392    84A      0.362483    85A      0.365706  
      86A      0.372194    87A      0.372684    88A      0.377076  
      89A      0.382316    90A      0.387921    91A      0.395170  
      92A      0.396243    93A      0.403797    94A      0.406991  
      95A      0.411369    96A      0.418084    97A      0.421586  
      98A      0.436194    99A      0.437145   100A      0.445573  
     101A      0.447252   102A      0.455302   103A      0.459520  
     104A      0.460722   105A      0.466734   106A      0.475850  
     107A      0.481600   108A      0.487102   109A      0.496932  
     110A      0.501252   111A      0.509333   112A      0.523837  
     113A      0.528488   114A      0.530186   115A      0.532713  
     116A      0.541139   117A      0.542799   118A      0.556762  
     119A      0.558713   120A      0.563491   121A      0.573614  
     122A      0.578250   123A      0.580676   124A      0.588645  
     125A      0.596989   126A      0.602474   127A      0.604198  
     128A      0.618664   129A      0.624898   130A      0.627085  
     131A      0.634212   132A      0.638376   133A      0.640892  
     134A      0.645667   135A      0.650825   136A      0.662195  
     137A      0.665214   138A      0.665642   139A      0.674458  
     140A      0.677650   141A      0.691173   142A      0.696118  
     143A      0.702853   144A      0.717110   145A      0.731682  
     146A      0.739488   147A      0.746169   148A      0.757858  
     149A      0.764944   150A      0.775465   151A      0.780657  
     152A      0.788587   153A      0.799446   154A      0.806364  
     155A      0.812621   156A      0.820449   157A      0.823648  
     158A      0.839012   159A      0.844852   160A      0.849958  
     161A      0.853847   162A      0.866299   163A      0.870249  
     164A      0.875550   165A      0.888667   166A      0.893108  
     167A      0.907172   168A      0.921513   169A      0.931853  
     170A      0.936101   171A      0.937334   172A      0.949131  
     173A      0.966853   174A      0.971737   175A      0.994458  
     176A      0.999179   177A      1.007571   178A      1.014323  
     179A      1.026412   180A      1.043819   181A      1.057433  
     182A      1.064176   183A      1.071870   184A      1.079579  
     185A      1.086947   186A      1.100382   187A      1.127385  
     188A      1.140876   189A      1.150066   190A      1.152707  
     191A      1.162216   192A      1.172726   193A      1.181896  
     194A      1.185170   195A      1.191434   196A      1.197919  
     197A      1.202212   198A      1.224245   199A      1.226940  
     200A      1.232288   201A      1.237887   202A      1.241214  
     203A      1.247287   204A      1.260852   205A      1.273872  
     206A      1.284244   207A      1.288095   208A      1.298753  
     209A      1.304038   210A      1.306078   211A      1.317156  
     212A      1.318797   213A      1.327205   214A      1.337147  
     215A      1.349560   216A      1.357909   217A      1.376861  
     218A      1.379041   219A      1.382592   220A      1.393870  
     221A      1.401482   222A      1.403113   223A      1.405094  
     224A      1.414814   225A      1.421371   226A      1.428177  
     227A      1.433935   228A      1.446908   229A      1.452420  
     230A      1.455562   231A      1.461576   232A      1.468831  
     233A      1.471680   234A      1.482716   235A      1.488110  
     236A      1.499797   237A      1.500673   238A      1.515065  
     239A      1.519973   240A      1.531803   241A      1.533202  
     242A      1.544173   243A      1.552437   244A      1.558380  
     245A      1.571106   246A      1.579805   247A      1.585332  
     248A      1.589211   249A      1.590546   250A      1.601139  
     251A      1.606278   252A      1.611349   253A      1.615564  
     254A      1.624958   255A      1.627033   256A      1.647948  
     257A      1.656013   258A      1.671505   259A      1.676854  
     260A      1.689608   261A      1.693491   262A      1.695877  
     263A      1.705928   264A      1.720504   265A      1.732983  
     266A      1.736133   267A      1.741819   268A      1.750414  
     269A      1.761164   270A      1.769823   271A      1.784873  
     272A      1.788382   273A      1.803556   274A      1.824802  
     275A      1.831893   276A      1.842476   277A      1.851271  
     278A      1.856746   279A      1.865305   280A      1.878448  
     281A      1.891650   282A      1.903745   283A      1.914234  
     284A      1.932398   285A      1.939066   286A      1.946885  
     287A      1.959829   288A      1.970983   289A      1.977828  
     290A      1.985392   291A      1.994731   292A      2.009713  
     293A      2.043747   294A      2.066236   295A      2.099782  
     296A      2.118076   297A      2.125943   298A      2.128692  
     299A      2.157212   300A      2.164462   301A      2.180428  
     302A      2.191588   303A      2.208256   304A      2.232634  
     305A      2.279123   306A      2.353589   307A      2.408489  
     308A      2.430236   309A      2.462091   310A      2.466690  
     311A      2.501465   312A      2.570490   313A      2.618961  
     314A      2.629022   315A      2.763549   316A      2.777366  
     317A      2.802034   318A      2.811061   319A      2.841748  
     320A      2.858300   321A      2.876473   322A      2.879625  
     323A      2.892644   324A      2.911436   325A      2.931457  
     326A      2.936777   327A      2.945455   328A      2.954061  
     329A      2.963884   330A      2.975115   331A      2.998110  
     332A      3.050460   333A      3.066299   334A      3.083879  
     335A      3.111770   336A      3.122704   337A      3.132086  
     338A      3.137833   339A      3.163800   340A      3.167590  
     341A      3.172472   342A      3.191098   343A      3.202770  
     344A      3.229352   345A      3.230870   346A      3.257361  
     347A      3.266348   348A      3.274468   349A      3.297686  
     350A      3.302071   351A      3.306442   352A      3.330870  
     353A      3.340375   354A      3.349436   355A      3.359003  
     356A      3.361742   357A      3.381249   358A      3.410317  
     359A      3.418430   360A      3.422843   361A      3.432598  
     362A      3.441682   363A      3.453977   364A      3.467684  
     365A      3.471186   366A      3.479604   367A      3.482844  
     368A      3.485801   369A      3.490570   370A      3.496744  
     371A      3.509401   372A      3.510546   373A      3.513271  
     374A      3.518845   375A      3.535089   376A      3.543054  
     377A      3.553433   378A      3.558692   379A      3.567681  
     380A      3.579901   381A      3.587189   382A      3.589108  
     383A      3.597518   384A      3.611097   385A      3.615400  
     386A      3.623738   387A      3.626928   388A      3.635216  
     389A      3.645965   390A      3.656527   391A      3.657765  
     392A      3.676658   393A      3.688480   394A      3.691627  
     395A      3.693777   396A      3.710520   397A      3.714848  
     398A      3.735506   399A      3.743466   400A      3.746090  
     401A      3.753915   402A      3.772880   403A      3.785117  
     404A      3.797037   405A      3.806172   406A      3.816018  
     407A      3.825148   408A      3.832665   409A      3.840890  
     410A      3.845117   411A      3.871822   412A      3.880016  
     413A      3.884380   414A      3.894204   415A      3.903953  
     416A      3.910539   417A      3.922612   418A      3.929838  
     419A      3.937917   420A      3.944997   421A      3.948700  
     422A      3.956496   423A      3.965656   424A      3.967553  
     425A      3.978772   426A      3.984814   427A      4.001960  
     428A      4.018316   429A      4.027983   430A      4.034130  
     431A      4.035853   432A      4.051641   433A      4.080512  
     434A      4.090716   435A      4.112760   436A      4.126513  
     437A      4.136908   438A      4.163626   439A      4.178297  
     440A      4.185852   441A      4.194365   442A      4.198541  
     443A      4.206409   444A      4.217198   445A      4.229324  
     446A      4.236604   447A      4.242468   448A      4.252791  
     449A      4.257275   450A      4.265221   451A      4.274004  
     452A      4.291556   453A      4.297807   454A      4.299191  
     455A      4.312568   456A      4.324767   457A      4.334866  
     458A      4.356811   459A      4.364899   460A      4.369737  
     461A      4.377317   462A      4.388649   463A      4.393046  
     464A      4.398701   465A      4.402394   466A      4.414956  
     467A      4.428448   468A      4.431930   469A      4.442145  
     470A      4.462983   471A      4.466169   472A      4.478512  
     473A      4.480400   474A      4.486942   475A      4.494160  
     476A      4.500076   477A      4.501699   478A      4.514318  
     479A      4.515314   480A      4.520115   481A      4.529894  
     482A      4.536638   483A      4.543912   484A      4.551590  
     485A      4.557771   486A      4.562346   487A      4.577669  
     488A      4.589561   489A      4.603782   490A      4.609714  
     491A      4.619585   492A      4.623308   493A      4.625343  
     494A      4.636855   495A      4.637949   496A      4.649356  
     497A      4.660112   498A      4.670534   499A      4.673327  
     500A      4.685640   501A      4.694412   502A      4.711050  
     503A      4.721135   504A      4.730879   505A      4.742702  
     506A      4.750545   507A      4.756300   508A      4.760695  
     509A      4.783550   510A      4.800461   511A      4.815275  
     512A      4.825628   513A      4.830433   514A      4.833558  
     515A      4.837370   516A      4.838746   517A      4.854212  
     518A      4.860769   519A      4.874847   520A      4.882154  
     521A      4.891451   522A      4.893332   523A      4.921093  
     524A      4.931670   525A      4.939389   526A      4.953493  
     527A      4.955493   528A      4.961837   529A      4.967942  
     530A      4.974575   531A      4.987233   532A      4.995438  
     533A      5.010194   534A      5.018720   535A      5.023366  
     536A      5.038410   537A      5.044261   538A      5.059741  
     539A      5.061450   540A      5.089361   541A      5.098930  
     542A      5.110348   543A      5.138714   544A      5.143470  
     545A      5.154224   546A      5.171954   547A      5.189114  
     548A      5.191530   549A      5.198296   550A      5.210015  
     551A      5.222176   552A      5.228726   553A      5.233245  
     554A      5.257113   555A      5.288111   556A      5.297134  
     557A      5.300897   558A      5.305107   559A      5.314459  
     560A      5.329706   561A      5.336634   562A      5.349021  
     563A      5.364832   564A      5.401561   565A      5.406424  
     566A      5.417430   567A      5.419051   568A      5.428239  
     569A      5.434072   570A      5.450033   571A      5.488126  
     572A      5.505555   573A      5.514601   574A      5.523758  
     575A      5.555237   576A      5.561050   577A      5.602408  
     578A      5.613532   579A      5.628495   580A      5.633000  
     581A      5.638290   582A      5.642639   583A      5.645766  
     584A      5.662508   585A      5.686547   586A      5.691659  
     587A      5.767465   588A      5.774274   589A      5.774868  
     590A      5.788724   591A      5.809279   592A      5.829907  
     593A      5.840249   594A      5.893930   595A      5.899563  
     596A      5.918429   597A      5.929434   598A      5.933056  
     599A      5.935090   600A      5.941539   601A      5.963541  
     602A      5.972651   603A      5.982976   604A      6.009135  
     605A      6.019059   606A      6.021240   607A      6.074956  
     608A      6.104988   609A      6.172261   610A      6.194642  
     611A      6.208931   612A      6.243828   613A      6.258811  
     614A      6.291641   615A      6.343312   616A      6.376392  
     617A      6.396941   618A      6.430010   619A      6.459676  
     620A      6.500911   621A      6.504017   622A      6.519906  
     623A      6.529704   624A      6.533862   625A      6.542282  
     626A      6.588825   627A      6.631994   628A      6.645523  
     629A      6.672857   630A      6.681676   631A      6.768099  
     632A      6.903402   633A      6.996264   634A      7.303189  
     635A      7.492075   636A      7.568418   637A      7.599101  
     638A      7.649022   639A      7.700491   640A      7.701289  
     641A      7.808676   642A      7.831604   643A      7.866065  
     644A      7.910621   645A      8.056255   646A      8.232958  
     647A      8.531870   648A      9.566143   649A      9.916432  
     650A      9.950261   651A     13.849752   652A     14.020517  
     653A     14.396381   654A     14.535451   655A     14.556886  
     656A     14.674921   657A     44.331553   658A     45.470064  
     659A     46.028060  

    Final Occupation by Irrep:
              A 
    DOCC [    25 ]

  @DF-RHF Final Energy:  -235.45148282498317

   => Energetics <=

    Nuclear Repulsion Energy =            245.0371845567907485
    One-Electron Energy =                -801.6997136502011472
    Two-Electron Energy =                 321.2110462684271965
    Total Energy =                       -235.4514828249832021

Computation Completed


Properties will be evaluated at   0.000000,   0.000000,   0.000000 [a0]

Properties computed using the SCF density matrix

  Nuclear Dipole Moment: [e a0]
     X:   -75.3345      Y:    97.5582      Z:     0.7664

  Electronic Dipole Moment: [e a0]
     X:    75.3338      Y:   -97.5571      Z:    -0.7661

  Dipole Moment: [e a0]
     X:    -0.0006      Y:     0.0011      Z:     0.0003     Total:     0.0013

  Dipole Moment: [D]
     X:    -0.0016      Y:     0.0028      Z:     0.0007     Total:     0.0034


*** tstop() called on r282 at Fri Sep 10 20:47:12 2021
Module time:
	user time   =     103.45 seconds =       1.72 minutes
	system time =       1.43 seconds =       0.02 minutes
	total time  =        105 seconds =       1.75 minutes
Total time:
	user time   =     272.45 seconds =       4.54 minutes
	system time =       5.20 seconds =       0.09 minutes
	total time  =        278 seconds =       4.63 minutes

  //>>>>>>>>>>>>>>>>>>>>>>>>>>>>>>>>>>>//
  //            Monomer B HF           //
  //<<<<<<<<<<<<<<<<<<<<<<<<<<<<<<<<<<<//


*** tstart() called on r282
*** at Fri Sep 10 20:47:12 2021

   => Loading Basis Set <=

    Name: JUN-CC-PVTZ
    Role: ORBITAL
    Keyword: BASIS
    atoms 1-6, 21-23  entry C          line   217 file /home/r08543048/miniconda3/share/psi4/basis/jun-cc-pvtz.gbs 
    atoms 7-20, 24-31 entry H          line    36 file /home/r08543048/miniconda3/share/psi4/basis/jun-cc-pvtz.gbs 


         ---------------------------------------------------------
                                   SCF
               by Justin Turney, Rob Parrish, Andy Simmonett
                          and Daniel G. A. Smith
                              RHF Reference
                        1 Threads,  20980 MiB Core
         ---------------------------------------------------------

  ==> Geometry <==

    Molecular point group: c1
    Full point group: C1

    Geometry (in Angstrom), charge = 0, multiplicity = 1:

       Center              X                  Y                   Z               Mass       
    ------------   -----------------  -----------------  -----------------  -----------------
      Gh(C)          -1.345689978230     0.656905707870     0.381856818625    12.000000000000
      Gh(C)          -2.464065978230     0.167776707870    -0.529570181375    12.000000000000
      Gh(C)          -3.512494978230    -0.642895292130     0.221896818625    12.000000000000
      Gh(C)          -0.260492978230     1.425371707870    -0.360406181375    12.000000000000
      Gh(C)           0.859571021770     1.914871707870     0.548956818625    12.000000000000
      Gh(C)           1.936493021770     2.677542707870    -0.212596181375    12.000000000000
      Gh(H)          -0.897331978230    -0.201499292130     0.892277818625     1.007825032230
      Gh(H)          -1.770634978230     1.293842707870     1.164530818625     1.007825032230
      Gh(H)          -2.034145978230    -0.439692292130    -1.330693181375     1.007825032230
      Gh(H)          -2.935102978230     1.027876707870    -1.012986181375     1.007825032230
      Gh(H)          -4.309932978230    -0.982122292130    -0.438819181375     1.007825032230
      Gh(H)          -3.964884978230    -0.048202292130     1.016574818625     1.007825032230
      Gh(H)          -3.060390978230    -1.522694292130     0.681973818625     1.007825032230
      Gh(H)           0.162982021770     0.787319707870    -1.143736181375     1.007825032230
      Gh(H)          -0.709222978230     2.282563707870    -0.873267181375     1.007825032230
      Gh(H)           1.306505021770     1.058402707870     1.060984818625     1.007825032230
      Gh(H)           0.434370021770     2.553931707870     1.327586818625     1.007825032230
      Gh(H)           2.730497021770     3.022110707870     0.449591818625     1.007825032230
      Gh(H)           1.512434021770     3.550188707870    -0.711161181375     1.007825032230
      Gh(H)           2.389644021770     2.046102707870    -0.978146181375     1.007825032230
         C            0.448778021770    -2.593200292130    -0.339697181375    12.000000000000
         C            1.566744021770    -2.085873292130     0.562759818625    12.000000000000
         C            2.660725021770    -1.381100292130    -0.229749181375    12.000000000000
         H           -0.000705978230    -1.769696292130    -0.896914181375     1.007825032230
         H            0.834419021770    -3.311716292130    -1.064505181375     1.007825032230
         H           -0.341260978230    -3.082178292130     0.230561818625     1.007825032230
         H            1.996960021770    -2.921647292130     1.118541818625     1.007825032230
         H            1.154794021770    -1.400861292130     1.307128818625     1.007825032230
         H            3.453679021770    -1.008402292130     0.418589818625     1.007825032230
         H            3.110426021770    -2.060887292130    -0.954975181375     1.007825032230
         H            2.251809021770    -0.532544292130    -0.780507181375     1.007825032230

  Running in c1 symmetry.

  Rotational constants: A =      0.03798  B =      0.02992  C =      0.01807 [cm^-1]
  Rotational constants: A =   1138.74089  B =    896.84644  C =    541.84120 [MHz]
  Nuclear repulsion =   82.824405943558418

  Charge       = 0
  Multiplicity = 1
  Electrons    = 26
  Nalpha       = 13
  Nbeta        = 13

  ==> Algorithm <==

  SCF Algorithm Type is DF.
  DIIS enabled.
  MOM disabled.
  Fractional occupation disabled.
  Guess Type is SAD.
  Energy threshold   = 1.00e-08
  Density threshold  = 1.00e-08
  Integral threshold = 0.00e+00

  ==> Primary Basis <==

  Basis Set: JUN-CC-PVTZ
    Blend: JUN-CC-PVTZ
    Number of shells: 249
    Number of basis function: 659
    Number of Cartesian functions: 735
    Spherical Harmonics?: true
    Max angular momentum: 3

   => Loading Basis Set <=

    Name: (JUN-CC-PVTZ AUX)
    Role: JKFIT
    Keyword: DF_BASIS_SCF
    atoms 1-6, 21-23  entry C          line   152 file /home/r08543048/miniconda3/share/psi4/basis/jun-cc-pvtz-jkfit.gbs 
    atoms 7-20, 24-31 entry H          line    70 file /home/r08543048/miniconda3/share/psi4/basis/jun-cc-pvtz-jkfit.gbs 

  ==> Pre-Iterations <==

   -------------------------------------------------------
    Irrep   Nso     Nmo     Nalpha   Nbeta   Ndocc  Nsocc
   -------------------------------------------------------
     A        659     659       0       0       0       0
   -------------------------------------------------------
    Total     659     659      13      13      13       0
   -------------------------------------------------------

  ==> Integral Setup <==

  ==> DiskDFJK: Density-Fitted J/K Matrices <==

    J tasked:                  Yes
    K tasked:                  Yes
    wK tasked:                  No
    OpenMP threads:              1
    Integrals threads:           1
    Memory [MiB]:            15735
    Algorithm:                Core
    Integral Cache:           LOAD
    Schwarz Cutoff:          1E-12
    Fitting Condition:       1E-10

   => Auxiliary Basis Set <=

  Basis Set: (JUN-CC-PVTZ AUX)
    Blend: JUN-CC-PVTZ-JKFIT
    Number of shells: 481
    Number of basis function: 1515
    Number of Cartesian functions: 1814
    Spherical Harmonics?: true
    Max angular momentum: 4

  Minimum eigenvalue in the overlap matrix is 2.3421701071E-05.
  Using Symmetric Orthogonalization.

  SCF Guess: Superposition of Atomic Densities via on-the-fly atomic UHF.

  ==> Iterations <==

                           Total Energy        Delta E     RMS |[F,P]|

   @DF-RHF iter SAD:  -117.72591770258990   -1.17726e+02   0.00000e+00 
   @DF-RHF iter   1:  -118.14635677868489   -4.20439e-01   7.82094e-04 DIIS
   @DF-RHF iter   2:  -118.27572468448339   -1.29368e-01   3.70151e-04 DIIS
   @DF-RHF iter   3:  -118.30616809186851   -3.04434e-02   6.21792e-05 DIIS
   @DF-RHF iter   4:  -118.30802072161984   -1.85263e-03   1.22618e-05 DIIS
   @DF-RHF iter   5:  -118.30807907163694   -5.83500e-05   3.44858e-06 DIIS
   @DF-RHF iter   6:  -118.30808369273669   -4.62110e-06   6.19554e-07 DIIS
   @DF-RHF iter   7:  -118.30808386438899   -1.71652e-07   1.16873e-07 DIIS
   @DF-RHF iter   8:  -118.30808387191775   -7.52875e-09   2.05156e-08 DIIS
   @DF-RHF iter   9:  -118.30808387215460   -2.36852e-10   4.04366e-09 DIIS
  Energy and wave function converged.


  ==> Post-Iterations <==

    Orbital Energies [Eh]
    ---------------------

    Doubly Occupied:                                                      

       1A    -11.215627     2A    -11.207910     3A    -11.207859  
       4A     -1.054073     5A     -0.924665     6A     -0.799861  
       7A     -0.624733     8A     -0.598362     9A     -0.549118  
      10A     -0.530161    11A     -0.475675    12A     -0.474875  
      13A     -0.467995  

    Virtual:                                                              

      14A      0.027676    15A      0.037341    16A      0.046351  
      17A      0.054531    18A      0.059674    19A      0.065345  
      20A      0.068254    21A      0.072275    22A      0.080809  
      23A      0.089400    24A      0.094411    25A      0.099759  
      26A      0.101576    27A      0.104381    28A      0.111293  
      29A      0.115027    30A      0.117840    31A      0.125350  
      32A      0.127054    33A      0.134895    34A      0.141509  
      35A      0.146855    36A      0.150181    37A      0.150605  
      38A      0.152043    39A      0.159573    40A      0.163609  
      41A      0.168701    42A      0.173553    43A      0.186965  
      44A      0.192306    45A      0.197261    46A      0.200362  
      47A      0.203867    48A      0.211096    49A      0.217983  
      50A      0.246353    51A      0.252002    52A      0.253327  
      53A      0.260591    54A      0.275155    55A      0.278529  
      56A      0.284252    57A      0.288846    58A      0.298153  
      59A      0.301165    60A      0.307175    61A      0.310670  
      62A      0.317246    63A      0.320169    64A      0.326271  
      65A      0.329457    66A      0.331991    67A      0.338287  
      68A      0.342992    69A      0.344411    70A      0.348884  
      71A      0.350967    72A      0.359030    73A      0.361172  
      74A      0.363614    75A      0.366582    76A      0.373737  
      77A      0.378420    78A      0.384562    79A      0.386832  
      80A      0.393841    81A      0.399712    82A      0.400513  
      83A      0.406535    84A      0.412966    85A      0.421710  
      86A      0.431650    87A      0.433968    88A      0.444420  
      89A      0.447182    90A      0.452598    91A      0.454461  
      92A      0.465874    93A      0.473628    94A      0.478347  
      95A      0.487707    96A      0.494939    97A      0.498253  
      98A      0.514799    99A      0.521805   100A      0.525855  
     101A      0.529311   102A      0.537921   103A      0.543053  
     104A      0.546766   105A      0.551380   106A      0.555846  
     107A      0.561910   108A      0.571040   109A      0.579247  
     110A      0.582105   111A      0.590082   112A      0.595880  
     113A      0.602233   114A      0.607786   115A      0.615806  
     116A      0.628941   117A      0.633471   118A      0.635796  
     119A      0.645129   120A      0.651265   121A      0.652158  
     122A      0.660537   123A      0.665255   124A      0.666934  
     125A      0.668706   126A      0.675952   127A      0.685183  
     128A      0.687660   129A      0.692591   130A      0.705334  
     131A      0.709882   132A      0.716718   133A      0.722920  
     134A      0.734456   135A      0.746198   136A      0.750816  
     137A      0.765432   138A      0.768122   139A      0.778047  
     140A      0.779093   141A      0.792352   142A      0.800514  
     143A      0.804983   144A      0.808740   145A      0.816081  
     146A      0.827428   147A      0.838453   148A      0.841112  
     149A      0.860951   150A      0.868180   151A      0.879735  
     152A      0.884983   153A      0.896434   154A      0.901025  
     155A      0.910743   156A      0.929081   157A      0.943376  
     158A      0.954938   159A      0.978912   160A      0.985514  
     161A      1.002284   162A      1.005557   163A      1.041555  
     164A      1.062728   165A      1.071607   166A      1.075946  
     167A      1.088595   168A      1.108710   169A      1.133361  
     170A      1.137160   171A      1.143801   172A      1.147970  
     173A      1.165852   174A      1.169388   175A      1.181620  
     176A      1.185653   177A      1.194625   178A      1.204143  
     179A      1.209857   180A      1.210964   181A      1.223413  
     182A      1.232342   183A      1.235949   184A      1.246830  
     185A      1.250948   186A      1.260468   187A      1.267670  
     188A      1.274319   189A      1.283236   190A      1.294370  
     191A      1.296409   192A      1.303803   193A      1.306561  
     194A      1.313529   195A      1.320645   196A      1.326338  
     197A      1.333818   198A      1.343696   199A      1.350032  
     200A      1.356389   201A      1.362768   202A      1.370103  
     203A      1.377031   204A      1.380214   205A      1.383105  
     206A      1.388368   207A      1.391088   208A      1.395177  
     209A      1.408457   210A      1.408900   211A      1.419092  
     212A      1.425925   213A      1.437050   214A      1.439919  
     215A      1.442301   216A      1.455619   217A      1.464819  
     218A      1.468266   219A      1.474856   220A      1.479637  
     221A      1.489863   222A      1.499003   223A      1.509459  
     224A      1.512175   225A      1.515576   226A      1.536603  
     227A      1.546986   228A      1.550724   229A      1.555554  
     230A      1.556824   231A      1.572680   232A      1.577892  
     233A      1.581233   234A      1.589353   235A      1.592089  
     236A      1.601044   237A      1.611077   238A      1.614283  
     239A      1.617363   240A      1.621867   241A      1.637517  
     242A      1.641340   243A      1.653863   244A      1.663659  
     245A      1.671112   246A      1.673906   247A      1.676005  
     248A      1.688690   249A      1.693380   250A      1.706077  
     251A      1.719288   252A      1.724837   253A      1.731910  
     254A      1.749088   255A      1.763087   256A      1.776228  
     257A      1.786184   258A      1.801894   259A      1.811589  
     260A      1.819435   261A      1.837141   262A      1.844862  
     263A      1.855139   264A      1.870092   265A      1.876839  
     266A      1.891460   267A      1.908405   268A      1.920292  
     269A      1.932215   270A      1.944236   271A      1.950931  
     272A      1.953435   273A      1.964028   274A      1.974419  
     275A      1.983412   276A      1.989943   277A      1.998253  
     278A      2.013401   279A      2.041463   280A      2.045023  
     281A      2.081638   282A      2.099935   283A      2.127758  
     284A      2.140497   285A      2.161019   286A      2.183487  
     287A      2.215885   288A      2.251543   289A      2.261671  
     290A      2.266977   291A      2.290045   292A      2.316512  
     293A      2.335077   294A      2.361489   295A      2.382236  
     296A      2.392942   297A      2.433351   298A      2.439712  
     299A      2.471250   300A      2.472782   301A      2.478677  
     302A      2.485413   303A      2.494670   304A      2.520238  
     305A      2.565878   306A      2.644488   307A      2.693096  
     308A      2.704041   309A      2.734358   310A      2.750472  
     311A      2.771944   312A      2.779722   313A      2.793274  
     314A      2.840850   315A      2.848709   316A      2.865400  
     317A      2.896918   318A      2.924032   319A      2.947811  
     320A      2.983517   321A      2.995015   322A      3.032121  
     323A      3.058582   324A      3.100628   325A      3.108737  
     326A      3.161047   327A      3.179507   328A      3.217261  
     329A      3.260557   330A      3.266246   331A      3.290075  
     332A      3.303581   333A      3.331238   334A      3.339433  
     335A      3.382547   336A      3.388851   337A      3.399059  
     338A      3.427966   339A      3.455020   340A      3.482899  
     341A      3.484666   342A      3.497475   343A      3.507795  
     344A      3.513218   345A      3.538359   346A      3.539339  
     347A      3.548136   348A      3.555372   349A      3.559611  
     350A      3.567591   351A      3.574564   352A      3.575426  
     353A      3.580431   354A      3.588473   355A      3.590586  
     356A      3.597014   357A      3.602852   358A      3.609966  
     359A      3.613377   360A      3.630534   361A      3.636709  
     362A      3.643697   363A      3.660392   364A      3.662929  
     365A      3.680897   366A      3.707752   367A      3.724413  
     368A      3.730912   369A      3.740850   370A      3.752973  
     371A      3.768501   372A      3.773699   373A      3.786540  
     374A      3.800158   375A      3.803992   376A      3.814110  
     377A      3.827853   378A      3.828787   379A      3.833432  
     380A      3.842932   381A      3.848879   382A      3.860704  
     383A      3.864113   384A      3.869226   385A      3.880150  
     386A      3.882246   387A      3.895415   388A      3.903304  
     389A      3.911647   390A      3.920213   391A      3.921565  
     392A      3.926177   393A      3.931029   394A      3.945983  
     395A      3.951426   396A      3.957937   397A      3.972251  
     398A      3.975179   399A      3.979891   400A      3.993438  
     401A      4.008180   402A      4.026133   403A      4.050278  
     404A      4.061841   405A      4.080630   406A      4.097385  
     407A      4.110321   408A      4.114996   409A      4.121303  
     410A      4.146572   411A      4.163407   412A      4.173044  
     413A      4.175148   414A      4.189483   415A      4.207362  
     416A      4.212981   417A      4.222942   418A      4.235494  
     419A      4.242824   420A      4.248396   421A      4.249348  
     422A      4.268461   423A      4.276626   424A      4.316958  
     425A      4.318368   426A      4.331161   427A      4.333910  
     428A      4.338758   429A      4.344656   430A      4.355739  
     431A      4.370381   432A      4.378536   433A      4.388415  
     434A      4.394837   435A      4.400926   436A      4.405341  
     437A      4.418504   438A      4.429126   439A      4.434502  
     440A      4.473553   441A      4.478669   442A      4.480729  
     443A      4.490624   444A      4.501080   445A      4.510215  
     446A      4.510654   447A      4.516499   448A      4.529267  
     449A      4.534915   450A      4.543025   451A      4.550188  
     452A      4.558211   453A      4.562229   454A      4.568061  
     455A      4.575398   456A      4.581700   457A      4.589443  
     458A      4.593997   459A      4.602734   460A      4.609097  
     461A      4.633546   462A      4.642209   463A      4.652723  
     464A      4.660245   465A      4.667667   466A      4.672308  
     467A      4.679156   468A      4.684480   469A      4.694730  
     470A      4.697938   471A      4.707150   472A      4.714409  
     473A      4.717618   474A      4.726675   475A      4.738429  
     476A      4.748588   477A      4.753627   478A      4.761594  
     479A      4.775075   480A      4.777778   481A      4.782745  
     482A      4.794053   483A      4.802708   484A      4.811397  
     485A      4.813844   486A      4.824175   487A      4.831980  
     488A      4.842226   489A      4.845409   490A      4.849798  
     491A      4.854312   492A      4.858073   493A      4.863991  
     494A      4.875551   495A      4.885738   496A      4.894800  
     497A      4.896086   498A      4.901652   499A      4.910886  
     500A      4.923349   501A      4.928928   502A      4.933390  
     503A      4.938498   504A      4.946555   505A      4.959240  
     506A      4.973895   507A      4.981911   508A      4.986394  
     509A      4.991887   510A      4.996861   511A      5.001821  
     512A      5.009351   513A      5.022033   514A      5.031690  
     515A      5.040538   516A      5.041718   517A      5.054448  
     518A      5.066815   519A      5.081424   520A      5.093517  
     521A      5.110662   522A      5.116847   523A      5.128095  
     524A      5.140797   525A      5.165816   526A      5.180028  
     527A      5.185971   528A      5.204561   529A      5.212152  
     530A      5.219788   531A      5.234212   532A      5.255363  
     533A      5.267312   534A      5.273931   535A      5.278342  
     536A      5.287836   537A      5.298386   538A      5.304576  
     539A      5.315884   540A      5.320718   541A      5.365073  
     542A      5.365776   543A      5.386188   544A      5.391773  
     545A      5.408653   546A      5.435663   547A      5.451494  
     548A      5.471783   549A      5.483001   550A      5.500823  
     551A      5.513170   552A      5.516724   553A      5.556619  
     554A      5.576462   555A      5.579308   556A      5.591160  
     557A      5.608513   558A      5.626946   559A      5.647947  
     560A      5.651775   561A      5.685766   562A      5.697566  
     563A      5.731089   564A      5.744489   565A      5.756096  
     566A      5.765973   567A      5.776034   568A      5.785329  
     569A      5.802038   570A      5.809974   571A      5.831772  
     572A      5.834881   573A      5.856984   574A      5.891968  
     575A      5.900017   576A      5.926675   577A      5.934511  
     578A      5.946685   579A      5.951178   580A      5.986039  
     581A      5.995738   582A      6.002490   583A      6.036616  
     584A      6.046398   585A      6.060154   586A      6.070281  
     587A      6.107121   588A      6.126179   589A      6.130159  
     590A      6.176777   591A      6.256702   592A      6.309929  
     593A      6.340697   594A      6.355494   595A      6.359540  
     596A      6.391291   597A      6.396583   598A      6.405207  
     599A      6.446033   600A      6.478275   601A      6.488371  
     602A      6.490728   603A      6.528236   604A      6.543781  
     605A      6.546056   606A      6.558143   607A      6.563411  
     608A      6.577185   609A      6.578375   610A      6.611051  
     611A      6.691347   612A      6.787430   613A      6.792801  
     614A      6.807874   615A      6.935611   616A      6.947379  
     617A      6.956549   618A      7.109070   619A      7.257369  
     620A      7.418470   621A      7.528809   622A      7.557295  
     623A      7.579180   624A      7.587665   625A      7.612786  
     626A      7.649187   627A      7.692028   628A      7.697810  
     629A      7.717938   630A      7.738036   631A      7.756308  
     632A      7.809819   633A      7.812260   634A      7.827448  
     635A      7.886193   636A      7.910316   637A      7.928597  
     638A      8.102226   639A      8.168368   640A      8.318748  
     641A      8.430182   642A      8.622940   643A      8.699206  
     644A      8.816685   645A      9.625683   646A      9.647107  
     647A      9.735689   648A      9.852986   649A      9.895021  
     650A      9.933300   651A     13.842258   652A     14.545272  
     653A     14.801033   654A     43.866328   655A     44.638828  
     656A     45.482306   657A     45.683922   658A     45.803242  
     659A     46.045133  

    Final Occupation by Irrep:
              A 
    DOCC [    13 ]

  @DF-RHF Final Energy:  -118.30808387215460

   => Energetics <=

    Nuclear Repulsion Energy =             82.8244059435584177
    One-Electron Energy =                -322.0031528330472952
    Two-Electron Energy =                 120.8706630173342802
    Total Energy =                       -118.3080838721545973

Computation Completed


Properties will be evaluated at   0.000000,   0.000000,   0.000000 [a0]

Properties computed using the SCF density matrix

  Nuclear Dipole Moment: [e a0]
     X:    76.5672      Y:   -99.1142      Z:    -1.2514

  Electronic Dipole Moment: [e a0]
     X:   -76.5665      Y:    99.1102      Z:     1.2841

  Dipole Moment: [e a0]
     X:     0.0007      Y:    -0.0040      Z:     0.0328     Total:     0.0330

  Dipole Moment: [D]
     X:     0.0018      Y:    -0.0103      Z:     0.0832     Total:     0.0839


*** tstop() called on r282 at Fri Sep 10 20:48:42 2021
Module time:
	user time   =      89.27 seconds =       1.49 minutes
	system time =       1.20 seconds =       0.02 minutes
	total time  =         90 seconds =       1.50 minutes
Total time:
	user time   =     361.72 seconds =       6.03 minutes
	system time =       6.40 seconds =       0.11 minutes
	total time  =        368 seconds =       6.13 minutes
  Constructing Basis Sets for SAPT...

   => Loading Basis Set <=

    Name: (JUN-CC-PVTZ AUX)
    Role: RIFIT
    Keyword: DF_BASIS_SAPT
    atoms 1-6, 21-23  entry C          line   132 file /home/r08543048/miniconda3/share/psi4/basis/jun-cc-pvtz-ri.gbs 
    atoms 7-20, 24-31 entry H          line    30 file /home/r08543048/miniconda3/share/psi4/basis/jun-cc-pvtz-ri.gbs 


  //>>>>>>>>>>>>>>>>>>>>>>>>>>>>>>>>>>>//
  //               SAPT0               //
  //<<<<<<<<<<<<<<<<<<<<<<<<<<<<<<<<<<<//


*** tstart() called on r282
*** at Fri Sep 10 20:48:43 2021

        SAPT0  
    Ed Hohenstein
     6 June 2009

      Orbital Information
  --------------------------
    NSO        =       659
    NMO        =       659
    NRI        =      1533
    NOCC A     =        25
    NOCC B     =        13
    FOCC A     =         0
    FOCC B     =         0
    NVIR A     =       634
    NVIR B     =       646

    Elst10,r            =    -0.001983779913 [Eh]
    Exch10              =     0.006591412562 [Eh]
    Exch10 (S^2)        =     0.006582179274 [Eh]

    Iter     Energy [mEh]          dE [mEh]         Residual      Time [s]
       1      -0.41581252       0.415812522       2.554006208             3
       2      -0.50409570       0.088283180       0.445614590             5
       3      -0.50409065      -0.000005053       0.137443539             8
       4      -0.50296477      -0.001125884       0.031233411            10
       5      -0.50304458       0.000079812       0.009462502            13
       6      -0.50308706       0.000042485       0.002138505            15
       7      -0.50308316      -0.000003902       0.000632120            18
       8      -0.50308105      -0.000002108       0.000157128            21
       9      -0.50308130       0.000000246       0.000038203            23
      10      -0.50308139       0.000000094       0.000008660            26
      11      -0.50308138      -0.000000015       0.000002205            28
      12      -0.50308137      -0.000000004       0.000000539            31

    CHF Iterations converged


    Iter     Energy [mEh]          dE [mEh]         Residual      Time [s]
       1      -0.44025381       0.440253814       2.662759040             2
       2      -0.53613246       0.095878647       0.502381707             4
       3      -0.53651143       0.000378974       0.148669963             7
       4      -0.53523158      -0.001279853       0.035084122             9
       5      -0.53529193       0.000060344       0.009465685            11
       6      -0.53534505       0.000053129       0.001721039            14
       7      -0.53534168      -0.000003376       0.000503621            16
       8      -0.53533974      -0.000001934       0.000101664            18
       9      -0.53534011       0.000000366       0.000018433            20
      10      -0.53534009      -0.000000019       0.000003574            22
      11      -0.53534009      -0.000000006       0.000000748            25

    CHF Iterations converged

    Ind20,r (A<-B)      =    -0.000503081373 [Eh]
    Ind20,r (B<-A)      =    -0.000535340085 [Eh]
    Ind20,r             =    -0.001038421459 [Eh]
    Exch-Ind20,r (A<-B) =     0.000436688517 [Eh]
    Exch-Ind20,r (B<-A) =     0.000474380505 [Eh]
    Exch-Ind20,r        =     0.000911069021 [Eh]
    Disp20              =    -0.009377874876 [Eh]
    Disp20 (SS)         =    -0.004688937438 [Eh]
    Disp20 (OS)         =    -0.004688937438 [Eh]
    Exch-Disp20         =     0.000746896148 [Eh]
    Exch-Disp20 (SS)    =     0.000490660858 [Eh]
    Exch-Disp20 (OS)    =     0.000256235290 [Eh]

    SAPT Results 
  --------------------------------------------------------------------------------------------------------
    Electrostatics                 -1.98377991 [mEh]      -1.24484069 [kcal/mol]      -5.20841344 [kJ/mol]
      Elst10,r                     -1.98377991 [mEh]      -1.24484069 [kcal/mol]      -5.20841344 [kJ/mol]

    Exchange                        6.59141256 [mEh]       4.13617383 [kcal/mol]      17.30575130 [kJ/mol]
      Exch10                        6.59141256 [mEh]       4.13617383 [kcal/mol]      17.30575130 [kJ/mol]
      Exch10(S^2)                   6.58217927 [mEh]       4.13037985 [kcal/mol]      17.28150930 [kJ/mol]

    Induction                      -0.58882194 [mEh]      -0.36949135 [kcal/mol]      -1.54595180 [kJ/mol]
      Ind20,r                      -1.03842146 [mEh]      -0.65161930 [kcal/mol]      -2.72637516 [kJ/mol]
      Exch-Ind20,r                  0.91106902 [mEh]       0.57170444 [kcal/mol]       2.39201139 [kJ/mol]
      delta HF,r (2)               -0.46146951 [mEh]      -0.28957649 [kcal/mol]      -1.21158803 [kJ/mol]

    Dispersion                     -8.63097873 [mEh]      -5.41602092 [kcal/mol]     -22.66063153 [kJ/mol]
      Disp20                       -9.37787488 [mEh]      -5.88470533 [kcal/mol]     -24.62160709 [kJ/mol]
      Exch-Disp20                   0.74689615 [mEh]       0.46868441 [kcal/mol]       1.96097557 [kJ/mol]
      Disp20 (SS)                  -4.68893744 [mEh]      -2.94235266 [kcal/mol]     -12.31080355 [kJ/mol]
      Disp20 (OS)                  -4.68893744 [mEh]      -2.94235266 [kcal/mol]     -12.31080355 [kJ/mol]
      Exch-Disp20 (SS)              0.49066086 [mEh]       0.30789434 [kcal/mol]       1.28822991 [kJ/mol]
      Exch-Disp20 (OS)              0.25623529 [mEh]       0.16079007 [kcal/mol]       0.67274566 [kJ/mol]

  Total HF                          4.01881070 [mEh]       2.52184179 [kcal/mol]      10.55138605 [kJ/mol]
  Total SAPT0                      -4.61216802 [mEh]      -2.89417913 [kcal/mol]     -12.10924548 [kJ/mol]

  Special recipe for scaled SAPT0 (see Manual):
    Electrostatics sSAPT0          -1.98377991 [mEh]      -1.24484069 [kcal/mol]      -5.20841344 [kJ/mol]
    Exchange sSAPT0                 6.59141256 [mEh]       4.13617383 [kcal/mol]      17.30575130 [kJ/mol]
    Induction sSAPT0               -0.58498250 [mEh]      -0.36708206 [kcal/mol]      -1.53587135 [kJ/mol]
    Dispersion sSAPT0              -8.62783115 [mEh]      -5.41404578 [kcal/mol]     -22.65236755 [kJ/mol]
  Total sSAPT0                     -4.60518100 [mEh]      -2.88979470 [kcal/mol]     -12.09090104 [kJ/mol]
  --------------------------------------------------------------------------------------------------------

*** tstop() called on r282 at Fri Sep 10 20:53:57 2021
Module time:
	user time   =     271.82 seconds =       4.53 minutes
	system time =      33.78 seconds =       0.56 minutes
	total time  =        314 seconds =       5.23 minutes
Total time:
	user time   =     633.74 seconds =      10.56 minutes
	system time =      40.18 seconds =       0.67 minutes
	total time  =        683 seconds =      11.38 minutes

    Psi4 stopped on: Friday, 10 September 2021 08:53PM
    Psi4 wall time for execution: 0:11:23.34

*** Psi4 exiting successfully. Buy a developer a beer!
