
    -----------------------------------------------------------------------
          Psi4: An Open-Source Ab Initio Electronic Structure Package
                               Psi4 1.3.2 release

                         Git: Rev {HEAD} ecbda83 


    R. M. Parrish, L. A. Burns, D. G. A. Smith, A. C. Simmonett,
    A. E. DePrince III, E. G. Hohenstein, U. Bozkaya, A. Yu. Sokolov,
    R. Di Remigio, R. M. Richard, J. F. Gonthier, A. M. James,
    H. R. McAlexander, A. Kumar, M. Saitow, X. Wang, B. P. Pritchard,
    P. Verma, H. F. Schaefer III, K. Patkowski, R. A. King, E. F. Valeev,
    F. A. Evangelista, J. M. Turney, T. D. Crawford, and C. D. Sherrill,
    J. Chem. Theory Comput. 13(7) pp 3185--3197 (2017).
    (doi: 10.1021/acs.jctc.7b00174)


                         Additional Contributions by
    P. Kraus, H. Kruse, M. H. Lechner, M. C. Schieber, R. A. Shaw,
    A. Alenaizan, R. Galvelis, Z. L. Glick, S. Lehtola, and J. P. Misiewicz

    -----------------------------------------------------------------------


    Psi4 started on: Friday, 10 September 2021 08:54PM

    Process ID: 57103
    Host:       r282
    PSIDATADIR: /home/r08543048/miniconda3/share/psi4
    Memory:     500.0 MiB
    Threads:    1
    
  ==> Input File <==

--------------------------------------------------------------------------
# Any line starting with the # character is a comment line
#! Sample  computation

memory 22 gb

molecule Dimer {
0 1
 C -1.132267    2.069621    0.052476
 H -0.419476    2.007412    0.876255
 H -2.052168    2.508114    0.441831
 H -0.723280    2.753020   -0.691522
 C -1.398617    0.689992   -0.535456
 H -2.088532    0.772781   -1.379812
 H -0.470385    0.273569   -0.936154
 C -1.978105   -0.280295    0.486272
 H -2.926832    0.116347    0.858109
 H -1.308656   -0.335130    1.349416
 C -2.188445   -1.674800   -0.089966
 H -1.242262   -2.096030   -0.432684
 H -2.611444   -2.356265    0.647720
 H -2.866332   -1.642094   -0.943974

 --
0 1
 C 2.019147   -1.502536   -0.283859
 C 2.032793   -0.260549    0.598818
 C 2.494300    0.975461   -0.163055
 H 1.359082   -1.361213   -1.141314
 H 3.018055   -1.713336   -0.668554
 H 1.676550   -2.381683    0.261768
 H 2.688676   -0.428681    1.455575
 H 1.033491   -0.088823    1.004268
 H 2.502796    1.861182    0.471905
 H 3.502408    0.832511   -0.554967
 H 1.835471    1.176954   -1.009243




units angstrom

no_reorient
symmetry c1
}

set globals{
  basis jun-cc-pvtz
}

energy('sapt0')


--------------------------------------------------------------------------

  Memory set to  20.489 GiB by Python driver.

  //>>>>>>>>>>>>>>>>>>>>>>>>>>>>>>>>>>>//
  //              Dimer HF             //
  //<<<<<<<<<<<<<<<<<<<<<<<<<<<<<<<<<<<//


*** tstart() called on r282
*** at Fri Sep 10 20:54:19 2021

   => Loading Basis Set <=

    Name: JUN-CC-PVTZ
    Role: ORBITAL
    Keyword: BASIS
    atoms 1, 5, 8, 11, 15-17           entry C          line   217 file /home/r08543048/miniconda3/share/psi4/basis/jun-cc-pvtz.gbs 
    atoms 2-4, 6-7, 9-10, 12-14, 18-25 entry H          line    36 file /home/r08543048/miniconda3/share/psi4/basis/jun-cc-pvtz.gbs 


         ---------------------------------------------------------
                                   SCF
               by Justin Turney, Rob Parrish, Andy Simmonett
                          and Daniel G. A. Smith
                              RHF Reference
                        1 Threads,  20980 MiB Core
         ---------------------------------------------------------

  ==> Geometry <==

    Molecular point group: c1
    Full point group: C1

    Geometry (in Angstrom), charge = 0, multiplicity = 1:

       Center              X                  Y                   Z               Mass       
    ------------   -----------------  -----------------  -----------------  -----------------
         C           -1.123454977944     2.068636381064     0.048674186522    12.000000000000
         H           -0.410663977944     2.006427381064     0.872453186522     1.007825032230
         H           -2.043355977944     2.507129381064     0.438029186522     1.007825032230
         H           -0.714467977944     2.752035381064    -0.695323813478     1.007825032230
         C           -1.389804977944     0.689007381064    -0.539257813478    12.000000000000
         H           -2.079719977944     0.771796381064    -1.383613813478     1.007825032230
         H           -0.461572977944     0.272584381064    -0.939955813478     1.007825032230
         C           -1.969292977944    -0.281279618936     0.482470186522    12.000000000000
         H           -2.918019977944     0.115362381064     0.854307186522     1.007825032230
         H           -1.299843977944    -0.336114618936     1.345614186522     1.007825032230
         C           -2.179632977944    -1.675784618936    -0.093767813478    12.000000000000
         H           -1.233449977944    -2.097014618936    -0.436485813478     1.007825032230
         H           -2.602631977944    -2.357249618936     0.643918186522     1.007825032230
         H           -2.857519977944    -1.643078618936    -0.947775813478     1.007825032230
         C            2.027959022056    -1.503520618936    -0.287660813478    12.000000000000
         C            2.041605022056    -0.261533618936     0.595016186522    12.000000000000
         C            2.503112022056     0.974476381064    -0.166856813478    12.000000000000
         H            1.367894022056    -1.362197618936    -1.145115813478     1.007825032230
         H            3.026867022056    -1.714320618936    -0.672355813478     1.007825032230
         H            1.685362022056    -2.382667618936     0.257966186522     1.007825032230
         H            2.697488022056    -0.429665618936     1.451773186522     1.007825032230
         H            1.042303022056    -0.089807618936     1.000466186522     1.007825032230
         H            2.511608022056     1.860197381064     0.468103186522     1.007825032230
         H            3.511220022056     0.831526381064    -0.558768813478     1.007825032230
         H            1.844283022056     1.175969381064    -1.013044813478     1.007825032230

  Running in c1 symmetry.

  Rotational constants: A =      0.08191  B =      0.03973  C =      0.02925 [cm^-1]
  Rotational constants: A =   2455.47086  B =   1191.16054  C =    876.87582 [MHz]
  Nuclear repulsion =  323.284258389810873

  Charge       = 0
  Multiplicity = 1
  Electrons    = 60
  Nalpha       = 30
  Nbeta        = 30

  ==> Algorithm <==

  SCF Algorithm Type is DF.
  DIIS enabled.
  MOM disabled.
  Fractional occupation disabled.
  Guess Type is SAD.
  Energy threshold   = 1.00e-08
  Density threshold  = 1.00e-08
  Integral threshold = 0.00e+00

  ==> Primary Basis <==

  Basis Set: JUN-CC-PVTZ
    Blend: JUN-CC-PVTZ
    Number of shells: 199
    Number of basis function: 525
    Number of Cartesian functions: 585
    Spherical Harmonics?: true
    Max angular momentum: 3

   => Loading Basis Set <=

    Name: (JUN-CC-PVTZ AUX)
    Role: JKFIT
    Keyword: DF_BASIS_SCF
    atoms 1, 5, 8, 11, 15-17           entry C          line   152 file /home/r08543048/miniconda3/share/psi4/basis/jun-cc-pvtz-jkfit.gbs 
    atoms 2-4, 6-7, 9-10, 12-14, 18-25 entry H          line    70 file /home/r08543048/miniconda3/share/psi4/basis/jun-cc-pvtz-jkfit.gbs 

  ==> Pre-Iterations <==

   -------------------------------------------------------
    Irrep   Nso     Nmo     Nalpha   Nbeta   Ndocc  Nsocc
   -------------------------------------------------------
     A        525     525       0       0       0       0
   -------------------------------------------------------
    Total     525     525      30      30      30       0
   -------------------------------------------------------

  ==> Integral Setup <==

  ==> DiskDFJK: Density-Fitted J/K Matrices <==

    J tasked:                  Yes
    K tasked:                  Yes
    wK tasked:                  No
    OpenMP threads:              1
    Integrals threads:           1
    Memory [MiB]:            15735
    Algorithm:                Core
    Integral Cache:           SAVE
    Schwarz Cutoff:          1E-12
    Fitting Condition:       1E-10

   => Auxiliary Basis Set <=

  Basis Set: (JUN-CC-PVTZ AUX)
    Blend: JUN-CC-PVTZ-JKFIT
    Number of shells: 383
    Number of basis function: 1205
    Number of Cartesian functions: 1442
    Spherical Harmonics?: true
    Max angular momentum: 4

  Minimum eigenvalue in the overlap matrix is 4.8195066772E-05.
  Using Symmetric Orthogonalization.

  SCF Guess: Superposition of Atomic Densities via on-the-fly atomic UHF.

  ==> Iterations <==

                           Total Energy        Delta E     RMS |[F,P]|

   @DF-RHF iter SAD:  -274.69105528595219   -2.74691e+02   0.00000e+00 
   @DF-RHF iter   1:  -275.29541700760041   -6.04362e-01   1.46184e-03 DIIS
   @DF-RHF iter   2:  -275.58967961208702   -2.94263e-01   6.82783e-04 DIIS
   @DF-RHF iter   3:  -275.65619638178543   -6.65168e-02   1.21125e-04 DIIS
   @DF-RHF iter   4:  -275.66049256873862   -4.29619e-03   2.66003e-05 DIIS
   @DF-RHF iter   5:  -275.66064689912298   -1.54330e-04   7.14040e-06 DIIS
   @DF-RHF iter   6:  -275.66065962176680   -1.27226e-05   1.09802e-06 DIIS
   @DF-RHF iter   7:  -275.66065999715909   -3.75392e-07   2.48925e-07 DIIS
   @DF-RHF iter   8:  -275.66066001411724   -1.69582e-08   6.36310e-08 DIIS
   @DF-RHF iter   9:  -275.66066001504356   -9.26320e-10   1.81272e-08 DIIS
   @DF-RHF iter  10:  -275.66066001513178   -8.82210e-11   4.22263e-09 DIIS
  Energy and wave function converged.


  ==> Post-Iterations <==

    Orbital Energies [Eh]
    ---------------------

    Doubly Occupied:                                                      

       1A    -11.215659     2A    -11.213378     3A    -11.212597  
       4A    -11.208667     5A    -11.207863     6A    -11.207415  
       7A    -11.207247     8A     -1.072164     9A     -1.054564  
      10A     -0.980509    11A     -0.925490    12A     -0.860306  
      13A     -0.800929    14A     -0.787755    15A     -0.647738  
      16A     -0.618487    17A     -0.599085    18A     -0.584439  
      19A     -0.575785    20A     -0.567694    21A     -0.549953  
      22A     -0.530307    23A     -0.514035    24A     -0.494822  
      25A     -0.477145    26A     -0.475601    27A     -0.472258  
      28A     -0.467822    29A     -0.458066    30A     -0.455857  

    Virtual:                                                              

      31A      0.050299    32A      0.051338    33A      0.055356  
      34A      0.060318    35A      0.069994    36A      0.074967  
      37A      0.077082    38A      0.087047    39A      0.089658  
      40A      0.106509    41A      0.111075    42A      0.116278  
      43A      0.118248    44A      0.119774    45A      0.122855  
      46A      0.131084    47A      0.142816    48A      0.144688  
      49A      0.154732    50A      0.159747    51A      0.164595  
      52A      0.177794    53A      0.185952    54A      0.186585  
      55A      0.202672    56A      0.207681    57A      0.209169  
      58A      0.226182    59A      0.249581    60A      0.254446  
      61A      0.265923    62A      0.268659    63A      0.276623  
      64A      0.284274    65A      0.295621    66A      0.301445  
      67A      0.305390    68A      0.308152    69A      0.313305  
      70A      0.318606    71A      0.323492    72A      0.324123  
      73A      0.330652    74A      0.338936    75A      0.340863  
      76A      0.344199    77A      0.345679    78A      0.352915  
      79A      0.358734    80A      0.366284    81A      0.367351  
      82A      0.372891    83A      0.377796    84A      0.382071  
      85A      0.393186    86A      0.396318    87A      0.401014  
      88A      0.408901    89A      0.413099    90A      0.425213  
      91A      0.434846    92A      0.437068    93A      0.447394  
      94A      0.462718    95A      0.467878    96A      0.471629  
      97A      0.481942    98A      0.485319    99A      0.499264  
     100A      0.511002   101A      0.520720   102A      0.522935  
     103A      0.532935   104A      0.533331   105A      0.540251  
     106A      0.552319   107A      0.557298   108A      0.566731  
     109A      0.568399   110A      0.575756   111A      0.580810  
     112A      0.589467   113A      0.594762   114A      0.607821  
     115A      0.620076   116A      0.628857   117A      0.649058  
     118A      0.659191   119A      0.684346   120A      0.689717  
     121A      0.699205   122A      0.701799   123A      0.707473  
     124A      0.723791   125A      0.735914   126A      0.748130  
     127A      0.759895   128A      0.761699   129A      0.773084  
     130A      0.779399   131A      0.791790   132A      0.794019  
     133A      0.804029   134A      0.804615   135A      0.821417  
     136A      0.822563   137A      0.825026   138A      0.837687  
     139A      0.845756   140A      0.847334   141A      0.853725  
     142A      0.863355   143A      0.871064   144A      0.878122  
     145A      0.883529   146A      0.887116   147A      0.889265  
     148A      0.901399   149A      0.909720   150A      0.913299  
     151A      0.922580   152A      0.931865   153A      0.956431  
     154A      0.969287   155A      0.981612   156A      0.986363  
     157A      0.995481   158A      1.000430   159A      1.013075  
     160A      1.032038   161A      1.037434   162A      1.040521  
     163A      1.073868   164A      1.098984   165A      1.121983  
     166A      1.122806   167A      1.143929   168A      1.154255  
     169A      1.170128   170A      1.179965   171A      1.188989  
     172A      1.205381   173A      1.214123   174A      1.236509  
     175A      1.241719   176A      1.255238   177A      1.259617  
     178A      1.270086   179A      1.293122   180A      1.308431  
     181A      1.326593   182A      1.338415   183A      1.343833  
     184A      1.354803   185A      1.362767   186A      1.368022  
     187A      1.371830   188A      1.389367   189A      1.392988  
     190A      1.400084   191A      1.405101   192A      1.434305  
     193A      1.436526   194A      1.444674   195A      1.452907  
     196A      1.459111   197A      1.471535   198A      1.480090  
     199A      1.489519   200A      1.495218   201A      1.510282  
     202A      1.515242   203A      1.528294   204A      1.541534  
     205A      1.550742   206A      1.557797   207A      1.568562  
     208A      1.584073   209A      1.589714   210A      1.593718  
     211A      1.596546   212A      1.600014   213A      1.613074  
     214A      1.615266   215A      1.624684   216A      1.638122  
     217A      1.643294   218A      1.658329   219A      1.669783  
     220A      1.671366   221A      1.683249   222A      1.694794  
     223A      1.713617   224A      1.715893   225A      1.722355  
     226A      1.744038   227A      1.756917   228A      1.774873  
     229A      1.793141   230A      1.803137   231A      1.833645  
     232A      1.844637   233A      1.846821   234A      1.860435  
     235A      1.872155   236A      1.890297   237A      1.897640  
     238A      1.912539   239A      1.929500   240A      1.937019  
     241A      1.945875   242A      1.962737   243A      1.971087  
     244A      1.979515   245A      1.995144   246A      2.009452  
     247A      2.030828   248A      2.059594   249A      2.077042  
     250A      2.152811   251A      2.178762   252A      2.730107  
     253A      2.738982   254A      2.750256   255A      2.755732  
     256A      2.769910   257A      2.793735   258A      2.799269  
     259A      2.815636   260A      2.825985   261A      2.858343  
     262A      2.864495   263A      2.873539   264A      2.892462  
     265A      2.900037   266A      2.912025   267A      2.923523  
     268A      2.926215   269A      2.948361   270A      2.952224  
     271A      2.972657   272A      2.974075   273A      2.999024  
     274A      3.004567   275A      3.016806   276A      3.036552  
     277A      3.041395   278A      3.083418   279A      3.091284  
     280A      3.117170   281A      3.126702   282A      3.131831  
     283A      3.134890   284A      3.142124   285A      3.150581  
     286A      3.154617   287A      3.162673   288A      3.176294  
     289A      3.191805   290A      3.202446   291A      3.224182  
     292A      3.237303   293A      3.250622   294A      3.257630  
     295A      3.271202   296A      3.279221   297A      3.295349  
     298A      3.305972   299A      3.308985   300A      3.324960  
     301A      3.331100   302A      3.343538   303A      3.362544  
     304A      3.374027   305A      3.374933   306A      3.385608  
     307A      3.395309   308A      3.402174   309A      3.408789  
     310A      3.419046   311A      3.421878   312A      3.427863  
     313A      3.444631   314A      3.449159   315A      3.464047  
     316A      3.469110   317A      3.479191   318A      3.484431  
     319A      3.494002   320A      3.503654   321A      3.508079  
     322A      3.514351   323A      3.521589   324A      3.529109  
     325A      3.531086   326A      3.540617   327A      3.542624  
     328A      3.558923   329A      3.574491   330A      3.583970  
     331A      3.587334   332A      3.603338   333A      3.607991  
     334A      3.619951   335A      3.630128   336A      3.655144  
     337A      3.659918   338A      3.670426   339A      3.680508  
     340A      3.688247   341A      3.717544   342A      3.719194  
     343A      3.736064   344A      3.747489   345A      3.764913  
     346A      3.777129   347A      3.789675   348A      3.805021  
     349A      3.814091   350A      3.820090   351A      3.826165  
     352A      3.837276   353A      3.850986   354A      3.855799  
     355A      3.870991   356A      3.875753   357A      3.901835  
     358A      3.928580   359A      3.935730   360A      3.946473  
     361A      3.952623   362A      3.955287   363A      3.961769  
     364A      3.966192   365A      3.978545   366A      3.979555  
     367A      4.003096   368A      4.015361   369A      4.023278  
     370A      4.052062   371A      4.096923   372A      4.123433  
     373A      4.128816   374A      4.153410   375A      4.183655  
     376A      4.190005   377A      4.191636   378A      4.198325  
     379A      4.223073   380A      4.237749   381A      4.245912  
     382A      4.250191   383A      4.260461   384A      4.267278  
     385A      4.277969   386A      4.281690   387A      4.298688  
     388A      4.307823   389A      4.310129   390A      4.329090  
     391A      4.339204   392A      4.348050   393A      4.351440  
     394A      4.366358   395A      4.376331   396A      4.382911  
     397A      4.390399   398A      4.392362   399A      4.408847  
     400A      4.430855   401A      4.434231   402A      4.445687  
     403A      4.463405   404A      4.466107   405A      4.476823  
     406A      4.481499   407A      4.504832   408A      4.510569  
     409A      4.519763   410A      4.530947   411A      4.536614  
     412A      4.543978   413A      4.546631   414A      4.551406  
     415A      4.561954   416A      4.568167   417A      4.581068  
     418A      4.592748   419A      4.609982   420A      4.620421  
     421A      4.634899   422A      4.646305   423A      4.657127  
     424A      4.682519   425A      4.690756   426A      4.697130  
     427A      4.714340   428A      4.733098   429A      4.737248  
     430A      4.747003   431A      4.770870   432A      4.781691  
     433A      4.816956   434A      4.826883   435A      4.840224  
     436A      4.858720   437A      4.875448   438A      4.894147  
     439A      4.907778   440A      4.915361   441A      4.961196  
     442A      4.994860   443A      5.007911   444A      5.037476  
     445A      5.045155   446A      5.068102   447A      5.118187  
     448A      5.121290   449A      5.133176   450A      5.143670  
     451A      5.159002   452A      5.182448   453A      5.205128  
     454A      5.250612   455A      5.261413   456A      5.262385  
     457A      5.269307   458A      5.277665   459A      5.287219  
     460A      5.292608   461A      5.304436   462A      5.316753  
     463A      5.324044   464A      5.342361   465A      5.362579  
     466A      5.362810   467A      5.374437   468A      5.399429  
     469A      5.416283   470A      5.436934   471A      5.460215  
     472A      5.474517   473A      5.483988   474A      5.513426  
     475A      5.540568   476A      5.560273   477A      5.585573  
     478A      5.604773   479A      5.631835   480A      5.657629  
     481A      5.674972   482A      5.723010   483A      5.751014  
     484A      5.753229   485A      5.757323   486A      5.768574  
     487A      5.772756   488A      5.783675   489A      5.796662  
     490A      5.799636   491A      5.809409   492A      5.815090  
     493A      5.825387   494A      5.860201   495A      5.905032  
     496A      5.914498   497A      5.928954   498A      5.932175  
     499A      5.956321   500A      5.960481   501A      5.967965  
     502A      5.973609   503A      6.009771   504A      6.023493  
     505A      6.081130   506A      6.118370   507A      6.192036  
     508A      6.464789   509A      6.498241   510A      6.499914  
     511A      6.527961   512A      6.533243   513A      6.554193  
     514A      6.558503   515A      6.570740   516A      6.585373  
     517A      6.633587   518A      6.670967   519A     13.721760  
     520A     13.972166   521A     14.268316   522A     14.483777  
     523A     14.540993   524A     14.651349   525A     14.742588  

    Final Occupation by Irrep:
              A 
    DOCC [    30 ]

  @DF-RHF Final Energy:  -275.66066001513178

   => Energetics <=

    Nuclear Repulsion Energy =            323.2842583898108728
    One-Electron Energy =               -1011.0025605683264303
    Two-Electron Energy =                 412.0576421633838322
    Total Energy =                       -275.6606600151317821

Computation Completed


Properties will be evaluated at   0.000000,   0.000000,   0.000000 [a0]

Properties computed using the SCF density matrix

  Nuclear Dipole Moment: [e a0]
     X:     0.9991      Y:    -0.1116      Z:    -0.4311

  Electronic Dipole Moment: [e a0]
     X:    -1.0010      Y:     0.1138      Z:     0.4607

  Dipole Moment: [e a0]
     X:    -0.0019      Y:     0.0022      Z:     0.0297     Total:     0.0298

  Dipole Moment: [D]
     X:    -0.0049      Y:     0.0056      Z:     0.0754     Total:     0.0758


*** tstop() called on r282 at Fri Sep 10 20:55:31 2021
Module time:
	user time   =      69.93 seconds =       1.17 minutes
	system time =       1.49 seconds =       0.02 minutes
	total time  =         72 seconds =       1.20 minutes
Total time:
	user time   =      69.93 seconds =       1.17 minutes
	system time =       1.49 seconds =       0.02 minutes
	total time  =         72 seconds =       1.20 minutes

  //>>>>>>>>>>>>>>>>>>>>>>>>>>>>>>>>>>>//
  //            Monomer A HF           //
  //<<<<<<<<<<<<<<<<<<<<<<<<<<<<<<<<<<<//


*** tstart() called on r282
*** at Fri Sep 10 20:55:31 2021

   => Loading Basis Set <=

    Name: JUN-CC-PVTZ
    Role: ORBITAL
    Keyword: BASIS
    atoms 1, 5, 8, 11, 15-17           entry C          line   217 file /home/r08543048/miniconda3/share/psi4/basis/jun-cc-pvtz.gbs 
    atoms 2-4, 6-7, 9-10, 12-14, 18-25 entry H          line    36 file /home/r08543048/miniconda3/share/psi4/basis/jun-cc-pvtz.gbs 


         ---------------------------------------------------------
                                   SCF
               by Justin Turney, Rob Parrish, Andy Simmonett
                          and Daniel G. A. Smith
                              RHF Reference
                        1 Threads,  20980 MiB Core
         ---------------------------------------------------------

  ==> Geometry <==

    Molecular point group: c1
    Full point group: C1

    Geometry (in Angstrom), charge = 0, multiplicity = 1:

       Center              X                  Y                   Z               Mass       
    ------------   -----------------  -----------------  -----------------  -----------------
         C           -1.123454977944     2.068636381064     0.048674186522    12.000000000000
         H           -0.410663977944     2.006427381064     0.872453186522     1.007825032230
         H           -2.043355977944     2.507129381064     0.438029186522     1.007825032230
         H           -0.714467977944     2.752035381064    -0.695323813478     1.007825032230
         C           -1.389804977944     0.689007381064    -0.539257813478    12.000000000000
         H           -2.079719977944     0.771796381064    -1.383613813478     1.007825032230
         H           -0.461572977944     0.272584381064    -0.939955813478     1.007825032230
         C           -1.969292977944    -0.281279618936     0.482470186522    12.000000000000
         H           -2.918019977944     0.115362381064     0.854307186522     1.007825032230
         H           -1.299843977944    -0.336114618936     1.345614186522     1.007825032230
         C           -2.179632977944    -1.675784618936    -0.093767813478    12.000000000000
         H           -1.233449977944    -2.097014618936    -0.436485813478     1.007825032230
         H           -2.602631977944    -2.357249618936     0.643918186522     1.007825032230
         H           -2.857519977944    -1.643078618936    -0.947775813478     1.007825032230
      Gh(C)           2.027959022056    -1.503520618936    -0.287660813478    12.000000000000
      Gh(C)           2.041605022056    -0.261533618936     0.595016186522    12.000000000000
      Gh(C)           2.503112022056     0.974476381064    -0.166856813478    12.000000000000
      Gh(H)           1.367894022056    -1.362197618936    -1.145115813478     1.007825032230
      Gh(H)           3.026867022056    -1.714320618936    -0.672355813478     1.007825032230
      Gh(H)           1.685362022056    -2.382667618936     0.257966186522     1.007825032230
      Gh(H)           2.697488022056    -0.429665618936     1.451773186522     1.007825032230
      Gh(H)           1.042303022056    -0.089807618936     1.000466186522     1.007825032230
      Gh(H)           2.511608022056     1.860197381064     0.468103186522     1.007825032230
      Gh(H)           3.511220022056     0.831526381064    -0.558768813478     1.007825032230
      Gh(H)           1.844283022056     1.175969381064    -1.013044813478     1.007825032230

  Running in c1 symmetry.

  Rotational constants: A =      0.08191  B =      0.03973  C =      0.02925 [cm^-1]
  Rotational constants: A =   2455.47086  B =   1191.16054  C =    876.87582 [MHz]
  Nuclear repulsion =  131.094626605561785

  Charge       = 0
  Multiplicity = 1
  Electrons    = 34
  Nalpha       = 17
  Nbeta        = 17

  ==> Algorithm <==

  SCF Algorithm Type is DF.
  DIIS enabled.
  MOM disabled.
  Fractional occupation disabled.
  Guess Type is SAD.
  Energy threshold   = 1.00e-08
  Density threshold  = 1.00e-08
  Integral threshold = 0.00e+00

  ==> Primary Basis <==

  Basis Set: JUN-CC-PVTZ
    Blend: JUN-CC-PVTZ
    Number of shells: 199
    Number of basis function: 525
    Number of Cartesian functions: 585
    Spherical Harmonics?: true
    Max angular momentum: 3

   => Loading Basis Set <=

    Name: (JUN-CC-PVTZ AUX)
    Role: JKFIT
    Keyword: DF_BASIS_SCF
    atoms 1, 5, 8, 11, 15-17           entry C          line   152 file /home/r08543048/miniconda3/share/psi4/basis/jun-cc-pvtz-jkfit.gbs 
    atoms 2-4, 6-7, 9-10, 12-14, 18-25 entry H          line    70 file /home/r08543048/miniconda3/share/psi4/basis/jun-cc-pvtz-jkfit.gbs 

  ==> Pre-Iterations <==

   -------------------------------------------------------
    Irrep   Nso     Nmo     Nalpha   Nbeta   Ndocc  Nsocc
   -------------------------------------------------------
     A        525     525       0       0       0       0
   -------------------------------------------------------
    Total     525     525      17      17      17       0
   -------------------------------------------------------

  ==> Integral Setup <==

  ==> DiskDFJK: Density-Fitted J/K Matrices <==

    J tasked:                  Yes
    K tasked:                  Yes
    wK tasked:                  No
    OpenMP threads:              1
    Integrals threads:           1
    Memory [MiB]:            15735
    Algorithm:                Core
    Integral Cache:           LOAD
    Schwarz Cutoff:          1E-12
    Fitting Condition:       1E-10

   => Auxiliary Basis Set <=

  Basis Set: (JUN-CC-PVTZ AUX)
    Blend: JUN-CC-PVTZ-JKFIT
    Number of shells: 383
    Number of basis function: 1205
    Number of Cartesian functions: 1442
    Spherical Harmonics?: true
    Max angular momentum: 4

  Minimum eigenvalue in the overlap matrix is 4.8195066772E-05.
  Using Symmetric Orthogonalization.

  SCF Guess: Superposition of Atomic Densities via on-the-fly atomic UHF.

  ==> Iterations <==

                           Total Energy        Delta E     RMS |[F,P]|

   @DF-RHF iter SAD:  -156.79541588510506   -1.56795e+02   0.00000e+00 
   @DF-RHF iter   1:  -157.14973278312291   -3.54317e-01   1.09810e-03 DIIS
   @DF-RHF iter   2:  -157.31616884541975   -1.66436e-01   5.10438e-04 DIIS
   @DF-RHF iter   3:  -157.35342281755578   -3.72540e-02   8.99662e-05 DIIS
   @DF-RHF iter   4:  -157.35581678757569   -2.39397e-03   2.10075e-05 DIIS
   @DF-RHF iter   5:  -157.35590853522439   -9.17476e-05   5.42894e-06 DIIS
   @DF-RHF iter   6:  -157.35591619473942   -7.65952e-06   6.79969e-07 DIIS
   @DF-RHF iter   7:  -157.35591637453649   -1.79797e-07   1.20118e-07 DIIS
   @DF-RHF iter   8:  -157.35591637954653   -5.01004e-09   2.69598e-08 DIIS
   @DF-RHF iter   9:  -157.35591637982350   -2.76970e-10   6.23080e-09 DIIS
  Energy and wave function converged.


  ==> Post-Iterations <==

    Orbital Energies [Eh]
    ---------------------

    Doubly Occupied:                                                      

       1A    -11.213371     2A    -11.212746     3A    -11.207564  
       4A    -11.207530     5A     -1.071443     6A     -0.980355  
       7A     -0.860158     8A     -0.787480     9A     -0.639025  
      10A     -0.584245    11A     -0.575694    12A     -0.566974  
      13A     -0.513941    14A     -0.494193    15A     -0.469334  
      16A     -0.461539    17A     -0.455959  

    Virtual:                                                              

      18A      0.033698    19A      0.045853    20A      0.051844  
      21A      0.055799    22A      0.065842    23A      0.072711  
      24A      0.075063    25A      0.084050    26A      0.087623  
      27A      0.101340    28A      0.104530    29A      0.109845  
      30A      0.113834    31A      0.118076    32A      0.120949  
      33A      0.122886    34A      0.130915    35A      0.139756  
      36A      0.146768    37A      0.153394    38A      0.157079  
      39A      0.162693    40A      0.168329    41A      0.179562  
      42A      0.185737    43A      0.201646    44A      0.201976  
      45A      0.211452    46A      0.235234    47A      0.243353  
      48A      0.250786    49A      0.262486    50A      0.267547  
      51A      0.275962    52A      0.283340    53A      0.291690  
      54A      0.297030    55A      0.308277    56A      0.309736  
      57A      0.317879    58A      0.319743    59A      0.322868  
      60A      0.326027    61A      0.335474    62A      0.339283  
      63A      0.347014    64A      0.352441    65A      0.363058  
      66A      0.365986    67A      0.372033    68A      0.375815  
      69A      0.381033    70A      0.387334    71A      0.390009  
      72A      0.395249    73A      0.397111    74A      0.404943  
      75A      0.406726    76A      0.420016    77A      0.425621  
      78A      0.440457    79A      0.442916    80A      0.452467  
      81A      0.461719    82A      0.471848    83A      0.477975  
      84A      0.483362    85A      0.496936    86A      0.509627  
      87A      0.517160    88A      0.519838    89A      0.524363  
      90A      0.531199    91A      0.540646    92A      0.548948  
      93A      0.559752    94A      0.562348    95A      0.574537  
      96A      0.578655    97A      0.584836    98A      0.587592  
      99A      0.591201   100A      0.596132   101A      0.603630  
     102A      0.614963   103A      0.621817   104A      0.629077  
     105A      0.642023   106A      0.649762   107A      0.657288  
     108A      0.667971   109A      0.681012   110A      0.691335  
     111A      0.703788   112A      0.709424   113A      0.717705  
     114A      0.727278   115A      0.752224   116A      0.757995  
     117A      0.767317   118A      0.777955   119A      0.784273  
     120A      0.802484   121A      0.804621   122A      0.819647  
     123A      0.827059   124A      0.836150   125A      0.838581  
     126A      0.853307   127A      0.856476   128A      0.873812  
     129A      0.878138   130A      0.886199   131A      0.894973  
     132A      0.916021   133A      0.935259   134A      0.946731  
     135A      0.967256   136A      0.992847   137A      1.008394  
     138A      1.018369   139A      1.031832   140A      1.044489  
     141A      1.057171   142A      1.065177   143A      1.089197  
     144A      1.100342   145A      1.113786   146A      1.124961  
     147A      1.132880   148A      1.152214   149A      1.160668  
     150A      1.173040   151A      1.180815   152A      1.188004  
     153A      1.194233   154A      1.202679   155A      1.212348  
     156A      1.218709   157A      1.231335   158A      1.236221  
     159A      1.249217   160A      1.263298   161A      1.275071  
     162A      1.280438   163A      1.293868   164A      1.297876  
     165A      1.312424   166A      1.318653   167A      1.327563  
     168A      1.335670   169A      1.341203   170A      1.347959  
     171A      1.355887   172A      1.362471   173A      1.389473  
     174A      1.393425   175A      1.402172   176A      1.410784  
     177A      1.418126   178A      1.427615   179A      1.440689  
     180A      1.444937   181A      1.457450   182A      1.462020  
     183A      1.467738   184A      1.475626   185A      1.490838  
     186A      1.493222   187A      1.508313   188A      1.511109  
     189A      1.532476   190A      1.542271   191A      1.551307  
     192A      1.554891   193A      1.556492   194A      1.565651  
     195A      1.588021   196A      1.593234   197A      1.601471  
     198A      1.608538   199A      1.614652   200A      1.619425  
     201A      1.633566   202A      1.636626   203A      1.652789  
     204A      1.658295   205A      1.672691   206A      1.675004  
     207A      1.699100   208A      1.714014   209A      1.724442  
     210A      1.727965   211A      1.732095   212A      1.757444  
     213A      1.769027   214A      1.785493   215A      1.812084  
     216A      1.815054   217A      1.833424   218A      1.837728  
     219A      1.867534   220A      1.880158   221A      1.899008  
     222A      1.904635   223A      1.916126   224A      1.922179  
     225A      1.939147   226A      1.955010   227A      1.963804  
     228A      1.993121   229A      2.022724   230A      2.025599  
     231A      2.042264   232A      2.055490   233A      2.073994  
     234A      2.093513   235A      2.152564   236A      2.173865  
     237A      2.194603   238A      2.199220   239A      2.228523  
     240A      2.337321   241A      2.399534   242A      2.407036  
     243A      2.422036   244A      2.457231   245A      2.494460  
     246A      2.583517   247A      2.602815   248A      2.619722  
     249A      2.746316   250A      2.755110   251A      2.793911  
     252A      2.825463   253A      2.867096   254A      2.878759  
     255A      2.892275   256A      2.899253   257A      2.913531  
     258A      2.942387   259A      2.959633   260A      3.003047  
     261A      3.013170   262A      3.047358   263A      3.086286  
     264A      3.130844   265A      3.136453   266A      3.147098  
     267A      3.149541   268A      3.150405   269A      3.169556  
     270A      3.200598   271A      3.237591   272A      3.266925  
     273A      3.281517   274A      3.300118   275A      3.313405  
     276A      3.331526   277A      3.345289   278A      3.363050  
     279A      3.402315   280A      3.406993   281A      3.410007  
     282A      3.414017   283A      3.437312   284A      3.448344  
     285A      3.460681   286A      3.473383   287A      3.490848  
     288A      3.492209   289A      3.509648   290A      3.511789  
     291A      3.526867   292A      3.529661   293A      3.544105  
     294A      3.561125   295A      3.565702   296A      3.572959  
     297A      3.577022   298A      3.585678   299A      3.590338  
     300A      3.597365   301A      3.616010   302A      3.619664  
     303A      3.639938   304A      3.646022   305A      3.651991  
     306A      3.662554   307A      3.668518   308A      3.695387  
     309A      3.711178   310A      3.719539   311A      3.736430  
     312A      3.740538   313A      3.749885   314A      3.782366  
     315A      3.785357   316A      3.807001   317A      3.815678  
     318A      3.826032   319A      3.828897   320A      3.836598  
     321A      3.846721   322A      3.864450   323A      3.875177  
     324A      3.882730   325A      3.892837   326A      3.908833  
     327A      3.923907   328A      3.938522   329A      3.944801  
     330A      3.947651   331A      3.961964   332A      3.966119  
     333A      3.975022   334A      3.983600   335A      3.991742  
     336A      4.006201   337A      4.023534   338A      4.061284  
     339A      4.079207   340A      4.105549   341A      4.139873  
     342A      4.140336   343A      4.163424   344A      4.172218  
     345A      4.178352   346A      4.188341   347A      4.199514  
     348A      4.214552   349A      4.223500   350A      4.235420  
     351A      4.248909   352A      4.259465   353A      4.268232  
     354A      4.275812   355A      4.299282   356A      4.307749  
     357A      4.322274   358A      4.337708   359A      4.351521  
     360A      4.366878   361A      4.376860   362A      4.382493  
     363A      4.386347   364A      4.390006   365A      4.409178  
     366A      4.418283   367A      4.427346   368A      4.441851  
     369A      4.459445   370A      4.467537   371A      4.479987  
     372A      4.492756   373A      4.504710   374A      4.510471  
     375A      4.518437   376A      4.522099   377A      4.533858  
     378A      4.540086   379A      4.545949   380A      4.549550  
     381A      4.557884   382A      4.580496   383A      4.592944  
     384A      4.607041   385A      4.611602   386A      4.626574  
     387A      4.627784   388A      4.639160   389A      4.643250  
     390A      4.657774   391A      4.667633   392A      4.700393  
     393A      4.709727   394A      4.718547   395A      4.723976  
     396A      4.729613   397A      4.739951   398A      4.746793  
     399A      4.760153   400A      4.778277   401A      4.792580  
     402A      4.809593   403A      4.815505   404A      4.825881  
     405A      4.832082   406A      4.837109   407A      4.845467  
     408A      4.856960   409A      4.867542   410A      4.888753  
     411A      4.894085   412A      4.904989   413A      4.921151  
     414A      4.926649   415A      4.932767   416A      4.948820  
     417A      4.960432   418A      4.968368   419A      4.976338  
     420A      5.004137   421A      5.013844   422A      5.022073  
     423A      5.034764   424A      5.045807   425A      5.053725  
     426A      5.074657   427A      5.078416   428A      5.114956  
     429A      5.125917   430A      5.127804   431A      5.143206  
     432A      5.152011   433A      5.167844   434A      5.172157  
     435A      5.231752   436A      5.238228   437A      5.254078  
     438A      5.263386   439A      5.275793   440A      5.290603  
     441A      5.303242   442A      5.317967   443A      5.324548  
     444A      5.362971   445A      5.364509   446A      5.373690  
     447A      5.386656   448A      5.407922   449A      5.437642  
     450A      5.453125   451A      5.467002   452A      5.499248  
     453A      5.540197   454A      5.560793   455A      5.613136  
     456A      5.617987   457A      5.620744   458A      5.631558  
     459A      5.632482   460A      5.654065   461A      5.664328  
     462A      5.675702   463A      5.757211   464A      5.762753  
     465A      5.784291   466A      5.800143   467A      5.809085  
     468A      5.832020   469A      5.860005   470A      5.905337  
     471A      5.906921   472A      5.918573   473A      5.956036  
     474A      5.964652   475A      5.974412   476A      5.985842  
     477A      6.006953   478A      6.018608   479A      6.061356  
     480A      6.085252   481A      6.186750   482A      6.198096  
     483A      6.202589   484A      6.256366   485A      6.348471  
     486A      6.355077   487A      6.384578   488A      6.426137  
     489A      6.442858   490A      6.481306   491A      6.498103  
     492A      6.509938   493A      6.535687   494A      6.558025  
     495A      6.560093   496A      6.591793   497A      6.616958  
     498A      6.655463   499A      6.763197   500A      6.900810  
     501A      7.001426   502A      7.301249   503A      7.484951  
     504A      7.565783   505A      7.594040   506A      7.642077  
     507A      7.691528   508A      7.701984   509A      7.812278  
     510A      7.828068   511A      7.866376   512A      7.909160  
     513A      8.054936   514A      8.232060   515A      8.503328  
     516A      9.601213   517A      9.902537   518A      9.916546  
     519A     13.762139   520A     14.262723   521A     14.533364  
     522A     14.691864   523A     44.453487   524A     45.436488  
     525A     45.831248  

    Final Occupation by Irrep:
              A 
    DOCC [    17 ]

  @DF-RHF Final Energy:  -157.35591637982350

   => Energetics <=

    Nuclear Repulsion Energy =            131.0946266055617855
    One-Electron Energy =                -470.2979806756313792
    Two-Electron Energy =                 181.8474376902461245
    Total Energy =                       -157.3559163798234977

Computation Completed


Properties will be evaluated at   0.000000,   0.000000,   0.000000 [a0]

Properties computed using the SCF density matrix

  Nuclear Dipole Moment: [e a0]
     X:  -106.9478      Y:    12.8414      Z:    -1.6254

  Electronic Dipole Moment: [e a0]
     X:   106.9467      Y:   -12.8411      Z:     1.6250

  Dipole Moment: [e a0]
     X:    -0.0012      Y:     0.0003      Z:    -0.0004     Total:     0.0012

  Dipole Moment: [D]
     X:    -0.0029      Y:     0.0008      Z:    -0.0009     Total:     0.0032


*** tstop() called on r282 at Fri Sep 10 20:56:12 2021
Module time:
	user time   =      40.68 seconds =       0.68 minutes
	system time =       0.71 seconds =       0.01 minutes
	total time  =         41 seconds =       0.68 minutes
Total time:
	user time   =     110.61 seconds =       1.84 minutes
	system time =       2.20 seconds =       0.04 minutes
	total time  =        113 seconds =       1.88 minutes

  //>>>>>>>>>>>>>>>>>>>>>>>>>>>>>>>>>>>//
  //            Monomer B HF           //
  //<<<<<<<<<<<<<<<<<<<<<<<<<<<<<<<<<<<//


*** tstart() called on r282
*** at Fri Sep 10 20:56:12 2021

   => Loading Basis Set <=

    Name: JUN-CC-PVTZ
    Role: ORBITAL
    Keyword: BASIS
    atoms 1, 5, 8, 11, 15-17           entry C          line   217 file /home/r08543048/miniconda3/share/psi4/basis/jun-cc-pvtz.gbs 
    atoms 2-4, 6-7, 9-10, 12-14, 18-25 entry H          line    36 file /home/r08543048/miniconda3/share/psi4/basis/jun-cc-pvtz.gbs 


         ---------------------------------------------------------
                                   SCF
               by Justin Turney, Rob Parrish, Andy Simmonett
                          and Daniel G. A. Smith
                              RHF Reference
                        1 Threads,  20980 MiB Core
         ---------------------------------------------------------

  ==> Geometry <==

    Molecular point group: c1
    Full point group: C1

    Geometry (in Angstrom), charge = 0, multiplicity = 1:

       Center              X                  Y                   Z               Mass       
    ------------   -----------------  -----------------  -----------------  -----------------
      Gh(C)          -1.123454977944     2.068636381064     0.048674186522    12.000000000000
      Gh(H)          -0.410663977944     2.006427381064     0.872453186522     1.007825032230
      Gh(H)          -2.043355977944     2.507129381064     0.438029186522     1.007825032230
      Gh(H)          -0.714467977944     2.752035381064    -0.695323813478     1.007825032230
      Gh(C)          -1.389804977944     0.689007381064    -0.539257813478    12.000000000000
      Gh(H)          -2.079719977944     0.771796381064    -1.383613813478     1.007825032230
      Gh(H)          -0.461572977944     0.272584381064    -0.939955813478     1.007825032230
      Gh(C)          -1.969292977944    -0.281279618936     0.482470186522    12.000000000000
      Gh(H)          -2.918019977944     0.115362381064     0.854307186522     1.007825032230
      Gh(H)          -1.299843977944    -0.336114618936     1.345614186522     1.007825032230
      Gh(C)          -2.179632977944    -1.675784618936    -0.093767813478    12.000000000000
      Gh(H)          -1.233449977944    -2.097014618936    -0.436485813478     1.007825032230
      Gh(H)          -2.602631977944    -2.357249618936     0.643918186522     1.007825032230
      Gh(H)          -2.857519977944    -1.643078618936    -0.947775813478     1.007825032230
         C            2.027959022056    -1.503520618936    -0.287660813478    12.000000000000
         C            2.041605022056    -0.261533618936     0.595016186522    12.000000000000
         C            2.503112022056     0.974476381064    -0.166856813478    12.000000000000
         H            1.367894022056    -1.362197618936    -1.145115813478     1.007825032230
         H            3.026867022056    -1.714320618936    -0.672355813478     1.007825032230
         H            1.685362022056    -2.382667618936     0.257966186522     1.007825032230
         H            2.697488022056    -0.429665618936     1.451773186522     1.007825032230
         H            1.042303022056    -0.089807618936     1.000466186522     1.007825032230
         H            2.511608022056     1.860197381064     0.468103186522     1.007825032230
         H            3.511220022056     0.831526381064    -0.558768813478     1.007825032230
         H            1.844283022056     1.175969381064    -1.013044813478     1.007825032230

  Running in c1 symmetry.

  Rotational constants: A =      0.08191  B =      0.03973  C =      0.02925 [cm^-1]
  Rotational constants: A =   2455.47086  B =   1191.16054  C =    876.87582 [MHz]
  Nuclear repulsion =   82.818732766694993

  Charge       = 0
  Multiplicity = 1
  Electrons    = 26
  Nalpha       = 13
  Nbeta        = 13

  ==> Algorithm <==

  SCF Algorithm Type is DF.
  DIIS enabled.
  MOM disabled.
  Fractional occupation disabled.
  Guess Type is SAD.
  Energy threshold   = 1.00e-08
  Density threshold  = 1.00e-08
  Integral threshold = 0.00e+00

  ==> Primary Basis <==

  Basis Set: JUN-CC-PVTZ
    Blend: JUN-CC-PVTZ
    Number of shells: 199
    Number of basis function: 525
    Number of Cartesian functions: 585
    Spherical Harmonics?: true
    Max angular momentum: 3

   => Loading Basis Set <=

    Name: (JUN-CC-PVTZ AUX)
    Role: JKFIT
    Keyword: DF_BASIS_SCF
    atoms 1, 5, 8, 11, 15-17           entry C          line   152 file /home/r08543048/miniconda3/share/psi4/basis/jun-cc-pvtz-jkfit.gbs 
    atoms 2-4, 6-7, 9-10, 12-14, 18-25 entry H          line    70 file /home/r08543048/miniconda3/share/psi4/basis/jun-cc-pvtz-jkfit.gbs 

  ==> Pre-Iterations <==

   -------------------------------------------------------
    Irrep   Nso     Nmo     Nalpha   Nbeta   Ndocc  Nsocc
   -------------------------------------------------------
     A        525     525       0       0       0       0
   -------------------------------------------------------
    Total     525     525      13      13      13       0
   -------------------------------------------------------

  ==> Integral Setup <==

  ==> DiskDFJK: Density-Fitted J/K Matrices <==

    J tasked:                  Yes
    K tasked:                  Yes
    wK tasked:                  No
    OpenMP threads:              1
    Integrals threads:           1
    Memory [MiB]:            15735
    Algorithm:                Core
    Integral Cache:           LOAD
    Schwarz Cutoff:          1E-12
    Fitting Condition:       1E-10

   => Auxiliary Basis Set <=

  Basis Set: (JUN-CC-PVTZ AUX)
    Blend: JUN-CC-PVTZ-JKFIT
    Number of shells: 383
    Number of basis function: 1205
    Number of Cartesian functions: 1442
    Spherical Harmonics?: true
    Max angular momentum: 4

  Minimum eigenvalue in the overlap matrix is 4.8195066772E-05.
  Using Symmetric Orthogonalization.

  SCF Guess: Superposition of Atomic Densities via on-the-fly atomic UHF.

  ==> Iterations <==

                           Total Energy        Delta E     RMS |[F,P]|

   @DF-RHF iter SAD:  -117.72579659731616   -1.17726e+02   0.00000e+00 
   @DF-RHF iter   1:  -118.14638309337879   -4.20586e-01   9.81677e-04 DIIS
   @DF-RHF iter   2:  -118.27575941200071   -1.29376e-01   4.64465e-04 DIIS
   @DF-RHF iter   3:  -118.30618177482835   -3.04224e-02   7.80398e-05 DIIS
   @DF-RHF iter   4:  -118.30803395941491   -1.85218e-03   1.53926e-05 DIIS
   @DF-RHF iter   5:  -118.30809229591091   -5.83365e-05   4.32747e-06 DIIS
   @DF-RHF iter   6:  -118.30809691478805   -4.61888e-06   7.77188e-07 DIIS
   @DF-RHF iter   7:  -118.30809708617312   -1.71385e-07   1.46534e-07 DIIS
   @DF-RHF iter   8:  -118.30809709367803   -7.50491e-09   2.57025e-08 DIIS
   @DF-RHF iter   9:  -118.30809709391457   -2.36540e-10   5.06620e-09 DIIS
  Energy and wave function converged.


  ==> Post-Iterations <==

    Orbital Energies [Eh]
    ---------------------

    Doubly Occupied:                                                      

       1A    -11.215605     2A    -11.207879     3A    -11.207841  
       4A     -1.054046     5A     -0.924771     6A     -0.799850  
       7A     -0.624703     8A     -0.598292     9A     -0.549359  
      10A     -0.530118    11A     -0.475629    12A     -0.474912  
      13A     -0.467978  

    Virtual:                                                              

      14A      0.030795    15A      0.043068    16A      0.050568  
      17A      0.056931    18A      0.066804    19A      0.071196  
      20A      0.073654    21A      0.083403    22A      0.084804  
      23A      0.101837    24A      0.106799    25A      0.107190  
      26A      0.114922    27A      0.117358    28A      0.119932  
      29A      0.120657    30A      0.128040    31A      0.143143  
      32A      0.143918    33A      0.145634    34A      0.156468  
      35A      0.158914    36A      0.171783    37A      0.173965  
      38A      0.180476    39A      0.180929    40A      0.198075  
      41A      0.204957    42A      0.230809    43A      0.246368  
      44A      0.257148    45A      0.262170    46A      0.268853  
      47A      0.274816    48A      0.278898    49A      0.285639  
      50A      0.301566    51A      0.305999    52A      0.307503  
      53A      0.320270    54A      0.323211    55A      0.327538  
      56A      0.333215    57A      0.335392    58A      0.344086  
      59A      0.345602    60A      0.352968    61A      0.361976  
      62A      0.364440    63A      0.369084    64A      0.373107  
      65A      0.377733    66A      0.382128    67A      0.387629  
      68A      0.389253    69A      0.395668    70A      0.405011  
      71A      0.407305    72A      0.412592    73A      0.429551  
      74A      0.434005    75A      0.441258    76A      0.449424  
      77A      0.461122    78A      0.464910    79A      0.486126  
      80A      0.495825    81A      0.498822    82A      0.504625  
      83A      0.513143    84A      0.519170    85A      0.523176  
      86A      0.531736    87A      0.545642    88A      0.552472  
      89A      0.556449    90A      0.567915    91A      0.573288  
      92A      0.577428    93A      0.589126    94A      0.594536  
      95A      0.600523    96A      0.613685    97A      0.622538  
      98A      0.624228    99A      0.636391   100A      0.641707  
     101A      0.647111   102A      0.657927   103A      0.662566  
     104A      0.674423   105A      0.681705   106A      0.690793  
     107A      0.694173   108A      0.702192   109A      0.712710  
     110A      0.718828   111A      0.735427   112A      0.749861  
     113A      0.770626   114A      0.779785   115A      0.784307  
     116A      0.797339   117A      0.802802   118A      0.807379  
     119A      0.815008   120A      0.821519   121A      0.825276  
     122A      0.854730   123A      0.866858   124A      0.878043  
     125A      0.885864   126A      0.889713   127A      0.908789  
     128A      0.921336   129A      0.949861   130A      0.982813  
     131A      0.994601   132A      0.998402   133A      1.027489  
     134A      1.043173   135A      1.057013   136A      1.077805  
     137A      1.093015   138A      1.105459   139A      1.107978  
     140A      1.128214   141A      1.140686   142A      1.144756  
     143A      1.151097   144A      1.165122   145A      1.170390  
     146A      1.187506   147A      1.196806   148A      1.203858  
     149A      1.212938   150A      1.229242   151A      1.233807  
     152A      1.245942   153A      1.250091   154A      1.253322  
     155A      1.265792   156A      1.275900   157A      1.290772  
     158A      1.299455   159A      1.302805   160A      1.312239  
     161A      1.326200   162A      1.329076   163A      1.331372  
     164A      1.343918   165A      1.351101   166A      1.363062  
     167A      1.369413   168A      1.381111   169A      1.384072  
     170A      1.394112   171A      1.406003   172A      1.407699  
     173A      1.415836   174A      1.422722   175A      1.441029  
     176A      1.449998   177A      1.453112   178A      1.457173  
     179A      1.477078   180A      1.497154   181A      1.499673  
     182A      1.514190   183A      1.521411   184A      1.532291  
     185A      1.541260   186A      1.547391   187A      1.555432  
     188A      1.563520   189A      1.569869   190A      1.574927  
     191A      1.589104   192A      1.599055   193A      1.608458  
     194A      1.611934   195A      1.619165   196A      1.626386  
     197A      1.633384   198A      1.649116   199A      1.662124  
     200A      1.670271   201A      1.676881   202A      1.681157  
     203A      1.697532   204A      1.719190   205A      1.731976  
     206A      1.742086   207A      1.746119   208A      1.758720  
     209A      1.768678   210A      1.789010   211A      1.812127  
     212A      1.830239   213A      1.842215   214A      1.848446  
     215A      1.866408   216A      1.868380   217A      1.892368  
     218A      1.913235   219A      1.938690   220A      1.951176  
     221A      1.960286   222A      1.973428   223A      1.980585  
     224A      2.002026   225A      2.010353   226A      2.022345  
     227A      2.100459   228A      2.107776   229A      2.112221  
     230A      2.127640   231A      2.173920   232A      2.177973  
     233A      2.234005   234A      2.251948   235A      2.306911  
     236A      2.331482   237A      2.338021   238A      2.387084  
     239A      2.422020   240A      2.450390   241A      2.477497  
     242A      2.487205   243A      2.530612   244A      2.623371  
     245A      2.634939   246A      2.670210   247A      2.678278  
     248A      2.756182   249A      2.770419   250A      2.814274  
     251A      2.833651   252A      2.858538   253A      2.894485  
     254A      2.930764   255A      2.936487   256A      2.971522  
     257A      2.990944   258A      2.996078   259A      3.038346  
     260A      3.104140   261A      3.108180   262A      3.138949  
     263A      3.163628   264A      3.171883   265A      3.222197  
     266A      3.258180   267A      3.292966   268A      3.308892  
     269A      3.321834   270A      3.330686   271A      3.372127  
     272A      3.384721   273A      3.389728   274A      3.422426  
     275A      3.440849   276A      3.462973   277A      3.476680  
     278A      3.478596   279A      3.501466   280A      3.501800  
     281A      3.510871   282A      3.522278   283A      3.535528  
     284A      3.536017   285A      3.548406   286A      3.559390  
     287A      3.582813   288A      3.584843   289A      3.592837  
     290A      3.600113   291A      3.607744   292A      3.620869  
     293A      3.631085   294A      3.635580   295A      3.636963  
     296A      3.651784   297A      3.676976   298A      3.681605  
     299A      3.716387   300A      3.723667   301A      3.728143  
     302A      3.756343   303A      3.778642   304A      3.790254  
     305A      3.792654   306A      3.805103   307A      3.809498  
     308A      3.822387   309A      3.834514   310A      3.845982  
     311A      3.857752   312A      3.860217   313A      3.861146  
     314A      3.870065   315A      3.887526   316A      3.897647  
     317A      3.898212   318A      3.915924   319A      3.922031  
     320A      3.928837   321A      3.940067   322A      3.957012  
     323A      3.967317   324A      3.972244   325A      3.987671  
     326A      3.994512   327A      4.009947   328A      4.055753  
     329A      4.074765   330A      4.082922   331A      4.112459  
     332A      4.124330   333A      4.145897   334A      4.161821  
     335A      4.167938   336A      4.180359   337A      4.207130  
     338A      4.211303   339A      4.223194   340A      4.231237  
     341A      4.246553   342A      4.250767   343A      4.271263  
     344A      4.285393   345A      4.307151   346A      4.309448  
     347A      4.323544   348A      4.331992   349A      4.343671  
     350A      4.357131   351A      4.366096   352A      4.370194  
     353A      4.389462   354A      4.393384   355A      4.402396  
     356A      4.428195   357A      4.435824   358A      4.451817  
     359A      4.473812   360A      4.477410   361A      4.483774  
     362A      4.498454   363A      4.501417   364A      4.508022  
     365A      4.513953   366A      4.535594   367A      4.537577  
     368A      4.545978   369A      4.552536   370A      4.557691  
     371A      4.572761   372A      4.576878   373A      4.581946  
     374A      4.604766   375A      4.608386   376A      4.617243  
     377A      4.622981   378A      4.639262   379A      4.664675  
     380A      4.667580   381A      4.673181   382A      4.692435  
     383A      4.696966   384A      4.710319   385A      4.724850  
     386A      4.740568   387A      4.741970   388A      4.750812  
     389A      4.763431   390A      4.767890   391A      4.778131  
     392A      4.790286   393A      4.802735   394A      4.817502  
     395A      4.820506   396A      4.822651   397A      4.849775  
     398A      4.850755   399A      4.863151   400A      4.877038  
     401A      4.883965   402A      4.892275   403A      4.895277  
     404A      4.908890   405A      4.919456   406A      4.928204  
     407A      4.942584   408A      4.944862   409A      4.950257  
     410A      4.968307   411A      4.980769   412A      4.982757  
     413A      4.992531   414A      5.002174   415A      5.012584  
     416A      5.023396   417A      5.033263   418A      5.039409  
     419A      5.059282   420A      5.069559   421A      5.087340  
     422A      5.124789   423A      5.140189   424A      5.151037  
     425A      5.168755   426A      5.180039   427A      5.200888  
     428A      5.209145   429A      5.235423   430A      5.252894  
     431A      5.266993   432A      5.281478   433A      5.289039  
     434A      5.291130   435A      5.314836   436A      5.340584  
     437A      5.344510   438A      5.359024   439A      5.383451  
     440A      5.401367   441A      5.434924   442A      5.451217  
     443A      5.472026   444A      5.493960   445A      5.514190  
     446A      5.519438   447A      5.556244   448A      5.563862  
     449A      5.588439   450A      5.607327   451A      5.641756  
     452A      5.660083   453A      5.692478   454A      5.723334  
     455A      5.753561   456A      5.767697   457A      5.774238  
     458A      5.791410   459A      5.794965   460A      5.810361  
     461A      5.819569   462A      5.824297   463A      5.833553  
     464A      5.910638   465A      5.927978   466A      5.934691  
     467A      5.950949   468A      5.962848   469A      6.005895  
     470A      6.026976   471A      6.033406   472A      6.066414  
     473A      6.109582   474A      6.114593   475A      6.137556  
     476A      6.260674   477A      6.324174   478A      6.346415  
     479A      6.380689   480A      6.392174   481A      6.394316  
     482A      6.427418   483A      6.467644   484A      6.471882  
     485A      6.483767   486A      6.510638   487A      6.529011  
     488A      6.540961   489A      6.562548   490A      6.570093  
     491A      6.622282   492A      6.741562   493A      6.796078  
     494A      6.813459   495A      6.946040   496A      7.056171  
     497A      7.267891   498A      7.512022   499A      7.538142  
     500A      7.580057   501A      7.595357   502A      7.599219  
     503A      7.678165   504A      7.720899   505A      7.745461  
     506A      7.808971   507A      7.815544   508A      7.849053  
     509A      7.932168   510A      7.941617   511A      8.120219  
     512A      8.295105   513A      8.444972   514A      8.643028  
     515A      9.596223   516A      9.701767   517A      9.892371  
     518A      9.933613   519A     13.951664   520A     14.504867  
     521A     14.684841   522A     43.881177   523A     45.398772  
     524A     45.546472   525A     45.813255  

    Final Occupation by Irrep:
              A 
    DOCC [    13 ]

  @DF-RHF Final Energy:  -118.30809709391457

   => Energetics <=

    Nuclear Repulsion Energy =             82.8187327666949926
    One-Electron Energy =                -321.9916946350697344
    Two-Electron Energy =                 120.8648647744601590
    Total Energy =                       -118.3080970939145686

Computation Completed


Properties will be evaluated at   0.000000,   0.000000,   0.000000 [a0]

Properties computed using the SCF density matrix

  Nuclear Dipole Moment: [e a0]
     X:   107.9470      Y:   -12.9530      Z:     1.1943

  Electronic Dipole Moment: [e a0]
     X:  -107.9553      Y:    12.9533      Z:    -1.1625

  Dipole Moment: [e a0]
     X:    -0.0083      Y:     0.0003      Z:     0.0318     Total:     0.0329

  Dipole Moment: [D]
     X:    -0.0212      Y:     0.0007      Z:     0.0808     Total:     0.0835


*** tstop() called on r282 at Fri Sep 10 20:56:52 2021
Module time:
	user time   =      39.63 seconds =       0.66 minutes
	system time =       0.66 seconds =       0.01 minutes
	total time  =         40 seconds =       0.67 minutes
Total time:
	user time   =     150.24 seconds =       2.50 minutes
	system time =       2.86 seconds =       0.05 minutes
	total time  =        153 seconds =       2.55 minutes
  Constructing Basis Sets for SAPT...

   => Loading Basis Set <=

    Name: (JUN-CC-PVTZ AUX)
    Role: RIFIT
    Keyword: DF_BASIS_SAPT
    atoms 1, 5, 8, 11, 15-17           entry C          line   132 file /home/r08543048/miniconda3/share/psi4/basis/jun-cc-pvtz-ri.gbs 
    atoms 2-4, 6-7, 9-10, 12-14, 18-25 entry H          line    30 file /home/r08543048/miniconda3/share/psi4/basis/jun-cc-pvtz-ri.gbs 


  //>>>>>>>>>>>>>>>>>>>>>>>>>>>>>>>>>>>//
  //               SAPT0               //
  //<<<<<<<<<<<<<<<<<<<<<<<<<<<<<<<<<<<//


*** tstart() called on r282
*** at Fri Sep 10 20:56:52 2021

        SAPT0  
    Ed Hohenstein
     6 June 2009

      Orbital Information
  --------------------------
    NSO        =       525
    NMO        =       525
    NRI        =      1219
    NOCC A     =        17
    NOCC B     =        13
    FOCC A     =         0
    FOCC B     =         0
    NVIR A     =       508
    NVIR B     =       512

    Elst10,r            =    -0.001682128807 [Eh]
    Exch10              =     0.005524631824 [Eh]
    Exch10 (S^2)        =     0.005514110297 [Eh]

    Iter     Energy [mEh]          dE [mEh]         Residual      Time [s]
       1      -0.37228565       0.372285649       2.463251523             1
       2      -0.45513669       0.082851038       0.433432430             2
       3      -0.45448407      -0.000652613       0.161084163             3
       4      -0.45338776      -0.001096316       0.037067297             4
       5      -0.45351849       0.000130732       0.010145155             5
       6      -0.45355723       0.000038737       0.002051185             7
       7      -0.45355069      -0.000006537       0.000547466             8
       8      -0.45354968      -0.000001015       0.000137221             9
       9      -0.45355009       0.000000414       0.000026752            10
      10      -0.45355009       0.000000000       0.000006140            11
      11      -0.45355008      -0.000000013       0.000001583            12
      12      -0.45355008       0.000000000       0.000000476            13

    CHF Iterations converged


    Iter     Energy [mEh]          dE [mEh]         Residual      Time [s]
       1      -0.35295332       0.352953318       2.412368216             2
       2      -0.43109594       0.078142622       0.434788682             5
       3      -0.43081691      -0.000279033       0.150046249             7
       4      -0.42978232      -0.001034586       0.036170631             9
       5      -0.42986692       0.000084601       0.009329773            11
       6      -0.42991097       0.000044051       0.001648687            13
       7      -0.42990489      -0.000006086       0.000393366            15
       8      -0.42990448      -0.000000405       0.000110537            17
       9      -0.42990479       0.000000306       0.000020830            20
      10      -0.42990479       0.000000001       0.000004489            22
      11      -0.42990478      -0.000000009       0.000001211            24
      12      -0.42990478      -0.000000000       0.000000311            26

    CHF Iterations converged

    Ind20,r (A<-B)      =    -0.000453550077 [Eh]
    Ind20,r (B<-A)      =    -0.000429904779 [Eh]
    Ind20,r             =    -0.000883454856 [Eh]
    Exch-Ind20,r (A<-B) =     0.000399831912 [Eh]
    Exch-Ind20,r (B<-A) =     0.000374931319 [Eh]
    Exch-Ind20,r        =     0.000774763231 [Eh]
    Disp20              =    -0.007729970222 [Eh]
    Disp20 (SS)         =    -0.003864985111 [Eh]
    Disp20 (OS)         =    -0.003864985111 [Eh]
    Exch-Disp20         =     0.000617978962 [Eh]
    Exch-Disp20 (SS)    =     0.000404981052 [Eh]
    Exch-Disp20 (OS)    =     0.000212997911 [Eh]

    SAPT Results 
  --------------------------------------------------------------------------------------------------------
    Electrostatics                 -1.68212881 [mEh]      -1.05555176 [kcal/mol]      -4.41642857 [kJ/mol]
      Elst10,r                     -1.68212881 [mEh]      -1.05555176 [kcal/mol]      -4.41642857 [kJ/mol]

    Exchange                        5.52463182 [mEh]       3.46675881 [kcal/mol]      14.50491886 [kJ/mol]
      Exch10                        5.52463182 [mEh]       3.46675881 [kcal/mol]      14.50491886 [kJ/mol]
      Exch10(S^2)                   5.51411030 [mEh]       3.46015645 [kcal/mol]      14.47729459 [kJ/mol]

    Induction                      -0.48904441 [mEh]      -0.30688000 [kcal/mol]      -1.28398592 [kJ/mol]
      Ind20,r                      -0.88345486 [mEh]      -0.55437629 [kcal/mol]      -2.31951041 [kJ/mol]
      Exch-Ind20,r                  0.77476323 [mEh]       0.48617127 [kcal/mol]       2.03414058 [kJ/mol]
      delta HF,r (2)               -0.38035279 [mEh]      -0.23867498 [kcal/mol]      -0.99861610 [kJ/mol]

    Dispersion                     -7.11199126 [mEh]      -4.46284189 [kcal/mol]     -18.67253048 [kJ/mol]
      Disp20                       -7.72997022 [mEh]      -4.85062955 [kcal/mol]     -20.29503402 [kJ/mol]
      Exch-Disp20                   0.61797896 [mEh]       0.38778765 [kcal/mol]       1.62250354 [kJ/mol]
      Disp20 (SS)                  -3.86498511 [mEh]      -2.42531477 [kcal/mol]     -10.14751701 [kJ/mol]
      Disp20 (OS)                  -3.86498511 [mEh]      -2.42531477 [kcal/mol]     -10.14751701 [kJ/mol]
      Exch-Disp20 (SS)              0.40498105 [mEh]       0.25412945 [kcal/mol]       1.06327760 [kJ/mol]
      Exch-Disp20 (OS)              0.21299791 [mEh]       0.13365821 [kcal/mol]       0.55922594 [kJ/mol]

  Total HF                          3.35345861 [mEh]       2.10432705 [kcal/mol]       8.80450436 [kJ/mol]
  Total SAPT0                      -3.75853265 [mEh]      -2.35851485 [kcal/mol]      -9.86802612 [kJ/mol]

  Special recipe for scaled SAPT0 (see Manual):
    Electrostatics sSAPT0          -1.68212881 [mEh]      -1.05555176 [kcal/mol]      -4.41642857 [kJ/mol]
    Exchange sSAPT0                 5.52463182 [mEh]       3.46675881 [kcal/mol]      14.50491886 [kJ/mol]
    Induction sSAPT0               -0.48460094 [mEh]      -0.30409168 [kcal/mol]      -1.27231960 [kJ/mol]
    Dispersion sSAPT0              -7.10844699 [mEh]      -4.46061783 [kcal/mol]     -18.66322500 [kJ/mol]
  Total sSAPT0                     -3.75054492 [mEh]      -2.35350247 [kcal/mol]      -9.84705432 [kJ/mol]
  --------------------------------------------------------------------------------------------------------

*** tstop() called on r282 at Fri Sep 10 20:59:21 2021
Module time:
	user time   =     130.27 seconds =       2.17 minutes
	system time =      17.45 seconds =       0.29 minutes
	total time  =        149 seconds =       2.48 minutes
Total time:
	user time   =     280.68 seconds =       4.68 minutes
	system time =      20.31 seconds =       0.34 minutes
	total time  =        302 seconds =       5.03 minutes

    Psi4 stopped on: Friday, 10 September 2021 08:59PM
    Psi4 wall time for execution: 0:05:02.13

*** Psi4 exiting successfully. Buy a developer a beer!
