
    -----------------------------------------------------------------------
          Psi4: An Open-Source Ab Initio Electronic Structure Package
                               Psi4 1.3.2 release

                         Git: Rev {HEAD} ecbda83 


    R. M. Parrish, L. A. Burns, D. G. A. Smith, A. C. Simmonett,
    A. E. DePrince III, E. G. Hohenstein, U. Bozkaya, A. Yu. Sokolov,
    R. Di Remigio, R. M. Richard, J. F. Gonthier, A. M. James,
    H. R. McAlexander, A. Kumar, M. Saitow, X. Wang, B. P. Pritchard,
    P. Verma, H. F. Schaefer III, K. Patkowski, R. A. King, E. F. Valeev,
    F. A. Evangelista, J. M. Turney, T. D. Crawford, and C. D. Sherrill,
    J. Chem. Theory Comput. 13(7) pp 3185--3197 (2017).
    (doi: 10.1021/acs.jctc.7b00174)


                         Additional Contributions by
    P. Kraus, H. Kruse, M. H. Lechner, M. C. Schieber, R. A. Shaw,
    A. Alenaizan, R. Galvelis, Z. L. Glick, S. Lehtola, and J. P. Misiewicz

    -----------------------------------------------------------------------


    Psi4 started on: Friday, 10 September 2021 08:30PM

    Process ID: 57087
    Host:       r282
    PSIDATADIR: /home/r08543048/miniconda3/share/psi4
    Memory:     500.0 MiB
    Threads:    1
    
  ==> Input File <==

--------------------------------------------------------------------------
# Any line starting with the # character is a comment line
#! Sample  computation

memory 22 gb

molecule Dimer {
0 1
 C -1.542563   -2.528729   -0.309312
 H -2.518104   -2.551806   -0.796834
 H -0.781277   -2.567376   -1.089677
 H -1.447859   -3.430724    0.294902
 C -1.390535   -1.268351    0.533209
 H -0.419745   -1.275477    1.036011
 H -2.147740   -1.258123    1.321924
 C -1.517140    0.004285   -0.294376
 H -0.756563    0.001108   -1.082873
 H -2.486248    0.007499   -0.804571
 C -1.381271    1.276955    0.531685
 H -0.410382    1.277661    1.034340
 H -2.138410    1.273176    1.320521
 C -1.524352    2.537316   -0.312419
 H -2.500087    2.567161   -0.799185
 H -1.422249    3.439406    0.290446
 H -0.763488    2.569045   -1.093519

 --
0 1
 C 2.359481    1.256224   -0.275270
 C 2.449426   -0.009309    0.568370
 C 2.344975   -1.268038   -0.283744
 H 3.168908    1.290844   -1.005954
 H 1.416750    1.287362   -0.823741
 H 2.420235    2.155973    0.336922
 H 1.654736   -0.007228    1.317651
 H 3.392113   -0.016578    1.119503
 H 2.394161   -2.172537    0.322458
 H 1.402495   -1.283916   -0.833273
 H 3.154635   -1.307590   -1.013919




units angstrom

no_reorient
symmetry c1
}

set globals{
  basis jun-cc-pvtz
}

energy('sapt0')


--------------------------------------------------------------------------

  Memory set to  20.489 GiB by Python driver.

  //>>>>>>>>>>>>>>>>>>>>>>>>>>>>>>>>>>>//
  //              Dimer HF             //
  //<<<<<<<<<<<<<<<<<<<<<<<<<<<<<<<<<<<//


*** tstart() called on r282
*** at Fri Sep 10 20:30:31 2021

   => Loading Basis Set <=

    Name: JUN-CC-PVTZ
    Role: ORBITAL
    Keyword: BASIS
    atoms 1, 5, 8, 11, 14, 18-20              entry C          line   217 file /home/r08543048/miniconda3/share/psi4/basis/jun-cc-pvtz.gbs 
    atoms 2-4, 6-7, 9-10, 12-13, 15-17, 21-28 entry H          line    36 file /home/r08543048/miniconda3/share/psi4/basis/jun-cc-pvtz.gbs 


         ---------------------------------------------------------
                                   SCF
               by Justin Turney, Rob Parrish, Andy Simmonett
                          and Daniel G. A. Smith
                              RHF Reference
                        1 Threads,  20980 MiB Core
         ---------------------------------------------------------

  ==> Geometry <==

    Molecular point group: c1
    Full point group: C1

    Geometry (in Angstrom), charge = 0, multiplicity = 1:

       Center              X                  Y                   Z               Mass       
    ------------   -----------------  -----------------  -----------------  -----------------
         C           -1.532211586300    -2.528747073986    -0.317416781670    12.000000000000
         H           -2.507752586300    -2.551824073986    -0.804938781670     1.007825032230
         H           -0.770925586300    -2.567394073986    -1.097781781670     1.007825032230
         H           -1.437507586300    -3.430742073986     0.286797218330     1.007825032230
         C           -1.380183586300    -1.268369073986     0.525104218330    12.000000000000
         H           -0.409393586300    -1.275495073986     1.027906218330     1.007825032230
         H           -2.137388586300    -1.258141073986     1.313819218330     1.007825032230
         C           -1.506788586300     0.004266926014    -0.302480781670    12.000000000000
         H           -0.746211586300     0.001089926014    -1.090977781670     1.007825032230
         H           -2.475896586300     0.007480926014    -0.812675781670     1.007825032230
         C           -1.370919586300     1.276936926014     0.523580218330    12.000000000000
         H           -0.400030586300     1.277642926014     1.026235218330     1.007825032230
         H           -2.128058586300     1.273157926014     1.312416218330     1.007825032230
         C           -1.514000586300     2.537297926014    -0.320523781670    12.000000000000
         H           -2.489735586300     2.567142926014    -0.807289781670     1.007825032230
         H           -1.411897586300     3.439387926014     0.282341218330     1.007825032230
         H           -0.753136586300     2.569026926014    -1.101623781670     1.007825032230
         C            2.369832413700     1.256205926014    -0.283374781670    12.000000000000
         C            2.459777413700    -0.009327073986     0.560265218330    12.000000000000
         C            2.355326413700    -1.268056073986    -0.291848781670    12.000000000000
         H            3.179259413700     1.290825926014    -1.014058781670     1.007825032230
         H            1.427101413700     1.287343926014    -0.831845781670     1.007825032230
         H            2.430586413700     2.155954926014     0.328817218330     1.007825032230
         H            1.665087413700    -0.007246073986     1.309546218330     1.007825032230
         H            3.402464413700    -0.016596073986     1.111398218330     1.007825032230
         H            2.404512413700    -2.172555073986     0.314353218330     1.007825032230
         H            1.412846413700    -1.283934073986    -0.841377781670     1.007825032230
         H            3.164986413700    -1.307608073986    -1.022023781670     1.007825032230

  Running in c1 symmetry.

  Rotational constants: A =      0.04987  B =      0.03717  C =      0.02330 [cm^-1]
  Rotational constants: A =   1495.12625  B =   1114.32375  C =    698.37750 [MHz]
  Nuclear repulsion =  400.533531219243287

  Charge       = 0
  Multiplicity = 1
  Electrons    = 68
  Nalpha       = 34
  Nbeta        = 34

  ==> Algorithm <==

  SCF Algorithm Type is DF.
  DIIS enabled.
  MOM disabled.
  Fractional occupation disabled.
  Guess Type is SAD.
  Energy threshold   = 1.00e-08
  Density threshold  = 1.00e-08
  Integral threshold = 0.00e+00

  ==> Primary Basis <==

  Basis Set: JUN-CC-PVTZ
    Blend: JUN-CC-PVTZ
    Number of shells: 224
    Number of basis function: 592
    Number of Cartesian functions: 660
    Spherical Harmonics?: true
    Max angular momentum: 3

   => Loading Basis Set <=

    Name: (JUN-CC-PVTZ AUX)
    Role: JKFIT
    Keyword: DF_BASIS_SCF
    atoms 1, 5, 8, 11, 14, 18-20              entry C          line   152 file /home/r08543048/miniconda3/share/psi4/basis/jun-cc-pvtz-jkfit.gbs 
    atoms 2-4, 6-7, 9-10, 12-13, 15-17, 21-28 entry H          line    70 file /home/r08543048/miniconda3/share/psi4/basis/jun-cc-pvtz-jkfit.gbs 

  ==> Pre-Iterations <==

   -------------------------------------------------------
    Irrep   Nso     Nmo     Nalpha   Nbeta   Ndocc  Nsocc
   -------------------------------------------------------
     A        592     592       0       0       0       0
   -------------------------------------------------------
    Total     592     592      34      34      34       0
   -------------------------------------------------------

  ==> Integral Setup <==

  ==> DiskDFJK: Density-Fitted J/K Matrices <==

    J tasked:                  Yes
    K tasked:                  Yes
    wK tasked:                  No
    OpenMP threads:              1
    Integrals threads:           1
    Memory [MiB]:            15735
    Algorithm:                Core
    Integral Cache:           SAVE
    Schwarz Cutoff:          1E-12
    Fitting Condition:       1E-10

   => Auxiliary Basis Set <=

  Basis Set: (JUN-CC-PVTZ AUX)
    Blend: JUN-CC-PVTZ-JKFIT
    Number of shells: 432
    Number of basis function: 1360
    Number of Cartesian functions: 1628
    Spherical Harmonics?: true
    Max angular momentum: 4

  Minimum eigenvalue in the overlap matrix is 2.8877169231E-05.
  Using Symmetric Orthogonalization.

  SCF Guess: Superposition of Atomic Densities via on-the-fly atomic UHF.

  ==> Iterations <==

                           Total Energy        Delta E     RMS |[F,P]|

   @DF-RHF iter SAD:  -313.77579206478987   -3.13776e+02   0.00000e+00 
   @DF-RHF iter   1:  -314.29998008092406   -5.24188e-01   1.36507e-03 DIIS
   @DF-RHF iter   2:  -314.63056665884233   -3.30587e-01   6.30544e-04 DIIS
   @DF-RHF iter   3:  -314.70303018175076   -7.24635e-02   1.13771e-04 DIIS
   @DF-RHF iter   4:  -314.70783700254231   -4.80682e-03   2.47706e-05 DIIS
   @DF-RHF iter   5:  -314.70800547827730   -1.68476e-04   6.91974e-06 DIIS
   @DF-RHF iter   6:  -314.70802016866679   -1.46904e-05   1.22163e-06 DIIS
   @DF-RHF iter   7:  -314.70802068314083   -5.14474e-07   2.71885e-07 DIIS
   @DF-RHF iter   8:  -314.70802070969529   -2.65545e-08   6.15427e-08 DIIS
   @DF-RHF iter   9:  -314.70802071080902   -1.11373e-09   1.82414e-08 DIIS
   @DF-RHF iter  10:  -314.70802071092135   -1.12323e-10   4.03548e-09 DIIS
  Energy and wave function converged.


  ==> Post-Iterations <==

    Orbital Energies [Eh]
    ---------------------

    Doubly Occupied:                                                      

       1A    -11.216194     2A    -11.212681     3A    -11.212574  
       4A    -11.210893     5A    -11.208200     6A    -11.208164  
       7A    -11.207262     8A    -11.207244     9A     -1.081424  
      10A     -1.054950    11A     -1.015262    12A     -0.925578  
      13A     -0.918695    14A     -0.819626    15A     -0.801248  
      16A     -0.784792    17A     -0.653753    18A     -0.620184  
      19A     -0.599358    20A     -0.598373    21A     -0.594676  
      22A     -0.553648    23A     -0.549905    24A     -0.547173  
      25A     -0.529998    26A     -0.525783    27A     -0.494023  
      28A     -0.477413    29A     -0.477037    30A     -0.474669  
      31A     -0.473333    32A     -0.460442    33A     -0.455055  
      34A     -0.446507  

    Virtual:                                                              

      35A      0.049636    36A      0.050670    37A      0.052429  
      38A      0.059189    39A      0.069207    40A      0.073907  
      41A      0.076848    42A      0.076950    43A      0.085398  
      44A      0.104360    45A      0.104395    46A      0.111283  
      47A      0.114011    48A      0.116866    49A      0.117844  
      50A      0.121619    51A      0.137846    52A      0.140527  
      53A      0.150866    54A      0.153728    55A      0.156140  
      56A      0.157169    57A      0.165163    58A      0.167953  
      59A      0.184952    60A      0.193920    61A      0.195916  
      62A      0.211429    63A      0.211522    64A      0.219275  
      65A      0.223099    66A      0.228227    67A      0.249159  
      68A      0.257153    69A      0.262238    70A      0.274315  
      71A      0.280532    72A      0.287406    73A      0.292895  
      74A      0.298983    75A      0.301185    76A      0.307272  
      77A      0.309972    78A      0.314516    79A      0.324527  
      80A      0.324951    81A      0.331646    82A      0.332856  
      83A      0.334593    84A      0.340462    85A      0.341010  
      86A      0.346616    87A      0.351470    88A      0.352926  
      89A      0.359935    90A      0.364732    91A      0.366254  
      92A      0.380728    93A      0.383522    94A      0.389322  
      95A      0.396998    96A      0.402082    97A      0.402979  
      98A      0.405942    99A      0.425903   100A      0.426071  
     101A      0.436012   102A      0.437208   103A      0.440093  
     104A      0.444482   105A      0.462028   106A      0.463901  
     107A      0.470436   108A      0.477589   109A      0.487105  
     110A      0.489124   111A      0.499554   112A      0.508511  
     113A      0.517689   114A      0.525207   115A      0.525664  
     116A      0.534254   117A      0.535181   118A      0.540260  
     119A      0.548322   120A      0.565576   121A      0.568131  
     122A      0.568320   123A      0.574109   124A      0.586847  
     125A      0.596051   126A      0.597148   127A      0.606211  
     128A      0.626888   129A      0.627000   130A      0.639981  
     131A      0.641366   132A      0.657193   133A      0.668461  
     134A      0.671728   135A      0.682552   136A      0.682723  
     137A      0.705155   138A      0.705624   139A      0.714867  
     140A      0.718537   141A      0.744756   142A      0.745589  
     143A      0.760188   144A      0.761101   145A      0.761440  
     146A      0.772013   147A      0.777850   148A      0.789381  
     149A      0.794073   150A      0.801046   151A      0.808074  
     152A      0.818683   153A      0.821962   154A      0.838238  
     155A      0.839407   156A      0.840388   157A      0.844519  
     158A      0.859557   159A      0.860748   160A      0.863259  
     161A      0.871954   162A      0.876908   163A      0.888355  
     164A      0.896297   165A      0.899734   166A      0.899820  
     167A      0.908360   168A      0.910342   169A      0.922755  
     170A      0.933941   171A      0.937787   172A      0.948817  
     173A      0.963648   174A      0.982405   175A      0.984090  
     176A      0.986723   177A      0.998696   178A      1.022067  
     179A      1.029389   180A      1.030457   181A      1.036340  
     182A      1.046917   183A      1.064894   184A      1.072629  
     185A      1.099331   186A      1.108582   187A      1.130067  
     188A      1.146741   189A      1.156850   190A      1.175458  
     191A      1.191420   192A      1.193903   193A      1.217241  
     194A      1.227980   195A      1.234757   196A      1.256134  
     197A      1.257061   198A      1.258386   199A      1.269346  
     200A      1.279601   201A      1.287876   202A      1.308595  
     203A      1.314305   204A      1.317400   205A      1.343131  
     206A      1.343944   207A      1.349891   208A      1.364537  
     209A      1.366756   210A      1.381378   211A      1.381679  
     212A      1.391737   213A      1.395147   214A      1.397537  
     215A      1.412552   216A      1.425724   217A      1.433757  
     218A      1.438052   219A      1.447898   220A      1.458438  
     221A      1.461792   222A      1.465843   223A      1.469505  
     224A      1.471346   225A      1.489476   226A      1.505845  
     227A      1.510681   228A      1.527112   229A      1.537508  
     230A      1.540655   231A      1.557730   232A      1.564161  
     233A      1.570711   234A      1.573921   235A      1.583635  
     236A      1.587286   237A      1.593612   238A      1.602058  
     239A      1.606509   240A      1.608090   241A      1.619787  
     242A      1.635345   243A      1.638825   244A      1.652345  
     245A      1.654440   246A      1.655929   247A      1.674034  
     248A      1.678641   249A      1.694226   250A      1.702613  
     251A      1.713398   252A      1.718643   253A      1.738315  
     254A      1.759545   255A      1.765027   256A      1.774934  
     257A      1.789911   258A      1.807815   259A      1.814613  
     260A      1.814852   261A      1.822901   262A      1.839733  
     263A      1.864425   264A      1.873818   265A      1.876324  
     266A      1.879101   267A      1.910695   268A      1.915567  
     269A      1.937353   270A      1.939394   271A      1.945349  
     272A      1.953782   273A      1.954762   274A      1.963526  
     275A      1.966843   276A      1.978859   277A      2.035640  
     278A      2.045386   279A      2.065269   280A      2.087935  
     281A      2.102570   282A      2.142402   283A      2.163192  
     284A      2.228331   285A      2.728806   286A      2.755536  
     287A      2.756163   288A      2.757356   289A      2.772342  
     290A      2.799972   291A      2.803371   292A      2.826066  
     293A      2.832285   294A      2.846653   295A      2.860828  
     296A      2.867375   297A      2.875353   298A      2.882990  
     299A      2.893757   300A      2.921514   301A      2.926923  
     302A      2.927319   303A      2.948747   304A      2.948957  
     305A      2.963287   306A      2.963382   307A      2.979978  
     308A      2.983878   309A      3.009123   310A      3.028107  
     311A      3.039608   312A      3.056444   313A      3.079679  
     314A      3.089008   315A      3.089967   316A      3.119148  
     317A      3.121522   318A      3.133629   319A      3.134765  
     320A      3.140547   321A      3.158050   322A      3.162352  
     323A      3.166303   324A      3.174747   325A      3.180669  
     326A      3.202597   327A      3.210239   328A      3.226109  
     329A      3.245818   330A      3.251673   331A      3.266941  
     332A      3.268607   333A      3.278205   334A      3.293041  
     335A      3.299034   336A      3.306413   337A      3.319056  
     338A      3.327467   339A      3.337169   340A      3.337881  
     341A      3.351319   342A      3.361459   343A      3.374985  
     344A      3.380198   345A      3.389905   346A      3.390290  
     347A      3.396302   348A      3.400860   349A      3.417126  
     350A      3.427253   351A      3.449213   352A      3.459709  
     353A      3.460032   354A      3.462982   355A      3.465213  
     356A      3.468467   357A      3.482973   358A      3.485484  
     359A      3.490182   360A      3.497233   361A      3.498168  
     362A      3.509910   363A      3.510704   364A      3.522739  
     365A      3.526533   366A      3.531472   367A      3.543139  
     368A      3.555722   369A      3.560912   370A      3.564100  
     371A      3.577437   372A      3.578972   373A      3.582212  
     374A      3.603645   375A      3.612806   376A      3.616916  
     377A      3.619947   378A      3.634174   379A      3.661022  
     380A      3.662398   381A      3.682760   382A      3.684615  
     383A      3.702122   384A      3.705925   385A      3.716631  
     386A      3.731232   387A      3.743230   388A      3.753734  
     389A      3.757866   390A      3.778944   391A      3.788487  
     392A      3.794651   393A      3.801096   394A      3.830854  
     395A      3.834087   396A      3.845692   397A      3.847595  
     398A      3.860207   399A      3.867623   400A      3.873486  
     401A      3.892549   402A      3.904200   403A      3.923111  
     404A      3.931665   405A      3.938723   406A      3.945083  
     407A      3.947559   408A      3.953370   409A      3.965757  
     410A      3.970457   411A      3.979329   412A      3.989139  
     413A      3.989429   414A      4.021640   415A      4.025850  
     416A      4.049172   417A      4.055323   418A      4.095663  
     419A      4.103629   420A      4.122223   421A      4.143829  
     422A      4.150132   423A      4.178063   424A      4.179195  
     425A      4.213455   426A      4.214751   427A      4.229113  
     428A      4.230232   429A      4.247774   430A      4.254559  
     431A      4.259284   432A      4.260622   433A      4.261380  
     434A      4.270431   435A      4.272133   436A      4.303354  
     437A      4.311156   438A      4.313768   439A      4.321951  
     440A      4.335654   441A      4.335983   442A      4.352691  
     443A      4.361469   444A      4.375869   445A      4.377887  
     446A      4.382434   447A      4.393718   448A      4.393935  
     449A      4.403786   450A      4.411055   451A      4.423384  
     452A      4.431972   453A      4.436162   454A      4.448105  
     455A      4.468058   456A      4.479043   457A      4.487864  
     458A      4.488450   459A      4.501055   460A      4.510273  
     461A      4.515461   462A      4.516036   463A      4.535273  
     464A      4.536928   465A      4.547384   466A      4.553699  
     467A      4.570165   468A      4.574531   469A      4.580471  
     470A      4.582436   471A      4.606548   472A      4.611647  
     473A      4.613617   474A      4.629561   475A      4.653397  
     476A      4.658733   477A      4.668811   478A      4.680995  
     479A      4.687153   480A      4.704486   481A      4.710526  
     482A      4.715910   483A      4.747502   484A      4.755529  
     485A      4.766108   486A      4.783218   487A      4.810780  
     488A      4.828442   489A      4.833234   490A      4.843882  
     491A      4.866383   492A      4.871031   493A      4.888308  
     494A      4.899371   495A      4.917056   496A      4.920077  
     497A      4.984776   498A      4.988830   499A      4.992729  
     500A      5.010491   501A      5.039487   502A      5.050782  
     503A      5.093721   504A      5.102157   505A      5.117045  
     506A      5.138930   507A      5.175514   508A      5.181730  
     509A      5.190601   510A      5.204884   511A      5.223450  
     512A      5.225320   513A      5.250568   514A      5.256114  
     515A      5.276815   516A      5.280362   517A      5.287314  
     518A      5.288747   519A      5.296697   520A      5.310384  
     521A      5.315053   522A      5.323773   523A      5.327856  
     524A      5.331771   525A      5.357701   526A      5.373000  
     527A      5.397809   528A      5.403532   529A      5.452442  
     530A      5.455816   531A      5.474187   532A      5.481376  
     533A      5.486239   534A      5.504388   535A      5.514943  
     536A      5.548749   537A      5.560316   538A      5.585182  
     539A      5.603935   540A      5.622328   541A      5.643910  
     542A      5.668225   543A      5.693692   544A      5.725680  
     545A      5.752420   546A      5.764097   547A      5.769581  
     548A      5.773875   549A      5.776363   550A      5.778461  
     551A      5.790111   552A      5.806904   553A      5.817473  
     554A      5.821453   555A      5.834063   556A      5.835923  
     557A      5.891055   558A      5.908474   559A      5.923965  
     560A      5.932215   561A      5.932581   562A      5.947422  
     563A      5.962586   564A      5.975257   565A      5.976702  
     566A      5.991491   567A      6.018158   568A      6.020685  
     569A      6.104165   570A      6.121374   571A      6.185012  
     572A      6.252027   573A      6.478234   574A      6.519051  
     575A      6.520992   576A      6.536820   577A      6.537922  
     578A      6.546463   579A      6.550874   580A      6.565585  
     581A      6.583896   582A      6.632672   583A      6.660878  
     584A      6.662818   585A     13.729468   586A     13.847768  
     587A     14.154187   588A     14.409996   589A     14.547551  
     590A     14.571822   591A     14.647077   592A     14.799663  

    Final Occupation by Irrep:
              A 
    DOCC [    34 ]

  @DF-RHF Final Energy:  -314.70802071092135

   => Energetics <=

    Nuclear Repulsion Energy =            400.5335312192432866
    One-Electron Energy =               -1217.2508706270759831
    Two-Electron Energy =                 502.0093186969113503
    Total Energy =                       -314.7080207109213461

Computation Completed


Properties will be evaluated at   0.000000,   0.000000,   0.000000 [a0]

Properties computed using the SCF density matrix

  Nuclear Dipole Moment: [e a0]
     X:     1.3302      Y:    -0.0023      Z:    -1.0415

  Electronic Dipole Moment: [e a0]
     X:    -1.3154      Y:     0.0022      Z:     1.1098

  Dipole Moment: [e a0]
     X:     0.0148      Y:    -0.0001      Z:     0.0683     Total:     0.0699

  Dipole Moment: [D]
     X:     0.0377      Y:    -0.0002      Z:     0.1735     Total:     0.1776


*** tstop() called on r282 at Fri Sep 10 20:32:26 2021
Module time:
	user time   =     112.83 seconds =       1.88 minutes
	system time =       2.09 seconds =       0.03 minutes
	total time  =        115 seconds =       1.92 minutes
Total time:
	user time   =     112.83 seconds =       1.88 minutes
	system time =       2.09 seconds =       0.03 minutes
	total time  =        115 seconds =       1.92 minutes

  //>>>>>>>>>>>>>>>>>>>>>>>>>>>>>>>>>>>//
  //            Monomer A HF           //
  //<<<<<<<<<<<<<<<<<<<<<<<<<<<<<<<<<<<//


*** tstart() called on r282
*** at Fri Sep 10 20:32:26 2021

   => Loading Basis Set <=

    Name: JUN-CC-PVTZ
    Role: ORBITAL
    Keyword: BASIS
    atoms 1, 5, 8, 11, 14, 18-20              entry C          line   217 file /home/r08543048/miniconda3/share/psi4/basis/jun-cc-pvtz.gbs 
    atoms 2-4, 6-7, 9-10, 12-13, 15-17, 21-28 entry H          line    36 file /home/r08543048/miniconda3/share/psi4/basis/jun-cc-pvtz.gbs 


         ---------------------------------------------------------
                                   SCF
               by Justin Turney, Rob Parrish, Andy Simmonett
                          and Daniel G. A. Smith
                              RHF Reference
                        1 Threads,  20980 MiB Core
         ---------------------------------------------------------

  ==> Geometry <==

    Molecular point group: c1
    Full point group: C1

    Geometry (in Angstrom), charge = 0, multiplicity = 1:

       Center              X                  Y                   Z               Mass       
    ------------   -----------------  -----------------  -----------------  -----------------
         C           -1.532211586300    -2.528747073986    -0.317416781670    12.000000000000
         H           -2.507752586300    -2.551824073986    -0.804938781670     1.007825032230
         H           -0.770925586300    -2.567394073986    -1.097781781670     1.007825032230
         H           -1.437507586300    -3.430742073986     0.286797218330     1.007825032230
         C           -1.380183586300    -1.268369073986     0.525104218330    12.000000000000
         H           -0.409393586300    -1.275495073986     1.027906218330     1.007825032230
         H           -2.137388586300    -1.258141073986     1.313819218330     1.007825032230
         C           -1.506788586300     0.004266926014    -0.302480781670    12.000000000000
         H           -0.746211586300     0.001089926014    -1.090977781670     1.007825032230
         H           -2.475896586300     0.007480926014    -0.812675781670     1.007825032230
         C           -1.370919586300     1.276936926014     0.523580218330    12.000000000000
         H           -0.400030586300     1.277642926014     1.026235218330     1.007825032230
         H           -2.128058586300     1.273157926014     1.312416218330     1.007825032230
         C           -1.514000586300     2.537297926014    -0.320523781670    12.000000000000
         H           -2.489735586300     2.567142926014    -0.807289781670     1.007825032230
         H           -1.411897586300     3.439387926014     0.282341218330     1.007825032230
         H           -0.753136586300     2.569026926014    -1.101623781670     1.007825032230
      Gh(C)           2.369832413700     1.256205926014    -0.283374781670    12.000000000000
      Gh(C)           2.459777413700    -0.009327073986     0.560265218330    12.000000000000
      Gh(C)           2.355326413700    -1.268056073986    -0.291848781670    12.000000000000
      Gh(H)           3.179259413700     1.290825926014    -1.014058781670     1.007825032230
      Gh(H)           1.427101413700     1.287343926014    -0.831845781670     1.007825032230
      Gh(H)           2.430586413700     2.155954926014     0.328817218330     1.007825032230
      Gh(H)           1.665087413700    -0.007246073986     1.309546218330     1.007825032230
      Gh(H)           3.402464413700    -0.016596073986     1.111398218330     1.007825032230
      Gh(H)           2.404512413700    -2.172555073986     0.314353218330     1.007825032230
      Gh(H)           1.412846413700    -1.283934073986    -0.841377781670     1.007825032230
      Gh(H)           3.164986413700    -1.307608073986    -1.022023781670     1.007825032230

  Running in c1 symmetry.

  Rotational constants: A =      0.04987  B =      0.03717  C =      0.02330 [cm^-1]
  Rotational constants: A =   1495.12625  B =   1114.32375  C =    698.37750 [MHz]
  Nuclear repulsion =  185.556538027172962

  Charge       = 0
  Multiplicity = 1
  Electrons    = 42
  Nalpha       = 21
  Nbeta        = 21

  ==> Algorithm <==

  SCF Algorithm Type is DF.
  DIIS enabled.
  MOM disabled.
  Fractional occupation disabled.
  Guess Type is SAD.
  Energy threshold   = 1.00e-08
  Density threshold  = 1.00e-08
  Integral threshold = 0.00e+00

  ==> Primary Basis <==

  Basis Set: JUN-CC-PVTZ
    Blend: JUN-CC-PVTZ
    Number of shells: 224
    Number of basis function: 592
    Number of Cartesian functions: 660
    Spherical Harmonics?: true
    Max angular momentum: 3

   => Loading Basis Set <=

    Name: (JUN-CC-PVTZ AUX)
    Role: JKFIT
    Keyword: DF_BASIS_SCF
    atoms 1, 5, 8, 11, 14, 18-20              entry C          line   152 file /home/r08543048/miniconda3/share/psi4/basis/jun-cc-pvtz-jkfit.gbs 
    atoms 2-4, 6-7, 9-10, 12-13, 15-17, 21-28 entry H          line    70 file /home/r08543048/miniconda3/share/psi4/basis/jun-cc-pvtz-jkfit.gbs 

  ==> Pre-Iterations <==

   -------------------------------------------------------
    Irrep   Nso     Nmo     Nalpha   Nbeta   Ndocc  Nsocc
   -------------------------------------------------------
     A        592     592       0       0       0       0
   -------------------------------------------------------
    Total     592     592      21      21      21       0
   -------------------------------------------------------

  ==> Integral Setup <==

  ==> DiskDFJK: Density-Fitted J/K Matrices <==

    J tasked:                  Yes
    K tasked:                  Yes
    wK tasked:                  No
    OpenMP threads:              1
    Integrals threads:           1
    Memory [MiB]:            15735
    Algorithm:                Core
    Integral Cache:           LOAD
    Schwarz Cutoff:          1E-12
    Fitting Condition:       1E-10

   => Auxiliary Basis Set <=

  Basis Set: (JUN-CC-PVTZ AUX)
    Blend: JUN-CC-PVTZ-JKFIT
    Number of shells: 432
    Number of basis function: 1360
    Number of Cartesian functions: 1628
    Spherical Harmonics?: true
    Max angular momentum: 4

  Minimum eigenvalue in the overlap matrix is 2.8877169231E-05.
  Using Symmetric Orthogonalization.

  SCF Guess: Superposition of Atomic Densities via on-the-fly atomic UHF.

  ==> Iterations <==

                           Total Energy        Delta E     RMS |[F,P]|

   @DF-RHF iter SAD:  -195.86221645529056   -1.95862e+02   0.00000e+00 
   @DF-RHF iter   1:  -196.15412319173745   -2.91907e-01   1.06522e-03 DIIS
   @DF-RHF iter   2:  -196.35747439187227   -2.03351e-01   4.85868e-04 DIIS
   @DF-RHF iter   3:  -196.40073724462133   -4.32629e-02   8.70106e-05 DIIS
   @DF-RHF iter   4:  -196.40362563687327   -2.88839e-03   1.81658e-05 DIIS
   @DF-RHF iter   5:  -196.40371630215401   -9.06653e-05   5.54769e-06 DIIS
   @DF-RHF iter   6:  -196.40372543713104   -9.13498e-06   8.39573e-07 DIIS
   @DF-RHF iter   7:  -196.40372571376287   -2.76632e-07   1.74856e-07 DIIS
   @DF-RHF iter   8:  -196.40372572637199   -1.26091e-08   3.40683e-08 DIIS
   @DF-RHF iter   9:  -196.40372572686221   -4.90218e-10   1.07792e-08 DIIS
   @DF-RHF iter  10:  -196.40372572689833   -3.61240e-11   2.85573e-09 DIIS
  Energy and wave function converged.


  ==> Post-Iterations <==

    Orbital Energies [Eh]
    ---------------------

    Doubly Occupied:                                                      

       1A    -11.212947     2A    -11.212872     3A    -11.210585  
       4A    -11.207346     5A    -11.207344     6A     -1.080833  
       7A     -1.015069     8A     -0.918497     9A     -0.819485  
      10A     -0.784540    11A     -0.647052    12A     -0.598099  
      13A     -0.592763    14A     -0.553459    15A     -0.547069  
      16A     -0.525357    17A     -0.494279    18A     -0.475925  
      19A     -0.461620    20A     -0.459047    21A     -0.446434  

    Virtual:                                                              

      22A      0.034004    23A      0.046410    24A      0.048838  
      25A      0.053886    26A      0.064440    27A      0.071041  
      28A      0.074719    29A      0.076201    30A      0.083554  
      31A      0.097585    32A      0.103176    33A      0.103527  
      34A      0.108603    35A      0.112214    36A      0.116978  
      37A      0.119779    38A      0.124795    39A      0.134088  
      40A      0.138629    41A      0.148360    42A      0.150716  
      43A      0.156322    44A      0.159489    45A      0.164133  
      46A      0.169136    47A      0.172392    48A      0.187702  
      49A      0.200074    50A      0.206609    51A      0.207932  
      52A      0.216988    53A      0.221186    54A      0.230918  
      55A      0.247305    56A      0.259736    57A      0.260448  
      58A      0.275222    59A      0.276015    60A      0.283623  
      61A      0.288163    62A      0.296553    63A      0.304010  
      64A      0.305637    65A      0.307666    66A      0.323432  
      67A      0.324494    68A      0.327805    69A      0.331425  
      70A      0.335527    71A      0.340397    72A      0.347862  
      73A      0.352400    74A      0.359456    75A      0.359961  
      76A      0.370862    77A      0.375839    78A      0.379707  
      79A      0.385330    80A      0.389785    81A      0.397242  
      82A      0.399436    83A      0.400289    84A      0.402959  
      85A      0.405020    86A      0.413684    87A      0.431882  
      88A      0.438571    89A      0.440404    90A      0.444795  
      91A      0.448714    92A      0.454246    93A      0.462579  
      94A      0.473889    95A      0.482847    96A      0.495188  
      97A      0.496797    98A      0.503398    99A      0.510279  
     100A      0.520387   101A      0.531802   102A      0.534248  
     103A      0.542904   104A      0.543868   105A      0.545223  
     106A      0.568103   107A      0.569880   108A      0.570117  
     109A      0.577310   110A      0.579285   111A      0.579898  
     112A      0.593849   113A      0.602232   114A      0.604202  
     115A      0.621207   116A      0.626482   117A      0.634238  
     118A      0.636969   119A      0.640887   120A      0.644447  
     121A      0.660758   122A      0.669037   123A      0.669810  
     124A      0.682442   125A      0.687798   126A      0.689701  
     127A      0.706515   128A      0.707006   129A      0.714198  
     130A      0.745065   131A      0.746391   132A      0.757364  
     133A      0.761675   134A      0.779398   135A      0.785611  
     136A      0.787879   137A      0.794472   138A      0.807190  
     139A      0.809343   140A      0.812196   141A      0.831483  
     142A      0.846745   143A      0.847164   144A      0.857210  
     145A      0.867950   146A      0.878534   147A      0.881922  
     148A      0.901258   149A      0.902488   150A      0.920252  
     151A      0.926591   152A      0.937807   153A      0.950587  
     154A      0.964875   155A      0.971745   156A      0.995949  
     157A      1.010245   158A      1.010585   159A      1.035845  
     160A      1.039631   161A      1.069630   162A      1.070013  
     163A      1.075021   164A      1.082890   165A      1.088117  
     166A      1.114951   167A      1.134636   168A      1.148646  
     169A      1.149502   170A      1.157100   171A      1.170169  
     172A      1.182878   173A      1.183580   174A      1.186793  
     175A      1.204930   176A      1.206133   177A      1.214262  
     178A      1.227341   179A      1.230687   180A      1.234902  
     181A      1.243955   182A      1.253682   183A      1.279854  
     184A      1.289303   185A      1.298286   186A      1.300191  
     187A      1.305649   188A      1.306933   189A      1.325793  
     190A      1.331591   191A      1.335888   192A      1.361001  
     193A      1.363444   194A      1.374102   195A      1.374883  
     196A      1.385927   197A      1.389215   198A      1.408937  
     199A      1.415678   200A      1.417549   201A      1.421587  
     202A      1.424988   203A      1.435449   204A      1.437917  
     205A      1.449901   206A      1.455403   207A      1.466090  
     208A      1.467018   209A      1.478941   210A      1.487010  
     211A      1.492409   212A      1.511282   213A      1.514706  
     214A      1.519748   215A      1.530991   216A      1.541193  
     217A      1.553665   218A      1.562766   219A      1.568465  
     220A      1.576527   221A      1.584754   222A      1.591978  
     223A      1.595430   224A      1.603594   225A      1.606984  
     226A      1.614442   227A      1.622805   228A      1.628092  
     229A      1.636054   230A      1.651805   231A      1.660302  
     232A      1.669017   233A      1.685467   234A      1.697865  
     235A      1.716168   236A      1.719486   237A      1.720179  
     238A      1.737035   239A      1.745025   240A      1.745726  
     241A      1.768511   242A      1.773276   243A      1.791725  
     244A      1.806386   245A      1.809247   246A      1.823042  
     247A      1.838908   248A      1.864580   249A      1.866205  
     250A      1.872999   251A      1.878869   252A      1.909160  
     253A      1.925990   254A      1.929092   255A      1.944542  
     256A      1.946963   257A      1.954343   258A      1.963878  
     259A      1.969104   260A      2.023076   261A      2.038032  
     262A      2.049857   263A      2.080898   264A      2.096091  
     265A      2.098738   266A      2.116610   267A      2.148366  
     268A      2.155769   269A      2.186759   270A      2.201115  
     271A      2.219535   272A      2.228458   273A      2.347708  
     274A      2.404913   275A      2.424498   276A      2.455511  
     277A      2.461230   278A      2.498040   279A      2.565728  
     280A      2.615634   281A      2.622308   282A      2.757037  
     283A      2.762484   284A      2.804507   285A      2.817843  
     286A      2.859716   287A      2.867376   288A      2.875314  
     289A      2.882346   290A      2.888861   291A      2.927704  
     292A      2.947072   293A      2.948690   294A      2.968698  
     295A      2.993192   296A      3.030354   297A      3.032162  
     298A      3.062652   299A      3.099711   300A      3.130555  
     301A      3.133919   302A      3.135368   303A      3.163867  
     304A      3.168388   305A      3.177468   306A      3.193828  
     307A      3.208358   308A      3.213517   309A      3.255729  
     310A      3.266417   311A      3.287413   312A      3.301457  
     313A      3.312931   314A      3.325999   315A      3.354587  
     316A      3.367714   317A      3.380882   318A      3.382634  
     319A      3.389864   320A      3.422083   321A      3.427004  
     322A      3.439159   323A      3.443715   324A      3.465786  
     325A      3.466914   326A      3.473348   327A      3.491220  
     328A      3.493431   329A      3.498784   330A      3.502820  
     331A      3.509030   332A      3.509289   333A      3.520660  
     334A      3.539178   335A      3.540014   336A      3.557786  
     337A      3.567505   338A      3.579102   339A      3.582424  
     340A      3.594960   341A      3.595032   342A      3.611508  
     343A      3.613663   344A      3.622090   345A      3.622437  
     346A      3.645911   347A      3.651592   348A      3.662623  
     349A      3.680378   350A      3.684969   351A      3.697815  
     352A      3.703102   353A      3.718541   354A      3.729609  
     355A      3.737942   356A      3.741554   357A      3.743159  
     358A      3.780276   359A      3.783266   360A      3.792569  
     361A      3.810005   362A      3.814052   363A      3.831875  
     364A      3.835959   365A      3.841785   366A      3.848793  
     367A      3.870464   368A      3.882864   369A      3.891772  
     370A      3.910359   371A      3.919466   372A      3.930679  
     373A      3.931699   374A      3.941131   375A      3.949093  
     376A      3.949839   377A      3.959870   378A      3.971510  
     379A      3.973010   380A      3.988284   381A      3.996776  
     382A      4.004572   383A      4.032390   384A      4.033679  
     385A      4.063217   386A      4.090889   387A      4.095550  
     388A      4.118498   389A      4.135489   390A      4.153401  
     391A      4.174489   392A      4.178507   393A      4.183193  
     394A      4.187632   395A      4.192529   396A      4.231785  
     397A      4.233877   398A      4.239795   399A      4.245644  
     400A      4.256078   401A      4.260082   402A      4.272798  
     403A      4.280452   404A      4.301659   405A      4.314177  
     406A      4.314826   407A      4.332604   408A      4.352666  
     409A      4.358185   410A      4.365804   411A      4.382896  
     412A      4.387245   413A      4.387729   414A      4.396885  
     415A      4.404697   416A      4.409458   417A      4.422002  
     418A      4.428365   419A      4.455004   420A      4.464713  
     421A      4.474733   422A      4.477031   423A      4.480924  
     424A      4.493120   425A      4.498240   426A      4.504696  
     427A      4.515214   428A      4.528413   429A      4.531018  
     430A      4.535039   431A      4.542569   432A      4.551358  
     433A      4.555311   434A      4.580497   435A      4.585226  
     436A      4.588273   437A      4.605461   438A      4.615704  
     439A      4.620811   440A      4.629842   441A      4.632933  
     442A      4.643884   443A      4.666221   444A      4.666484  
     445A      4.678503   446A      4.680504   447A      4.693435  
     448A      4.697454   449A      4.712900   450A      4.733653  
     451A      4.734120   452A      4.739701   453A      4.759642  
     454A      4.766173   455A      4.796011   456A      4.797999  
     457A      4.814969   458A      4.829930   459A      4.831212  
     460A      4.838850   461A      4.842187   462A      4.843625  
     463A      4.846029   464A      4.877429   465A      4.886619  
     466A      4.907122   467A      4.909002   468A      4.923314  
     469A      4.934684   470A      4.942219   471A      4.947008  
     472A      4.964949   473A      4.973464   474A      4.979660  
     475A      4.982760   476A      5.001802   477A      5.011897  
     478A      5.017328   479A      5.025256   480A      5.026034  
     481A      5.046323   482A      5.055377   483A      5.084324  
     484A      5.087205   485A      5.122337   486A      5.130336  
     487A      5.135271   488A      5.143629   489A      5.167948  
     490A      5.192199   491A      5.197134   492A      5.214708  
     493A      5.215579   494A      5.232491   495A      5.233019  
     496A      5.255748   497A      5.263824   498A      5.295123  
     499A      5.312176   500A      5.314124   501A      5.320259  
     502A      5.329640   503A      5.336613   504A      5.337298  
     505A      5.374441   506A      5.395607   507A      5.414523  
     508A      5.439563   509A      5.452399   510A      5.474098  
     511A      5.491064   512A      5.495659   513A      5.503573  
     514A      5.549342   515A      5.559405   516A      5.599605  
     517A      5.610385   518A      5.623674   519A      5.629682  
     520A      5.631695   521A      5.635897   522A      5.645326  
     523A      5.671726   524A      5.694972   525A      5.766121  
     526A      5.774845   527A      5.781468   528A      5.784622  
     529A      5.818438   530A      5.830515   531A      5.836941  
     532A      5.887060   533A      5.912141   534A      5.915951  
     535A      5.925507   536A      5.948390   537A      5.960530  
     538A      5.966650   539A      5.981915   540A      5.995921  
     541A      6.014494   542A      6.021159   543A      6.069737  
     544A      6.101913   545A      6.184339   546A      6.192386  
     547A      6.204936   548A      6.252900   549A      6.256294  
     550A      6.342154   551A      6.372477   552A      6.392783  
     553A      6.429343   554A      6.452554   555A      6.498839  
     556A      6.501354   557A      6.527553   558A      6.528404  
     559A      6.540072   560A      6.541091   561A      6.608456  
     562A      6.630401   563A      6.661446   564A      6.662036  
     565A      6.767358   566A      6.902680   567A      6.994396  
     568A      7.302695   569A      7.490449   570A      7.565503  
     571A      7.596863   572A      7.646103   573A      7.697750  
     574A      7.698985   575A      7.806752   576A      7.830620  
     577A      7.865370   578A      7.909742   579A      8.053575  
     580A      8.226194   581A      8.526122   582A      9.564888  
     583A      9.911013   584A      9.943710   585A     13.770633  
     586A     14.163054   587A     14.438596   588A     14.578808  
     589A     14.613114   590A     44.305793   591A     45.457140  
     592A     46.006340  

    Final Occupation by Irrep:
              A 
    DOCC [    21 ]

  @DF-RHF Final Energy:  -196.40372572689833

   => Energetics <=

    Nuclear Repulsion Energy =            185.5565380271729623
    One-Electron Energy =                -630.9792760884522522
    Two-Electron Energy =                 249.0190123343809603
    Total Energy =                       -196.4037257268983296

Computation Completed


Properties will be evaluated at   0.000000,   0.000000,   0.000000 [a0]

Properties computed using the SCF density matrix

  Nuclear Dipole Moment: [e a0]
     X:  -116.2041      Y:     0.3395      Z:     0.3473

  Electronic Dipole Moment: [e a0]
     X:   116.2097      Y:    -0.3395      Z:    -0.3147

  Dipole Moment: [e a0]
     X:     0.0056      Y:    -0.0000      Z:     0.0326     Total:     0.0331

  Dipole Moment: [D]
     X:     0.0142      Y:    -0.0000      Z:     0.0829     Total:     0.0841


*** tstop() called on r282 at Fri Sep 10 20:33:21 2021
Module time:
	user time   =      53.58 seconds =       0.89 minutes
	system time =       0.93 seconds =       0.02 minutes
	total time  =         55 seconds =       0.92 minutes
Total time:
	user time   =     166.42 seconds =       2.77 minutes
	system time =       3.02 seconds =       0.05 minutes
	total time  =        170 seconds =       2.83 minutes

  //>>>>>>>>>>>>>>>>>>>>>>>>>>>>>>>>>>>//
  //            Monomer B HF           //
  //<<<<<<<<<<<<<<<<<<<<<<<<<<<<<<<<<<<//


*** tstart() called on r282
*** at Fri Sep 10 20:33:21 2021

   => Loading Basis Set <=

    Name: JUN-CC-PVTZ
    Role: ORBITAL
    Keyword: BASIS
    atoms 1, 5, 8, 11, 14, 18-20              entry C          line   217 file /home/r08543048/miniconda3/share/psi4/basis/jun-cc-pvtz.gbs 
    atoms 2-4, 6-7, 9-10, 12-13, 15-17, 21-28 entry H          line    36 file /home/r08543048/miniconda3/share/psi4/basis/jun-cc-pvtz.gbs 


         ---------------------------------------------------------
                                   SCF
               by Justin Turney, Rob Parrish, Andy Simmonett
                          and Daniel G. A. Smith
                              RHF Reference
                        1 Threads,  20980 MiB Core
         ---------------------------------------------------------

  ==> Geometry <==

    Molecular point group: c1
    Full point group: C1

    Geometry (in Angstrom), charge = 0, multiplicity = 1:

       Center              X                  Y                   Z               Mass       
    ------------   -----------------  -----------------  -----------------  -----------------
      Gh(C)          -1.532211586300    -2.528747073986    -0.317416781670    12.000000000000
      Gh(H)          -2.507752586300    -2.551824073986    -0.804938781670     1.007825032230
      Gh(H)          -0.770925586300    -2.567394073986    -1.097781781670     1.007825032230
      Gh(H)          -1.437507586300    -3.430742073986     0.286797218330     1.007825032230
      Gh(C)          -1.380183586300    -1.268369073986     0.525104218330    12.000000000000
      Gh(H)          -0.409393586300    -1.275495073986     1.027906218330     1.007825032230
      Gh(H)          -2.137388586300    -1.258141073986     1.313819218330     1.007825032230
      Gh(C)          -1.506788586300     0.004266926014    -0.302480781670    12.000000000000
      Gh(H)          -0.746211586300     0.001089926014    -1.090977781670     1.007825032230
      Gh(H)          -2.475896586300     0.007480926014    -0.812675781670     1.007825032230
      Gh(C)          -1.370919586300     1.276936926014     0.523580218330    12.000000000000
      Gh(H)          -0.400030586300     1.277642926014     1.026235218330     1.007825032230
      Gh(H)          -2.128058586300     1.273157926014     1.312416218330     1.007825032230
      Gh(C)          -1.514000586300     2.537297926014    -0.320523781670    12.000000000000
      Gh(H)          -2.489735586300     2.567142926014    -0.807289781670     1.007825032230
      Gh(H)          -1.411897586300     3.439387926014     0.282341218330     1.007825032230
      Gh(H)          -0.753136586300     2.569026926014    -1.101623781670     1.007825032230
         C            2.369832413700     1.256205926014    -0.283374781670    12.000000000000
         C            2.459777413700    -0.009327073986     0.560265218330    12.000000000000
         C            2.355326413700    -1.268056073986    -0.291848781670    12.000000000000
         H            3.179259413700     1.290825926014    -1.014058781670     1.007825032230
         H            1.427101413700     1.287343926014    -0.831845781670     1.007825032230
         H            2.430586413700     2.155954926014     0.328817218330     1.007825032230
         H            1.665087413700    -0.007246073986     1.309546218330     1.007825032230
         H            3.402464413700    -0.016596073986     1.111398218330     1.007825032230
         H            2.404512413700    -2.172555073986     0.314353218330     1.007825032230
         H            1.412846413700    -1.283934073986    -0.841377781670     1.007825032230
         H            3.164986413700    -1.307608073986    -1.022023781670     1.007825032230

  Running in c1 symmetry.

  Rotational constants: A =      0.04987  B =      0.03717  C =      0.02330 [cm^-1]
  Rotational constants: A =   1495.12625  B =   1114.32375  C =    698.37750 [MHz]
  Nuclear repulsion =   82.830150692011742

  Charge       = 0
  Multiplicity = 1
  Electrons    = 26
  Nalpha       = 13
  Nbeta        = 13

  ==> Algorithm <==

  SCF Algorithm Type is DF.
  DIIS enabled.
  MOM disabled.
  Fractional occupation disabled.
  Guess Type is SAD.
  Energy threshold   = 1.00e-08
  Density threshold  = 1.00e-08
  Integral threshold = 0.00e+00

  ==> Primary Basis <==

  Basis Set: JUN-CC-PVTZ
    Blend: JUN-CC-PVTZ
    Number of shells: 224
    Number of basis function: 592
    Number of Cartesian functions: 660
    Spherical Harmonics?: true
    Max angular momentum: 3

   => Loading Basis Set <=

    Name: (JUN-CC-PVTZ AUX)
    Role: JKFIT
    Keyword: DF_BASIS_SCF
    atoms 1, 5, 8, 11, 14, 18-20              entry C          line   152 file /home/r08543048/miniconda3/share/psi4/basis/jun-cc-pvtz-jkfit.gbs 
    atoms 2-4, 6-7, 9-10, 12-13, 15-17, 21-28 entry H          line    70 file /home/r08543048/miniconda3/share/psi4/basis/jun-cc-pvtz-jkfit.gbs 

  ==> Pre-Iterations <==

   -------------------------------------------------------
    Irrep   Nso     Nmo     Nalpha   Nbeta   Ndocc  Nsocc
   -------------------------------------------------------
     A        592     592       0       0       0       0
   -------------------------------------------------------
    Total     592     592      13      13      13       0
   -------------------------------------------------------

  ==> Integral Setup <==

  ==> DiskDFJK: Density-Fitted J/K Matrices <==

    J tasked:                  Yes
    K tasked:                  Yes
    wK tasked:                  No
    OpenMP threads:              1
    Integrals threads:           1
    Memory [MiB]:            15735
    Algorithm:                Core
    Integral Cache:           LOAD
    Schwarz Cutoff:          1E-12
    Fitting Condition:       1E-10

   => Auxiliary Basis Set <=

  Basis Set: (JUN-CC-PVTZ AUX)
    Blend: JUN-CC-PVTZ-JKFIT
    Number of shells: 432
    Number of basis function: 1360
    Number of Cartesian functions: 1628
    Spherical Harmonics?: true
    Max angular momentum: 4

  Minimum eigenvalue in the overlap matrix is 2.8877169231E-05.
  Using Symmetric Orthogonalization.

  SCF Guess: Superposition of Atomic Densities via on-the-fly atomic UHF.

  ==> Iterations <==

                           Total Energy        Delta E     RMS |[F,P]|

   @DF-RHF iter SAD:  -117.72646349331913   -1.17726e+02   0.00000e+00 
   @DF-RHF iter   1:  -118.14633007399055   -4.19867e-01   8.70716e-04 DIIS
   @DF-RHF iter   2:  -118.27571784900324   -1.29388e-01   4.12088e-04 DIIS
   @DF-RHF iter   3:  -118.30616647070417   -3.04486e-02   6.92194e-05 DIIS
   @DF-RHF iter   4:  -118.30801901628551   -1.85255e-03   1.36504e-05 DIIS
   @DF-RHF iter   5:  -118.30807736823778   -5.83520e-05   3.83872e-06 DIIS
   @DF-RHF iter   6:  -118.30808198937763   -4.62114e-06   6.89726e-07 DIIS
   @DF-RHF iter   7:  -118.30808216105028   -1.71673e-07   1.30111e-07 DIIS
   @DF-RHF iter   8:  -118.30808216858179   -7.53151e-09   2.28446e-08 DIIS
   @DF-RHF iter   9:  -118.30808216881920   -2.37407e-10   4.50320e-09 DIIS
  Energy and wave function converged.


  ==> Post-Iterations <==

    Orbital Energies [Eh]
    ---------------------

    Doubly Occupied:                                                      

       1A    -11.215601     2A    -11.207872     3A    -11.207835  
       4A     -1.054119     5A     -0.924673     6A     -0.799869  
       7A     -0.624774     8A     -0.598419     9A     -0.549103  
      10A     -0.530154    11A     -0.475673    12A     -0.474902  
      13A     -0.468007  

    Virtual:                                                              

      14A      0.028943    15A      0.040190    16A      0.047312  
      17A      0.056403    18A      0.066304    19A      0.067546  
      20A      0.072371    21A      0.072731    22A      0.081784  
      23A      0.097803    24A      0.099468    25A      0.105112  
      26A      0.106699    27A      0.113177    28A      0.115047  
      29A      0.117813    30A      0.122348    31A      0.131237  
      32A      0.137565    33A      0.143047    34A      0.148548  
      35A      0.151296    36A      0.157461    37A      0.157701  
      38A      0.167239    39A      0.171648    40A      0.173193  
      41A      0.175460    42A      0.193937    43A      0.204077  
      44A      0.204233    45A      0.213811    46A      0.218855  
      47A      0.255077    48A      0.258215    49A      0.268158  
      50A      0.274326    51A      0.283239    52A      0.285121  
      53A      0.291355    54A      0.298793    55A      0.301225  
      56A      0.303981    57A      0.317156    58A      0.319002  
      59A      0.319418    60A      0.322600    61A      0.333386  
      62A      0.333620    63A      0.345648    64A      0.352416  
      65A      0.354090    66A      0.356878    67A      0.360997  
      68A      0.365238    69A      0.366517    70A      0.371532  
      71A      0.378720    72A      0.382726    73A      0.391698  
      74A      0.394638    75A      0.398694    76A      0.402179  
      77A      0.408749    78A      0.410340    79A      0.415593  
      80A      0.424982    81A      0.437856    82A      0.444603  
      83A      0.446987    84A      0.460319    85A      0.477130  
      86A      0.484159    87A      0.489733    88A      0.500094  
      89A      0.505606    90A      0.508531    91A      0.509530  
      92A      0.526519    93A      0.528352    94A      0.538686  
      95A      0.543107    96A      0.548555    97A      0.551727  
      98A      0.557808    99A      0.564634   100A      0.571980  
     101A      0.581362   102A      0.596730   103A      0.602009  
     104A      0.605443   105A      0.614461   106A      0.619107  
     107A      0.628843   108A      0.632493   109A      0.640654  
     110A      0.641647   111A      0.645435   112A      0.657575  
     113A      0.663994   114A      0.678097   115A      0.680097  
     116A      0.686287   117A      0.695254   118A      0.698284  
     119A      0.706446   120A      0.710843   121A      0.717120  
     122A      0.719785   123A      0.740391   124A      0.743592  
     125A      0.762555   126A      0.767690   127A      0.769848  
     128A      0.780009   129A      0.794178   130A      0.804195  
     131A      0.810267   132A      0.815754   133A      0.823771  
     134A      0.836936   135A      0.855985   136A      0.861230  
     137A      0.873779   138A      0.883376   139A      0.890000  
     140A      0.901629   141A      0.905679   142A      0.926742  
     143A      0.930557   144A      0.949508   145A      0.974581  
     146A      0.998418   147A      0.998840   148A      1.037923  
     149A      1.046096   150A      1.058640   151A      1.083405  
     152A      1.084788   153A      1.103506   154A      1.129606  
     155A      1.137751   156A      1.146486   157A      1.151477  
     158A      1.162350   159A      1.173472   160A      1.173977  
     161A      1.188399   162A      1.193808   163A      1.200150  
     164A      1.205996   165A      1.219813   166A      1.235165  
     167A      1.243236   168A      1.252194   169A      1.252294  
     170A      1.269133   171A      1.274285   172A      1.280842  
     173A      1.283320   174A      1.288310   175A      1.293393  
     176A      1.306451   177A      1.307064   178A      1.319841  
     179A      1.326417   180A      1.335798   181A      1.351390  
     182A      1.351555   183A      1.356676   184A      1.358583  
     185A      1.376448   186A      1.380977   187A      1.384055  
     188A      1.394673   189A      1.400493   190A      1.402902  
     191A      1.410929   192A      1.416657   193A      1.429506  
     194A      1.434657   195A      1.447022   196A      1.450596  
     197A      1.457067   198A      1.467751   199A      1.478610  
     200A      1.480330   201A      1.489360   202A      1.492664  
     203A      1.515945   204A      1.535072   205A      1.537244  
     206A      1.544144   207A      1.546820   208A      1.555947  
     209A      1.556946   210A      1.570431   211A      1.575220  
     212A      1.585529   213A      1.594914   214A      1.600462  
     215A      1.610596   216A      1.611971   217A      1.613772  
     218A      1.624263   219A      1.632425   220A      1.645244  
     221A      1.662341   222A      1.665378   223A      1.669340  
     224A      1.678501   225A      1.684621   226A      1.693413  
     227A      1.705546   228A      1.705936   229A      1.727837  
     230A      1.755380   231A      1.757930   232A      1.759866  
     233A      1.779551   234A      1.798590   235A      1.806802  
     236A      1.832556   237A      1.845856   238A      1.853348  
     239A      1.865822   240A      1.873476   241A      1.885258  
     242A      1.895355   243A      1.923501   244A      1.930964  
     245A      1.945882   246A      1.956457   247A      1.962882  
     248A      1.975937   249A      1.977284   250A      1.984527  
     251A      1.995472   252A      2.022322   253A      2.067616  
     254A      2.071096   255A      2.080140   256A      2.125031  
     257A      2.154577   258A      2.157126   259A      2.185403  
     260A      2.233586   261A      2.253656   262A      2.257285  
     263A      2.271124   264A      2.308058   265A      2.357028  
     266A      2.401882   267A      2.403316   268A      2.419653  
     269A      2.449065   270A      2.458794   271A      2.466442  
     272A      2.485066   273A      2.498197   274A      2.532717  
     275A      2.652384   276A      2.667116   277A      2.703424  
     278A      2.708112   279A      2.743546   280A      2.768229  
     281A      2.773624   282A      2.832468   283A      2.841320  
     284A      2.861476   285A      2.888569   286A      2.920708  
     287A      2.942785   288A      2.976099   289A      2.981595  
     290A      3.024223   291A      3.049901   292A      3.097572  
     293A      3.106297   294A      3.154511   295A      3.175035  
     296A      3.209510   297A      3.250677   298A      3.263548  
     299A      3.284097   300A      3.298662   301A      3.325930  
     302A      3.332772   303A      3.378516   304A      3.382322  
     305A      3.395664   306A      3.426363   307A      3.452953  
     308A      3.472726   309A      3.480040   310A      3.494698  
     311A      3.504331   312A      3.508256   313A      3.534929  
     314A      3.539464   315A      3.545740   316A      3.558379  
     317A      3.558958   318A      3.565341   319A      3.571403  
     320A      3.572006   321A      3.585974   322A      3.588922  
     323A      3.592395   324A      3.598026   325A      3.608453  
     326A      3.624985   327A      3.629827   328A      3.646312  
     329A      3.648525   330A      3.659764   331A      3.672899  
     332A      3.681228   333A      3.723925   334A      3.729881  
     335A      3.759290   336A      3.766179   337A      3.766568  
     338A      3.775548   339A      3.792085   340A      3.795988  
     341A      3.808876   342A      3.815953   343A      3.821416  
     344A      3.830949   345A      3.835929   346A      3.846297  
     347A      3.846617   348A      3.867784   349A      3.874482  
     350A      3.877684   351A      3.890062   352A      3.905486  
     353A      3.907368   354A      3.913654   355A      3.925448  
     356A      3.931677   357A      3.939112   358A      3.953304  
     359A      3.960650   360A      3.967941   361A      3.968444  
     362A      3.986571   363A      3.988290   364A      4.004344  
     365A      4.028280   366A      4.078936   367A      4.088671  
     368A      4.098283   369A      4.100083   370A      4.114412  
     371A      4.117323   372A      4.163966   373A      4.164085  
     374A      4.166421   375A      4.189232   376A      4.195114  
     377A      4.214979   378A      4.220120   379A      4.240946  
     380A      4.241185   381A      4.242422   382A      4.261522  
     383A      4.263195   384A      4.308270   385A      4.308647  
     386A      4.325388   387A      4.329980   388A      4.335385  
     389A      4.343068   390A      4.363178   391A      4.368832  
     392A      4.371177   393A      4.386644   394A      4.392048  
     395A      4.407587   396A      4.420636   397A      4.426957  
     398A      4.431938   399A      4.453276   400A      4.478789  
     401A      4.486906   402A      4.489514   403A      4.493630  
     404A      4.505265   405A      4.512489   406A      4.521594  
     407A      4.530567   408A      4.539647   409A      4.545053  
     410A      4.552737   411A      4.553673   412A      4.561183  
     413A      4.579296   414A      4.582116   415A      4.586975  
     416A      4.594628   417A      4.603842   418A      4.621539  
     419A      4.635262   420A      4.646091   421A      4.656044  
     422A      4.666197   423A      4.669683   424A      4.681608  
     425A      4.684271   426A      4.701604   427A      4.702751  
     428A      4.704300   429A      4.714057   430A      4.731629  
     431A      4.748584   432A      4.756534   433A      4.767784  
     434A      4.772081   435A      4.781725   436A      4.784033  
     437A      4.796414   438A      4.799422   439A      4.808144  
     440A      4.811467   441A      4.828276   442A      4.836068  
     443A      4.836492   444A      4.852372   445A      4.852814  
     446A      4.869351   447A      4.873718   448A      4.889866  
     449A      4.894109   450A      4.895944   451A      4.908896  
     452A      4.909330   453A      4.922821   454A      4.923533  
     455A      4.932584   456A      4.941539   457A      4.947612  
     458A      4.960090   459A      4.972547   460A      4.987501  
     461A      4.989561   462A      4.999049   463A      5.008514  
     464A      5.024548   465A      5.029077   466A      5.038327  
     467A      5.041349   468A      5.052387   469A      5.056161  
     470A      5.088129   471A      5.099587   472A      5.107443  
     473A      5.130212   474A      5.142494   475A      5.163766  
     476A      5.183263   477A      5.187977   478A      5.201672  
     479A      5.204898   480A      5.254599   481A      5.260990  
     482A      5.264353   483A      5.269706   484A      5.287441  
     485A      5.289683   486A      5.301748   487A      5.308196  
     488A      5.327188   489A      5.358863   490A      5.375748  
     491A      5.389394   492A      5.400997   493A      5.435549  
     494A      5.436076   495A      5.475392   496A      5.481960  
     497A      5.496795   498A      5.512567   499A      5.525875  
     500A      5.560577   501A      5.583878   502A      5.589266  
     503A      5.594027   504A      5.602349   505A      5.625526  
     506A      5.670359   507A      5.681321   508A      5.728823  
     509A      5.729800   510A      5.760787   511A      5.773403  
     512A      5.776268   513A      5.785798   514A      5.804439  
     515A      5.809856   516A      5.826689   517A      5.832424  
     518A      5.850442   519A      5.854568   520A      5.888293  
     521A      5.936016   522A      5.936356   523A      5.978555  
     524A      5.979256   525A      5.991025   526A      6.033383  
     527A      6.047459   528A      6.049285   529A      6.064110  
     530A      6.092013   531A      6.118518   532A      6.125486  
     533A      6.248848   534A      6.292574   535A      6.307705  
     536A      6.354911   537A      6.360641   538A      6.387125  
     539A      6.406175   540A      6.406937   541A      6.462615  
     542A      6.481347   543A      6.494528   544A      6.503953  
     545A      6.534465   546A      6.540505   547A      6.555459  
     548A      6.564286   549A      6.569755   550A      6.603686  
     551A      6.624689   552A      6.766268   553A      6.780728  
     554A      6.840274   555A      6.926827   556A      6.951922  
     557A      7.086039   558A      7.254951   559A      7.467518  
     560A      7.519014   561A      7.576247   562A      7.589373  
     563A      7.591523   564A      7.660817   565A      7.684558  
     566A      7.714474   567A      7.727906   568A      7.743663  
     569A      7.808787   570A      7.814465   571A      7.851135  
     572A      7.887030   573A      7.900722   574A      8.044662  
     575A      8.149658   576A      8.322156   577A      8.434767  
     578A      8.628331   579A      8.737457   580A      9.616153  
     581A      9.673509   582A      9.777987   583A      9.906785  
     584A      9.909531   585A     13.832600   586A     14.534332  
     587A     14.786880   588A     43.768231   589A     45.010175  
     590A     45.641350   591A     45.685866   592A     45.824466  

    Final Occupation by Irrep:
              A 
    DOCC [    13 ]

  @DF-RHF Final Energy:  -118.30808216881920

   => Energetics <=

    Nuclear Repulsion Energy =             82.8301506920117419
    One-Electron Energy =                -322.0144628186678801
    Two-Electron Energy =                 120.8762299578369550
    Total Energy =                       -118.3080821688191975

Computation Completed


Properties will be evaluated at   0.000000,   0.000000,   0.000000 [a0]

Properties computed using the SCF density matrix

  Nuclear Dipole Moment: [e a0]
     X:   117.5343      Y:    -0.3418      Z:    -1.3888

  Electronic Dipole Moment: [e a0]
     X:  -117.5303      Y:     0.3417      Z:     1.4216

  Dipole Moment: [e a0]
     X:     0.0039      Y:    -0.0001      Z:     0.0327     Total:     0.0330

  Dipole Moment: [D]
     X:     0.0100      Y:    -0.0003      Z:     0.0832     Total:     0.0838


*** tstop() called on r282 at Fri Sep 10 20:34:21 2021
Module time:
	user time   =      59.09 seconds =       0.98 minutes
	system time =       0.86 seconds =       0.01 minutes
	total time  =         60 seconds =       1.00 minutes
Total time:
	user time   =     225.51 seconds =       3.76 minutes
	system time =       3.88 seconds =       0.06 minutes
	total time  =        230 seconds =       3.83 minutes
  Constructing Basis Sets for SAPT...

   => Loading Basis Set <=

    Name: (JUN-CC-PVTZ AUX)
    Role: RIFIT
    Keyword: DF_BASIS_SAPT
    atoms 1, 5, 8, 11, 14, 18-20              entry C          line   132 file /home/r08543048/miniconda3/share/psi4/basis/jun-cc-pvtz-ri.gbs 
    atoms 2-4, 6-7, 9-10, 12-13, 15-17, 21-28 entry H          line    30 file /home/r08543048/miniconda3/share/psi4/basis/jun-cc-pvtz-ri.gbs 


  //>>>>>>>>>>>>>>>>>>>>>>>>>>>>>>>>>>>//
  //               SAPT0               //
  //<<<<<<<<<<<<<<<<<<<<<<<<<<<<<<<<<<<//


*** tstart() called on r282
*** at Fri Sep 10 20:34:21 2021

        SAPT0  
    Ed Hohenstein
     6 June 2009

      Orbital Information
  --------------------------
    NSO        =       592
    NMO        =       592
    NRI        =      1376
    NOCC A     =        21
    NOCC B     =        13
    FOCC A     =         0
    FOCC B     =         0
    NVIR A     =       571
    NVIR B     =       579

    Elst10,r            =    -0.001814363661 [Eh]
    Exch10              =     0.006149930437 [Eh]
    Exch10 (S^2)        =     0.006141626697 [Eh]

    Iter     Energy [mEh]          dE [mEh]         Residual      Time [s]
       1      -0.37690653       0.376906527       2.414797586             2
       2      -0.45655598       0.079649448       0.390545900             4
       3      -0.45616884      -0.000387134       0.121268766             5
       4      -0.45529527      -0.000873569       0.026722810             7
       5      -0.45537326       0.000077986       0.007629295             9
       6      -0.45540377       0.000030508       0.001570765            10
       7      -0.45539869      -0.000005078       0.000409659            12
       8      -0.45539800      -0.000000690       0.000120752            14
       9      -0.45539823       0.000000234       0.000030159            15
      10      -0.45539829       0.000000059       0.000006462            17
      11      -0.45539828      -0.000000017       0.000001301            19
      12      -0.45539828      -0.000000000       0.000000352            20

    CHF Iterations converged


    Iter     Energy [mEh]          dE [mEh]         Residual      Time [s]
       1      -0.40269785       0.402697854       2.537710672             2
       2      -0.49025977       0.087561913       0.467749627             3
       3      -0.49033843       0.000078662       0.144151146             5
       4      -0.48919072      -0.001147713       0.034125144             6
       5      -0.48925127       0.000060556       0.009143470             8
       6      -0.48930054       0.000049264       0.001642897             9
       7      -0.48929707      -0.000003465       0.000488198            11
       8      -0.48929536      -0.000001712       0.000103177            14
       9      -0.48929572       0.000000361       0.000018744            16
      10      -0.48929570      -0.000000017       0.000003744            17
      11      -0.48929569      -0.000000007       0.000000780            19

    CHF Iterations converged

    Ind20,r (A<-B)      =    -0.000455398275 [Eh]
    Ind20,r (B<-A)      =    -0.000489295695 [Eh]
    Ind20,r             =    -0.000944693970 [Eh]
    Exch-Ind20,r (A<-B) =     0.000393337121 [Eh]
    Exch-Ind20,r (B<-A) =     0.000430869614 [Eh]
    Exch-Ind20,r        =     0.000824206735 [Eh]
    Disp20              =    -0.008682820312 [Eh]
    Disp20 (SS)         =    -0.004341410156 [Eh]
    Disp20 (OS)         =    -0.004341410156 [Eh]
    Exch-Disp20         =     0.000687196608 [Eh]
    Exch-Disp20 (SS)    =     0.000452019083 [Eh]
    Exch-Disp20 (OS)    =     0.000235177525 [Eh]

    SAPT Results 
  --------------------------------------------------------------------------------------------------------
    Electrostatics                 -1.81436366 [mEh]      -1.13853039 [kcal/mol]      -4.76361114 [kJ/mol]
      Elst10,r                     -1.81436366 [mEh]      -1.13853039 [kcal/mol]      -4.76361114 [kJ/mol]

    Exchange                        6.14993044 [mEh]       3.85913961 [kcal/mol]      16.14664014 [kJ/mol]
      Exch10                        6.14993044 [mEh]       3.85913961 [kcal/mol]      16.14664014 [kJ/mol]
      Exch10(S^2)                   6.14162670 [mEh]       3.85392894 [kcal/mol]      16.12483867 [kJ/mol]

    Induction                      -0.54838198 [mEh]      -0.34411489 [kcal/mol]      -1.43977669 [kJ/mol]
      Ind20,r                      -0.94469397 [mEh]      -0.59280442 [kcal/mol]      -2.48029368 [kJ/mol]
      Exch-Ind20,r                  0.82420674 [mEh]       0.51719753 [kcal/mol]       2.16395449 [kJ/mol]
      delta HF,r (2)               -0.42789474 [mEh]      -0.26850801 [kcal/mol]      -1.12343750 [kJ/mol]

    Dispersion                     -7.99562370 [mEh]      -5.01732962 [kcal/mol]     -20.99250714 [kJ/mol]
      Disp20                       -8.68282031 [mEh]      -5.44855201 [kcal/mol]     -22.79674159 [kJ/mol]
      Exch-Disp20                   0.68719661 [mEh]       0.43122238 [kcal/mol]       1.80423445 [kJ/mol]
      Disp20 (SS)                  -4.34141016 [mEh]      -2.72427600 [kcal/mol]     -11.39837079 [kJ/mol]
      Disp20 (OS)                  -4.34141016 [mEh]      -2.72427600 [kcal/mol]     -11.39837079 [kJ/mol]
      Exch-Disp20 (SS)              0.45201908 [mEh]       0.28364626 [kcal/mol]       1.18677594 [kJ/mol]
      Exch-Disp20 (OS)              0.23517753 [mEh]       0.14757613 [kcal/mol]       0.61745851 [kJ/mol]

  Total HF                          3.78718480 [mEh]       2.37649434 [kcal/mol]       9.94325231 [kJ/mol]
  Total SAPT0                      -4.20843891 [mEh]      -2.64083528 [kcal/mol]     -11.04925483 [kJ/mol]

  Special recipe for scaled SAPT0 (see Manual):
    Electrostatics sSAPT0          -1.81436366 [mEh]      -1.13853039 [kcal/mol]      -4.76361114 [kJ/mol]
    Exchange sSAPT0                 6.14993044 [mEh]       3.85913961 [kcal/mol]      16.14664014 [kJ/mol]
    Induction sSAPT0               -0.54503437 [mEh]      -0.34201423 [kcal/mol]      -1.43098754 [kJ/mol]
    Dispersion sSAPT0              -7.99283258 [mEh]      -5.01557816 [kcal/mol]     -20.98517904 [kJ/mol]
  Total sSAPT0                     -4.20230017 [mEh]      -2.63698317 [kcal/mol]     -11.03313758 [kJ/mol]
  --------------------------------------------------------------------------------------------------------

*** tstop() called on r282 at Fri Sep 10 20:37:49 2021
Module time:
	user time   =     175.67 seconds =       2.93 minutes
	system time =      23.52 seconds =       0.39 minutes
	total time  =        208 seconds =       3.47 minutes
Total time:
	user time   =     401.36 seconds =       6.69 minutes
	system time =      27.40 seconds =       0.46 minutes
	total time  =        438 seconds =       7.30 minutes

    Psi4 stopped on: Friday, 10 September 2021 08:37PM
    Psi4 wall time for execution: 0:07:17.49

*** Psi4 exiting successfully. Buy a developer a beer!
