
    -----------------------------------------------------------------------
          Psi4: An Open-Source Ab Initio Electronic Structure Package
                               Psi4 1.3.2 release

                         Git: Rev {HEAD} ecbda83 


    R. M. Parrish, L. A. Burns, D. G. A. Smith, A. C. Simmonett,
    A. E. DePrince III, E. G. Hohenstein, U. Bozkaya, A. Yu. Sokolov,
    R. Di Remigio, R. M. Richard, J. F. Gonthier, A. M. James,
    H. R. McAlexander, A. Kumar, M. Saitow, X. Wang, B. P. Pritchard,
    P. Verma, H. F. Schaefer III, K. Patkowski, R. A. King, E. F. Valeev,
    F. A. Evangelista, J. M. Turney, T. D. Crawford, and C. D. Sherrill,
    J. Chem. Theory Comput. 13(7) pp 3185--3197 (2017).
    (doi: 10.1021/acs.jctc.7b00174)


                         Additional Contributions by
    P. Kraus, H. Kruse, M. H. Lechner, M. C. Schieber, R. A. Shaw,
    A. Alenaizan, R. Galvelis, Z. L. Glick, S. Lehtola, and J. P. Misiewicz

    -----------------------------------------------------------------------


    Psi4 started on: Saturday, 11 September 2021 02:16AM

    Process ID: 57505
    Host:       r282
    PSIDATADIR: /home/r08543048/miniconda3/share/psi4
    Memory:     500.0 MiB
    Threads:    1
    
  ==> Input File <==

--------------------------------------------------------------------------
# Any line starting with the # character is a comment line
#! Sample  computation

memory 22 gb

molecule Dimer {
0 1
 C  3.279916    0.273000    0.051745
 C  1.817987   -0.065306   -0.120188
 O  1.204475    0.211627   -1.144377
 N  1.224402   -0.686179    0.935094
 H  3.674000    0.002493    1.028765
 H  3.845113   -0.244177   -0.720979
 H  3.405445    1.341958   -0.105589
 H  0.257568   -0.966632    0.848783
 H  1.747367   -0.952597    1.747874
 
 
 
  
  
  
  
  
    
    
 --
0 1
 C   -1.746020   -1.774651   -0.252082
 C   -2.319758   -0.637298    0.159603
 C   -2.104968    0.701683   -0.471719
 C   -1.625027    1.741041    0.541345
 H   -1.951345   -2.717131    0.237919
 H   -1.070156   -1.776636   -1.098737
 H   -2.993097   -0.670272    1.013086
 H   -1.378542    0.608879   -1.279453
 H   -3.049643    1.039863   -0.906997
 H   -2.330149    1.835548    1.368590
 H   -0.655321    1.458916    0.950472
 H   -1.520631    2.719210    0.073407
   
   
   




units angstrom

no_reorient
symmetry c1
}

set globals{
  basis jun-cc-pvtz
}

energy('sapt0')


--------------------------------------------------------------------------

  Memory set to  20.489 GiB by Python driver.

  //>>>>>>>>>>>>>>>>>>>>>>>>>>>>>>>>>>>//
  //              Dimer HF             //
  //<<<<<<<<<<<<<<<<<<<<<<<<<<<<<<<<<<<//


*** tstart() called on r282
*** at Sat Sep 11 02:16:08 2021

   => Loading Basis Set <=

    Name: JUN-CC-PVTZ
    Role: ORBITAL
    Keyword: BASIS
    atoms 1-2, 10-13 entry C          line   217 file /home/r08543048/miniconda3/share/psi4/basis/jun-cc-pvtz.gbs 
    atoms 3          entry O          line   305 file /home/r08543048/miniconda3/share/psi4/basis/jun-cc-pvtz.gbs 
    atoms 4          entry N          line   261 file /home/r08543048/miniconda3/share/psi4/basis/jun-cc-pvtz.gbs 
    atoms 5-9, 14-21 entry H          line    36 file /home/r08543048/miniconda3/share/psi4/basis/jun-cc-pvtz.gbs 


         ---------------------------------------------------------
                                   SCF
               by Justin Turney, Rob Parrish, Andy Simmonett
                          and Daniel G. A. Smith
                              RHF Reference
                        1 Threads,  20980 MiB Core
         ---------------------------------------------------------

  ==> Geometry <==

    Molecular point group: c1
    Full point group: C1

    Geometry (in Angstrom), charge = 0, multiplicity = 1:

       Center              X                  Y                   Z               Mass       
    ------------   -----------------  -----------------  -----------------  -----------------
         C            3.262529042782     0.287504536381     0.078884321938    12.000000000000
         C            1.800600042782    -0.050801463619    -0.093048678062    12.000000000000
         O            1.187088042782     0.226131536381    -1.117237678062    15.994914619570
         N            1.207015042782    -0.671674463619     0.962233321938    14.003074004430
         H            3.656613042782     0.016997536381     1.055904321938     1.007825032230
         H            3.827726042782    -0.229672463619    -0.693839678062     1.007825032230
         H            3.388058042782     1.356462536381    -0.078449678062     1.007825032230
         H            0.240181042782    -0.952127463619     0.875922321938     1.007825032230
         H            1.729980042782    -0.938092463619     1.775013321938     1.007825032230
         C           -1.763406957218    -1.760146463619    -0.224942678062    12.000000000000
         C           -2.337144957218    -0.622793463619     0.186742321938    12.000000000000
         C           -2.122354957218     0.716187536381    -0.444579678062    12.000000000000
         C           -1.642413957218     1.755545536381     0.568484321938    12.000000000000
         H           -1.968731957218    -2.702626463619     0.265058321938     1.007825032230
         H           -1.087542957218    -1.762131463619    -1.071597678062     1.007825032230
         H           -3.010483957218    -0.655767463619     1.040225321938     1.007825032230
         H           -1.395928957218     0.623383536381    -1.252313678062     1.007825032230
         H           -3.067029957218     1.054367536381    -0.879857678062     1.007825032230
         H           -2.347535957218     1.850052536381     1.395729321938     1.007825032230
         H           -0.672707957218     1.473420536381     0.977611321938     1.007825032230
         H           -1.538017957218     2.733714536381     0.100546321938     1.007825032230

  Running in c1 symmetry.

  Rotational constants: A =      0.09579  B =      0.03184  C =      0.02818 [cm^-1]
  Rotational constants: A =   2871.81730  B =    954.63965  C =    844.72871 [MHz]
  Nuclear repulsion =  370.449034250504440

  Charge       = 0
  Multiplicity = 1
  Electrons    = 64
  Nalpha       = 32
  Nbeta        = 32

  ==> Algorithm <==

  SCF Algorithm Type is DF.
  DIIS enabled.
  MOM disabled.
  Fractional occupation disabled.
  Guess Type is SAD.
  Energy threshold   = 1.00e-08
  Density threshold  = 1.00e-08
  Integral threshold = 0.00e+00

  ==> Primary Basis <==

  Basis Set: JUN-CC-PVTZ
    Blend: JUN-CC-PVTZ
    Number of shells: 182
    Number of basis function: 494
    Number of Cartesian functions: 555
    Spherical Harmonics?: true
    Max angular momentum: 3

   => Loading Basis Set <=

    Name: (JUN-CC-PVTZ AUX)
    Role: JKFIT
    Keyword: DF_BASIS_SCF
    atoms 1-2, 10-13 entry C          line   152 file /home/r08543048/miniconda3/share/psi4/basis/jun-cc-pvtz-jkfit.gbs 
    atoms 3          entry O          line   272 file /home/r08543048/miniconda3/share/psi4/basis/jun-cc-pvtz-jkfit.gbs 
    atoms 4          entry N          line   212 file /home/r08543048/miniconda3/share/psi4/basis/jun-cc-pvtz-jkfit.gbs 
    atoms 5-9, 14-21 entry H          line    70 file /home/r08543048/miniconda3/share/psi4/basis/jun-cc-pvtz-jkfit.gbs 

  ==> Pre-Iterations <==

   -------------------------------------------------------
    Irrep   Nso     Nmo     Nalpha   Nbeta   Ndocc  Nsocc
   -------------------------------------------------------
     A        494     494       0       0       0       0
   -------------------------------------------------------
    Total     494     494      32      32      32       0
   -------------------------------------------------------

  ==> Integral Setup <==

  ==> DiskDFJK: Density-Fitted J/K Matrices <==

    J tasked:                  Yes
    K tasked:                  Yes
    wK tasked:                  No
    OpenMP threads:              1
    Integrals threads:           1
    Memory [MiB]:            15735
    Algorithm:                Core
    Integral Cache:           SAVE
    Schwarz Cutoff:          1E-12
    Fitting Condition:       1E-10

   => Auxiliary Basis Set <=

  Basis Set: (JUN-CC-PVTZ AUX)
    Blend: JUN-CC-PVTZ-JKFIT
    Number of shells: 362
    Number of basis function: 1150
    Number of Cartesian functions: 1383
    Spherical Harmonics?: true
    Max angular momentum: 4

  Minimum eigenvalue in the overlap matrix is 3.4628989150E-05.
  Using Symmetric Orthogonalization.

  SCF Guess: Superposition of Atomic Densities via on-the-fly atomic UHF.

  ==> Iterations <==

                           Total Energy        Delta E     RMS |[F,P]|

   @DF-RHF iter SAD:  -362.77627419217862   -3.62776e+02   0.00000e+00 
   @DF-RHF iter   1:  -363.89162117537870   -1.11535e+00   1.59757e-03 DIIS
   @DF-RHF iter   2:  -364.15330662764768   -2.61685e-01   8.48448e-04 DIIS
   @DF-RHF iter   3:  -364.22109301546311   -6.77864e-02   1.81708e-04 DIIS
   @DF-RHF iter   4:  -364.22560086459021   -4.50785e-03   7.74854e-05 DIIS
   @DF-RHF iter   5:  -364.22646560804594   -8.64743e-04   1.27544e-05 DIIS
   @DF-RHF iter   6:  -364.22650588347551   -4.02754e-05   5.91466e-06 DIIS
   @DF-RHF iter   7:  -364.22651290727549   -7.02380e-06   1.89017e-06 DIIS
   @DF-RHF iter   8:  -364.22651422656207   -1.31929e-06   7.83902e-07 DIIS
   @DF-RHF iter   9:  -364.22651445159926   -2.25037e-07   2.48034e-07 DIIS
   @DF-RHF iter  10:  -364.22651447430934   -2.27101e-08   8.14814e-08 DIIS
   @DF-RHF iter  11:  -364.22651447606313   -1.75379e-09   2.34406e-08 DIIS
   @DF-RHF iter  12:  -364.22651447619876   -1.35628e-10   7.51075e-09 DIIS
  Energy and wave function converged.


  ==> Post-Iterations <==

    Orbital Energies [Eh]
    ---------------------

    Doubly Occupied:                                                      

       1A    -20.512906     2A    -15.580499     3A    -11.352063  
       4A    -11.236631     5A    -11.231671     6A    -11.215135  
       7A    -11.212116     8A    -11.205382     9A     -1.373402  
      10A     -1.208532    11A     -1.075893    12A     -1.004645  
      13A     -0.983475    14A     -0.848638    15A     -0.796767  
      16A     -0.751729    17A     -0.723406    18A     -0.663867  
      19A     -0.637608    20A     -0.614512    21A     -0.599573  
      22A     -0.584696    23A     -0.579074    24A     -0.561763  
      25A     -0.528716    26A     -0.522811    27A     -0.506965  
      28A     -0.477732    29A     -0.471170    30A     -0.422439  
      31A     -0.410815    32A     -0.357450  

    Virtual:                                                              

      33A      0.039959    34A      0.054041    35A      0.055910  
      36A      0.065296    37A      0.069819    38A      0.076146  
      39A      0.081102    40A      0.090228    41A      0.097763  
      42A      0.100854    43A      0.108353    44A      0.115270  
      45A      0.125017    46A      0.131227    47A      0.133678  
      48A      0.139705    49A      0.147855    50A      0.153548  
      51A      0.163634    52A      0.166895    53A      0.176606  
      54A      0.179626    55A      0.187532    56A      0.191442  
      57A      0.197122    58A      0.201568    59A      0.209091  
      60A      0.223141    61A      0.229490    62A      0.243561  
      63A      0.253032    64A      0.266418    65A      0.278322  
      66A      0.283693    67A      0.288632    68A      0.293627  
      69A      0.302001    70A      0.305461    71A      0.310900  
      72A      0.313188    73A      0.315240    74A      0.321345  
      75A      0.328339    76A      0.332773    77A      0.338269  
      78A      0.341883    79A      0.354633    80A      0.355082  
      81A      0.362381    82A      0.370358    83A      0.372849  
      84A      0.381780    85A      0.388861    86A      0.394646  
      87A      0.408015    88A      0.411422    89A      0.420608  
      90A      0.424853    91A      0.434261    92A      0.437746  
      93A      0.449162    94A      0.452213    95A      0.457993  
      96A      0.475178    97A      0.487697    98A      0.500562  
      99A      0.501978   100A      0.505585   101A      0.519202  
     102A      0.522755   103A      0.533600   104A      0.536412  
     105A      0.543405   106A      0.552487   107A      0.558698  
     108A      0.565022   109A      0.581059   110A      0.589820  
     111A      0.598174   112A      0.606291   113A      0.613759  
     114A      0.626725   115A      0.638162   116A      0.640653  
     117A      0.647674   118A      0.661980   119A      0.672955  
     120A      0.676198   121A      0.688164   122A      0.703612  
     123A      0.715770   124A      0.725070   125A      0.737005  
     126A      0.737787   127A      0.743726   128A      0.763299  
     129A      0.774621   130A      0.782784   131A      0.789209  
     132A      0.803063   133A      0.804778   134A      0.810302  
     135A      0.815685   136A      0.824178   137A      0.836269  
     138A      0.837148   139A      0.848288   140A      0.858833  
     141A      0.868005   142A      0.877660   143A      0.879971  
     144A      0.887200   145A      0.898167   146A      0.911430  
     147A      0.925420   148A      0.934054   149A      0.941494  
     150A      0.944046   151A      0.952534   152A      0.973503  
     153A      0.983566   154A      1.010549   155A      1.018877  
     156A      1.034758   157A      1.039223   158A      1.054683  
     159A      1.057121   160A      1.067136   161A      1.077402  
     162A      1.090221   163A      1.104251   164A      1.110324  
     165A      1.117737   166A      1.125499   167A      1.135392  
     168A      1.154077   169A      1.166596   170A      1.184344  
     171A      1.198693   172A      1.208539   173A      1.220291  
     174A      1.239113   175A      1.253737   176A      1.263852  
     177A      1.285359   178A      1.292354   179A      1.300597  
     180A      1.323642   181A      1.339101   182A      1.341015  
     183A      1.356797   184A      1.359671   185A      1.370720  
     186A      1.381461   187A      1.388764   188A      1.396124  
     189A      1.405737   190A      1.412128   191A      1.434884  
     192A      1.439936   193A      1.448637   194A      1.463344  
     195A      1.469708   196A      1.476925   197A      1.488922  
     198A      1.497448   199A      1.510571   200A      1.523587  
     201A      1.545080   202A      1.552288   203A      1.559280  
     204A      1.565981   205A      1.583615   206A      1.589056  
     207A      1.598280   208A      1.618633   209A      1.622411  
     210A      1.629355   211A      1.636693   212A      1.658493  
     213A      1.664280   214A      1.678356   215A      1.684583  
     216A      1.699559   217A      1.723018   218A      1.730497  
     219A      1.739496   220A      1.750179   221A      1.760444  
     222A      1.797053   223A      1.800534   224A      1.815644  
     225A      1.857994   226A      1.866804   227A      1.875175  
     228A      1.878093   229A      1.898744   230A      1.915277  
     231A      1.927416   232A      1.953856   233A      1.974438  
     234A      2.001029   235A      2.006156   236A      2.032414  
     237A      2.062323   238A      2.120461   239A      2.140705  
     240A      2.166640   241A      2.251281   242A      2.277251  
     243A      2.296294   244A      2.391260   245A      2.438305  
     246A      2.483622   247A      2.595514   248A      2.653793  
     249A      2.724230   250A      2.740958   251A      2.752727  
     252A      2.767106   253A      2.779580   254A      2.789936  
     255A      2.829723   256A      2.841640   257A      2.847476  
     258A      2.854458   259A      2.876449   260A      2.903286  
     261A      2.929836   262A      2.957039   263A      2.963178  
     264A      2.972616   265A      2.985080   266A      2.988821  
     267A      2.994064   268A      3.029547   269A      3.039510  
     270A      3.049800   271A      3.081953   272A      3.092221  
     273A      3.092854   274A      3.107532   275A      3.133533  
     276A      3.146091   277A      3.159711   278A      3.171951  
     279A      3.189510   280A      3.195449   281A      3.206561  
     282A      3.214188   283A      3.232986   284A      3.243482  
     285A      3.249653   286A      3.270355   287A      3.283207  
     288A      3.289301   289A      3.299442   290A      3.318723  
     291A      3.335614   292A      3.338191   293A      3.357841  
     294A      3.360111   295A      3.372704   296A      3.378125  
     297A      3.401514   298A      3.412343   299A      3.430557  
     300A      3.441570   301A      3.447913   302A      3.451802  
     303A      3.457691   304A      3.480810   305A      3.494086  
     306A      3.499141   307A      3.503708   308A      3.512291  
     309A      3.526377   310A      3.533710   311A      3.550952  
     312A      3.556091   313A      3.559371   314A      3.573976  
     315A      3.589890   316A      3.604022   317A      3.609760  
     318A      3.618537   319A      3.625918   320A      3.650495  
     321A      3.656192   322A      3.659659   323A      3.670961  
     324A      3.685661   325A      3.700572   326A      3.716040  
     327A      3.736431   328A      3.742513   329A      3.747413  
     330A      3.764694   331A      3.782820   332A      3.796544  
     333A      3.804400   334A      3.818558   335A      3.837880  
     336A      3.856873   337A      3.865371   338A      3.873599  
     339A      3.895759   340A      3.899144   341A      3.905922  
     342A      3.940145   343A      3.966412   344A      3.982808  
     345A      3.993863   346A      4.009700   347A      4.018807  
     348A      4.028121   349A      4.062501   350A      4.069926  
     351A      4.075375   352A      4.099726   353A      4.132989  
     354A      4.148884   355A      4.154446   356A      4.184952  
     357A      4.192184   358A      4.202809   359A      4.209763  
     360A      4.227496   361A      4.251234   362A      4.260468  
     363A      4.273292   364A      4.285256   365A      4.291456  
     366A      4.314774   367A      4.317753   368A      4.339484  
     369A      4.349575   370A      4.356419   371A      4.369499  
     372A      4.375309   373A      4.387078   374A      4.405189  
     375A      4.408922   376A      4.420324   377A      4.429803  
     378A      4.438177   379A      4.457051   380A      4.468471  
     381A      4.477632   382A      4.487503   383A      4.496575  
     384A      4.500846   385A      4.512701   386A      4.515277  
     387A      4.542366   388A      4.554629   389A      4.565287  
     390A      4.593593   391A      4.599105   392A      4.608507  
     393A      4.634252   394A      4.649007   395A      4.668259  
     396A      4.689350   397A      4.702332   398A      4.707911  
     399A      4.752339   400A      4.760180   401A      4.777244  
     402A      4.789962   403A      4.797872   404A      4.815870  
     405A      4.825719   406A      4.839924   407A      4.871419  
     408A      4.915350   409A      4.923418   410A      4.941380  
     411A      4.962797   412A      4.986410   413A      5.012776  
     414A      5.083130   415A      5.112262   416A      5.136939  
     417A      5.145001   418A      5.206161   419A      5.210666  
     420A      5.219497   421A      5.233866   422A      5.237400  
     423A      5.251036   424A      5.262120   425A      5.285562  
     426A      5.309584   427A      5.318350   428A      5.324988  
     429A      5.336420   430A      5.387690   431A      5.409179  
     432A      5.415994   433A      5.425934   434A      5.448668  
     435A      5.459675   436A      5.493166   437A      5.522106  
     438A      5.540198   439A      5.582457   440A      5.598025  
     441A      5.604637   442A      5.612086   443A      5.676499  
     444A      5.680441   445A      5.691242   446A      5.715382  
     447A      5.737654   448A      5.745546   449A      5.763788  
     450A      5.783551   451A      5.788590   452A      5.814154  
     453A      5.847630   454A      5.876112   455A      5.913700  
     456A      5.928558   457A      5.941517   458A      5.971786  
     459A      6.010875   460A      6.036872   461A      6.058634  
     462A      6.104011   463A      6.186487   464A      6.218458  
     465A      6.241028   466A      6.302647   467A      6.416309  
     468A      6.437107   469A      6.445529   470A      6.497662  
     471A      6.508550   472A      6.548549   473A      6.583365  
     474A      6.603583   475A      6.708710   476A      6.712515  
     477A      6.788650   478A      6.806017   479A      7.222395  
     480A      7.305995   481A      7.346077   482A      7.457122  
     483A      7.488228   484A      7.503716   485A      7.764252  
     486A      7.814335   487A     12.320660   488A     12.374731  
     489A     13.903002   490A     14.113638   491A     14.618167  
     492A     14.806797   493A     15.300951   494A     15.733810  

    Final Occupation by Irrep:
              A 
    DOCC [    32 ]

  @DF-RHF Final Energy:  -364.22651447619876

   => Energetics <=

    Nuclear Repulsion Energy =            370.4490342505044396
    One-Electron Energy =               -1228.8469464487884579
    Two-Electron Energy =                 494.1713977220853167
    Total Energy =                       -364.2265144761987585

Computation Completed


Properties will be evaluated at   0.000000,   0.000000,   0.000000 [a0]

Properties computed using the SCF density matrix

  Nuclear Dipole Moment: [e a0]
     X:    -2.1028      Y:     1.7542      Z:     3.2823

  Electronic Dipole Moment: [e a0]
     X:     2.7062      Y:    -2.0753      Z:    -1.9856

  Dipole Moment: [e a0]
     X:     0.6034      Y:    -0.3211      Z:     1.2967     Total:     1.4658

  Dipole Moment: [D]
     X:     1.5336      Y:    -0.8161      Z:     3.2958     Total:     3.7256


*** tstop() called on r282 at Sat Sep 11 02:17:10 2021
Module time:
	user time   =      60.36 seconds =       1.01 minutes
	system time =       1.41 seconds =       0.02 minutes
	total time  =         62 seconds =       1.03 minutes
Total time:
	user time   =      60.36 seconds =       1.01 minutes
	system time =       1.41 seconds =       0.02 minutes
	total time  =         62 seconds =       1.03 minutes

  //>>>>>>>>>>>>>>>>>>>>>>>>>>>>>>>>>>>//
  //            Monomer A HF           //
  //<<<<<<<<<<<<<<<<<<<<<<<<<<<<<<<<<<<//


*** tstart() called on r282
*** at Sat Sep 11 02:17:10 2021

   => Loading Basis Set <=

    Name: JUN-CC-PVTZ
    Role: ORBITAL
    Keyword: BASIS
    atoms 1-2, 10-13 entry C          line   217 file /home/r08543048/miniconda3/share/psi4/basis/jun-cc-pvtz.gbs 
    atoms 3          entry O          line   305 file /home/r08543048/miniconda3/share/psi4/basis/jun-cc-pvtz.gbs 
    atoms 4          entry N          line   261 file /home/r08543048/miniconda3/share/psi4/basis/jun-cc-pvtz.gbs 
    atoms 5-9, 14-21 entry H          line    36 file /home/r08543048/miniconda3/share/psi4/basis/jun-cc-pvtz.gbs 


         ---------------------------------------------------------
                                   SCF
               by Justin Turney, Rob Parrish, Andy Simmonett
                          and Daniel G. A. Smith
                              RHF Reference
                        1 Threads,  20980 MiB Core
         ---------------------------------------------------------

  ==> Geometry <==

    Molecular point group: c1
    Full point group: C1

    Geometry (in Angstrom), charge = 0, multiplicity = 1:

       Center              X                  Y                   Z               Mass       
    ------------   -----------------  -----------------  -----------------  -----------------
         C            3.262529042782     0.287504536381     0.078884321938    12.000000000000
         C            1.800600042782    -0.050801463619    -0.093048678062    12.000000000000
         O            1.187088042782     0.226131536381    -1.117237678062    15.994914619570
         N            1.207015042782    -0.671674463619     0.962233321938    14.003074004430
         H            3.656613042782     0.016997536381     1.055904321938     1.007825032230
         H            3.827726042782    -0.229672463619    -0.693839678062     1.007825032230
         H            3.388058042782     1.356462536381    -0.078449678062     1.007825032230
         H            0.240181042782    -0.952127463619     0.875922321938     1.007825032230
         H            1.729980042782    -0.938092463619     1.775013321938     1.007825032230
      Gh(C)          -1.763406957218    -1.760146463619    -0.224942678062    12.000000000000
      Gh(C)          -2.337144957218    -0.622793463619     0.186742321938    12.000000000000
      Gh(C)          -2.122354957218     0.716187536381    -0.444579678062    12.000000000000
      Gh(C)          -1.642413957218     1.755545536381     0.568484321938    12.000000000000
      Gh(H)          -1.968731957218    -2.702626463619     0.265058321938     1.007825032230
      Gh(H)          -1.087542957218    -1.762131463619    -1.071597678062     1.007825032230
      Gh(H)          -3.010483957218    -0.655767463619     1.040225321938     1.007825032230
      Gh(H)          -1.395928957218     0.623383536381    -1.252313678062     1.007825032230
      Gh(H)          -3.067029957218     1.054367536381    -0.879857678062     1.007825032230
      Gh(H)          -2.347535957218     1.850052536381     1.395729321938     1.007825032230
      Gh(H)          -0.672707957218     1.473420536381     0.977611321938     1.007825032230
      Gh(H)          -1.538017957218     2.733714536381     0.100546321938     1.007825032230

  Running in c1 symmetry.

  Rotational constants: A =      0.09579  B =      0.03184  C =      0.02818 [cm^-1]
  Rotational constants: A =   2871.81730  B =    954.63965  C =    844.72871 [MHz]
  Nuclear repulsion =  121.732487281293331

  Charge       = 0
  Multiplicity = 1
  Electrons    = 32
  Nalpha       = 16
  Nbeta        = 16

  ==> Algorithm <==

  SCF Algorithm Type is DF.
  DIIS enabled.
  MOM disabled.
  Fractional occupation disabled.
  Guess Type is SAD.
  Energy threshold   = 1.00e-08
  Density threshold  = 1.00e-08
  Integral threshold = 0.00e+00

  ==> Primary Basis <==

  Basis Set: JUN-CC-PVTZ
    Blend: JUN-CC-PVTZ
    Number of shells: 182
    Number of basis function: 494
    Number of Cartesian functions: 555
    Spherical Harmonics?: true
    Max angular momentum: 3

   => Loading Basis Set <=

    Name: (JUN-CC-PVTZ AUX)
    Role: JKFIT
    Keyword: DF_BASIS_SCF
    atoms 1-2, 10-13 entry C          line   152 file /home/r08543048/miniconda3/share/psi4/basis/jun-cc-pvtz-jkfit.gbs 
    atoms 3          entry O          line   272 file /home/r08543048/miniconda3/share/psi4/basis/jun-cc-pvtz-jkfit.gbs 
    atoms 4          entry N          line   212 file /home/r08543048/miniconda3/share/psi4/basis/jun-cc-pvtz-jkfit.gbs 
    atoms 5-9, 14-21 entry H          line    70 file /home/r08543048/miniconda3/share/psi4/basis/jun-cc-pvtz-jkfit.gbs 

  ==> Pre-Iterations <==

   -------------------------------------------------------
    Irrep   Nso     Nmo     Nalpha   Nbeta   Ndocc  Nsocc
   -------------------------------------------------------
     A        494     494       0       0       0       0
   -------------------------------------------------------
    Total     494     494      16      16      16       0
   -------------------------------------------------------

  ==> Integral Setup <==

  ==> DiskDFJK: Density-Fitted J/K Matrices <==

    J tasked:                  Yes
    K tasked:                  Yes
    wK tasked:                  No
    OpenMP threads:              1
    Integrals threads:           1
    Memory [MiB]:            15735
    Algorithm:                Core
    Integral Cache:           LOAD
    Schwarz Cutoff:          1E-12
    Fitting Condition:       1E-10

   => Auxiliary Basis Set <=

  Basis Set: (JUN-CC-PVTZ AUX)
    Blend: JUN-CC-PVTZ-JKFIT
    Number of shells: 362
    Number of basis function: 1150
    Number of Cartesian functions: 1383
    Spherical Harmonics?: true
    Max angular momentum: 4

  Minimum eigenvalue in the overlap matrix is 3.4628989150E-05.
  Using Symmetric Orthogonalization.

  SCF Guess: Superposition of Atomic Densities via on-the-fly atomic UHF.

  ==> Iterations <==

                           Total Energy        Delta E     RMS |[F,P]|

   @DF-RHF iter SAD:  -207.24075205745569   -2.07241e+02   0.00000e+00 
   @DF-RHF iter   1:  -207.88842633369211   -6.47674e-01   1.22320e-03 DIIS
   @DF-RHF iter   2:  -208.01621209728029   -1.27786e-01   7.30723e-04 DIIS
   @DF-RHF iter   3:  -208.05900881800429   -4.27967e-02   1.34822e-04 DIIS
   @DF-RHF iter   4:  -208.06144822754356   -2.43941e-03   5.50663e-05 DIIS
   @DF-RHF iter   5:  -208.06194557843889   -4.97351e-04   1.03162e-05 DIIS
   @DF-RHF iter   6:  -208.06197670322936   -3.11248e-05   4.92677e-06 DIIS
   @DF-RHF iter   7:  -208.06198248360406   -5.78037e-06   1.85731e-06 DIIS
   @DF-RHF iter   8:  -208.06198373349417   -1.24989e-06   5.97263e-07 DIIS
   @DF-RHF iter   9:  -208.06198388433063   -1.50836e-07   1.52468e-07 DIIS
   @DF-RHF iter  10:  -208.06198389175694   -7.42631e-09   4.95191e-08 DIIS
   @DF-RHF iter  11:  -208.06198389242485   -6.67910e-10   1.28092e-08 DIIS
   @DF-RHF iter  12:  -208.06198389246808   -4.32294e-11   2.65152e-09 DIIS
  Energy and wave function converged.


  ==> Post-Iterations <==

    Orbital Energies [Eh]
    ---------------------

    Doubly Occupied:                                                      

       1A    -20.514924     2A    -15.589535     3A    -11.354417  
       4A    -11.238720     5A     -1.374463     6A     -1.214117  
       7A     -1.006931     8A     -0.801492     9A     -0.729012  
      10A     -0.664344    11A     -0.615817    12A     -0.584279  
      13A     -0.564041    14A     -0.524541    15A     -0.424013  
      16A     -0.414808  

    Virtual:                                                              

      17A      0.030625    18A      0.042023    19A      0.047286  
      20A      0.059186    21A      0.066031    22A      0.073213  
      23A      0.078976    24A      0.086642    25A      0.092891  
      26A      0.101108    27A      0.107502    28A      0.111930  
      29A      0.115569    30A      0.124784    31A      0.130545  
      32A      0.135869    33A      0.141841    34A      0.147390  
      35A      0.151091    36A      0.155102    37A      0.164291  
      38A      0.169618    39A      0.179842    40A      0.181610  
      41A      0.188248    42A      0.189705    43A      0.193032  
      44A      0.205372    45A      0.226028    46A      0.249116  
      47A      0.257095    48A      0.261540    49A      0.273069  
      50A      0.276209    51A      0.280003    52A      0.291853  
      53A      0.294462    54A      0.301010    55A      0.303778  
      56A      0.311481    57A      0.317165    58A      0.320974  
      59A      0.329604    60A      0.336534    61A      0.343906  
      62A      0.345399    63A      0.351169    64A      0.361450  
      65A      0.364124    66A      0.370781    67A      0.378391  
      68A      0.391076    69A      0.395751    70A      0.399430  
      71A      0.404056    72A      0.412846    73A      0.425840  
      74A      0.430242    75A      0.440618    76A      0.449403  
      77A      0.450546    78A      0.461045    79A      0.465743  
      80A      0.491136    81A      0.496824    82A      0.506930  
      83A      0.508745    84A      0.514523    85A      0.524596  
      86A      0.527988    87A      0.542943    88A      0.545803  
      89A      0.559688    90A      0.568567    91A      0.573907  
      92A      0.586072    93A      0.591236    94A      0.597922  
      95A      0.604863    96A      0.610629    97A      0.620247  
      98A      0.632013    99A      0.635791   100A      0.641799  
     101A      0.647449   102A      0.661919   103A      0.666688  
     104A      0.674815   105A      0.683729   106A      0.688659  
     107A      0.692984   108A      0.697891   109A      0.706171  
     110A      0.713520   111A      0.727429   112A      0.734104  
     113A      0.736834   114A      0.751758   115A      0.758413  
     116A      0.791444   117A      0.793598   118A      0.795520  
     119A      0.805309   120A      0.817182   121A      0.829183  
     122A      0.835191   123A      0.848194   124A      0.877989  
     125A      0.886653   126A      0.906777   127A      0.926387  
     128A      0.935705   129A      0.945698   130A      0.952306  
     131A      1.020377   132A      1.030589   133A      1.050735  
     134A      1.055751   135A      1.064966   136A      1.079886  
     137A      1.100000   138A      1.117030   139A      1.127360  
     140A      1.135393   141A      1.142266   142A      1.153578  
     143A      1.159029   144A      1.164284   145A      1.166526  
     146A      1.186503   147A      1.192554   148A      1.199809  
     149A      1.223260   150A      1.229383   151A      1.240222  
     152A      1.249246   153A      1.257650   154A      1.277066  
     155A      1.285211   156A      1.290950   157A      1.305444  
     158A      1.313138   159A      1.319561   160A      1.329287  
     161A      1.342774   162A      1.349715   163A      1.354802  
     164A      1.366043   165A      1.369506   166A      1.373843  
     167A      1.387332   168A      1.396199   169A      1.406955  
     170A      1.409910   171A      1.420087   172A      1.427559  
     173A      1.439184   174A      1.442266   175A      1.457339  
     176A      1.465864   177A      1.471185   178A      1.478627  
     179A      1.493922   180A      1.500901   181A      1.518849  
     182A      1.522037   183A      1.531033   184A      1.544885  
     185A      1.565827   186A      1.570405   187A      1.580570  
     188A      1.586520   189A      1.592579   190A      1.607906  
     191A      1.612819   192A      1.622911   193A      1.647161  
     194A      1.650792   195A      1.655924   196A      1.669189  
     197A      1.670527   198A      1.679836   199A      1.697039  
     200A      1.712802   201A      1.733448   202A      1.746081  
     203A      1.766895   204A      1.784874   205A      1.791417  
     206A      1.827546   207A      1.846928   208A      1.870208  
     209A      1.883462   210A      1.894027   211A      1.905390  
     212A      1.922220   213A      1.924427   214A      1.958883  
     215A      1.995828   216A      2.007538   217A      2.027738  
     218A      2.055484   219A      2.089930   220A      2.101924  
     221A      2.127877   222A      2.147167   223A      2.176069  
     224A      2.196945   225A      2.236041   226A      2.247929  
     227A      2.263292   228A      2.284837   229A      2.334089  
     230A      2.369262   231A      2.389914   232A      2.427622  
     233A      2.431492   234A      2.453682   235A      2.467021  
     236A      2.495150   237A      2.533009   238A      2.543836  
     239A      2.583447   240A      2.614742   241A      2.631174  
     242A      2.678060   243A      2.737367   244A      2.754685  
     245A      2.793250   246A      2.810618   247A      2.856580  
     248A      2.934692   249A      2.977111   250A      2.989171  
     251A      3.001580   252A      3.059884   253A      3.091194  
     254A      3.148358   255A      3.198543   256A      3.205535  
     257A      3.254289   258A      3.286107   259A      3.289886  
     260A      3.345356   261A      3.370452   262A      3.422396  
     263A      3.428971   264A      3.435071   265A      3.458318  
     266A      3.465708   267A      3.486694   268A      3.504423  
     269A      3.523199   270A      3.535306   271A      3.540569  
     272A      3.544502   273A      3.571630   274A      3.583703  
     275A      3.597788   276A      3.602389   277A      3.611909  
     278A      3.629492   279A      3.639954   280A      3.641720  
     281A      3.652552   282A      3.661514   283A      3.675023  
     284A      3.696046   285A      3.715519   286A      3.720555  
     287A      3.730469   288A      3.736438   289A      3.772095  
     290A      3.776497   291A      3.792676   292A      3.806626  
     293A      3.819802   294A      3.824623   295A      3.833138  
     296A      3.850808   297A      3.858851   298A      3.871198  
     299A      3.877730   300A      3.899670   301A      3.913818  
     302A      3.953016   303A      3.959494   304A      3.974026  
     305A      3.980117   306A      3.992099   307A      4.020281  
     308A      4.029129   309A      4.062752   310A      4.069595  
     311A      4.072076   312A      4.106410   313A      4.123607  
     314A      4.136570   315A      4.146472   316A      4.148544  
     317A      4.170827   318A      4.180455   319A      4.197033  
     320A      4.202958   321A      4.205948   322A      4.225633  
     323A      4.247694   324A      4.256495   325A      4.271663  
     326A      4.299625   327A      4.306406   328A      4.318423  
     329A      4.337847   330A      4.350615   331A      4.374824  
     332A      4.377850   333A      4.393771   334A      4.408196  
     335A      4.414033   336A      4.429003   337A      4.448908  
     338A      4.459794   339A      4.468906   340A      4.487991  
     341A      4.495043   342A      4.500438   343A      4.501755  
     344A      4.516034   345A      4.531610   346A      4.557305  
     347A      4.568017   348A      4.583749   349A      4.591105  
     350A      4.594222   351A      4.606917   352A      4.626392  
     353A      4.631527   354A      4.646857   355A      4.660959  
     356A      4.681678   357A      4.688613   358A      4.703392  
     359A      4.714805   360A      4.721355   361A      4.731849  
     362A      4.757648   363A      4.773570   364A      4.777766  
     365A      4.785790   366A      4.796408   367A      4.811940  
     368A      4.819026   369A      4.831305   370A      4.837117  
     371A      4.851917   372A      4.855683   373A      4.876464  
     374A      4.883389   375A      4.888653   376A      4.906608  
     377A      4.911673   378A      4.931529   379A      4.947887  
     380A      4.954456   381A      4.979663   382A      4.987713  
     383A      5.005005   384A      5.012155   385A      5.036057  
     386A      5.052622   387A      5.077595   388A      5.101318  
     389A      5.105103   390A      5.138852   391A      5.142801  
     392A      5.153471   393A      5.178128   394A      5.187182  
     395A      5.214020   396A      5.218344   397A      5.235270  
     398A      5.254714   399A      5.275760   400A      5.304207  
     401A      5.315328   402A      5.331799   403A      5.381852  
     404A      5.395961   405A      5.413683   406A      5.440928  
     407A      5.460245   408A      5.480071   409A      5.491559  
     410A      5.511978   411A      5.537408   412A      5.580454  
     413A      5.586698   414A      5.609329   415A      5.623197  
     416A      5.675397   417A      5.684959   418A      5.690329  
     419A      5.705108   420A      5.728576   421A      5.740188  
     422A      5.748569   423A      5.784010   424A      5.829414  
     425A      5.841831   426A      5.883514   427A      5.901485  
     428A      5.923139   429A      5.977936   430A      6.000997  
     431A      6.036120   432A      6.051316   433A      6.073020  
     434A      6.089582   435A      6.101620   436A      6.171256  
     437A      6.205772   438A      6.215603   439A      6.239179  
     440A      6.266060   441A      6.298468   442A      6.352258  
     443A      6.380295   444A      6.412659   445A      6.425374  
     446A      6.433731   447A      6.446895   448A      6.483617  
     449A      6.521884   450A      6.577824   451A      6.659255  
     452A      6.703746   453A      6.740296   454A      6.772225  
     455A      6.800263   456A      6.825103   457A      6.881304  
     458A      6.975033   459A      7.113065   460A      7.221265  
     461A      7.304307   462A      7.337822   463A      7.371118  
     464A      7.414706   465A      7.455187   466A      7.484959  
     467A      7.498452   468A      7.516160   469A      7.590570  
     470A      7.613974   471A      7.707520   472A      7.717538  
     473A      7.766093   474A      7.814852   475A      7.858405  
     476A      7.898954   477A      7.975195   478A      7.989682  
     479A      8.145292   480A      8.269885   481A      8.442070  
     482A      8.806634   483A      9.426920   484A      9.705230  
     485A      9.928840   486A     10.215668   487A     12.384262  
     488A     13.923095   489A     14.804255   490A     15.683225  
     491A     41.068658   492A     44.862282   493A     45.776532  
     494A     47.096734  

    Final Occupation by Irrep:
              A 
    DOCC [    16 ]

  @DF-RHF Final Energy:  -208.06198389246808

   => Energetics <=

    Nuclear Repulsion Energy =            121.7324872812933307
    One-Electron Energy =                -524.3580344877882453
    Two-Electron Energy =                 194.5635633140268226
    Total Energy =                       -208.0619838924680778

Computation Completed


Properties will be evaluated at   0.000000,   0.000000,   0.000000 [a0]

Properties computed using the SCF density matrix

  Nuclear Dipole Moment: [e a0]
     X:   115.5891      Y:    -4.1931      Z:     1.2232

  Electronic Dipole Moment: [e a0]
     X:  -114.9351      Y:     3.6684      Z:     0.2442

  Dipole Moment: [e a0]
     X:     0.6540      Y:    -0.5247      Z:     1.4674     Total:     1.6901

  Dipole Moment: [D]
     X:     1.6624      Y:    -1.3337      Z:     3.7297     Total:     4.2957


*** tstop() called on r282 at Sat Sep 11 02:17:50 2021
Module time:
	user time   =      39.32 seconds =       0.66 minutes
	system time =       0.64 seconds =       0.01 minutes
	total time  =         40 seconds =       0.67 minutes
Total time:
	user time   =      99.68 seconds =       1.66 minutes
	system time =       2.05 seconds =       0.03 minutes
	total time  =        102 seconds =       1.70 minutes

  //>>>>>>>>>>>>>>>>>>>>>>>>>>>>>>>>>>>//
  //            Monomer B HF           //
  //<<<<<<<<<<<<<<<<<<<<<<<<<<<<<<<<<<<//


*** tstart() called on r282
*** at Sat Sep 11 02:17:50 2021

   => Loading Basis Set <=

    Name: JUN-CC-PVTZ
    Role: ORBITAL
    Keyword: BASIS
    atoms 1-2, 10-13 entry C          line   217 file /home/r08543048/miniconda3/share/psi4/basis/jun-cc-pvtz.gbs 
    atoms 3          entry O          line   305 file /home/r08543048/miniconda3/share/psi4/basis/jun-cc-pvtz.gbs 
    atoms 4          entry N          line   261 file /home/r08543048/miniconda3/share/psi4/basis/jun-cc-pvtz.gbs 
    atoms 5-9, 14-21 entry H          line    36 file /home/r08543048/miniconda3/share/psi4/basis/jun-cc-pvtz.gbs 


         ---------------------------------------------------------
                                   SCF
               by Justin Turney, Rob Parrish, Andy Simmonett
                          and Daniel G. A. Smith
                              RHF Reference
                        1 Threads,  20980 MiB Core
         ---------------------------------------------------------

  ==> Geometry <==

    Molecular point group: c1
    Full point group: C1

    Geometry (in Angstrom), charge = 0, multiplicity = 1:

       Center              X                  Y                   Z               Mass       
    ------------   -----------------  -----------------  -----------------  -----------------
      Gh(C)           3.262529042782     0.287504536381     0.078884321938    12.000000000000
      Gh(C)           1.800600042782    -0.050801463619    -0.093048678062    12.000000000000
      Gh(O)           1.187088042782     0.226131536381    -1.117237678062    15.994914619570
      Gh(N)           1.207015042782    -0.671674463619     0.962233321938    14.003074004430
      Gh(H)           3.656613042782     0.016997536381     1.055904321938     1.007825032230
      Gh(H)           3.827726042782    -0.229672463619    -0.693839678062     1.007825032230
      Gh(H)           3.388058042782     1.356462536381    -0.078449678062     1.007825032230
      Gh(H)           0.240181042782    -0.952127463619     0.875922321938     1.007825032230
      Gh(H)           1.729980042782    -0.938092463619     1.775013321938     1.007825032230
         C           -1.763406957218    -1.760146463619    -0.224942678062    12.000000000000
         C           -2.337144957218    -0.622793463619     0.186742321938    12.000000000000
         C           -2.122354957218     0.716187536381    -0.444579678062    12.000000000000
         C           -1.642413957218     1.755545536381     0.568484321938    12.000000000000
         H           -1.968731957218    -2.702626463619     0.265058321938     1.007825032230
         H           -1.087542957218    -1.762131463619    -1.071597678062     1.007825032230
         H           -3.010483957218    -0.655767463619     1.040225321938     1.007825032230
         H           -1.395928957218     0.623383536381    -1.252313678062     1.007825032230
         H           -3.067029957218     1.054367536381    -0.879857678062     1.007825032230
         H           -2.347535957218     1.850052536381     1.395729321938     1.007825032230
         H           -0.672707957218     1.473420536381     0.977611321938     1.007825032230
         H           -1.538017957218     2.733714536381     0.100546321938     1.007825032230

  Running in c1 symmetry.

  Rotational constants: A =      0.09579  B =      0.03184  C =      0.02818 [cm^-1]
  Rotational constants: A =   2871.81730  B =    954.63965  C =    844.72871 [MHz]
  Nuclear repulsion =  117.329643760060492

  Charge       = 0
  Multiplicity = 1
  Electrons    = 32
  Nalpha       = 16
  Nbeta        = 16

  ==> Algorithm <==

  SCF Algorithm Type is DF.
  DIIS enabled.
  MOM disabled.
  Fractional occupation disabled.
  Guess Type is SAD.
  Energy threshold   = 1.00e-08
  Density threshold  = 1.00e-08
  Integral threshold = 0.00e+00

  ==> Primary Basis <==

  Basis Set: JUN-CC-PVTZ
    Blend: JUN-CC-PVTZ
    Number of shells: 182
    Number of basis function: 494
    Number of Cartesian functions: 555
    Spherical Harmonics?: true
    Max angular momentum: 3

   => Loading Basis Set <=

    Name: (JUN-CC-PVTZ AUX)
    Role: JKFIT
    Keyword: DF_BASIS_SCF
    atoms 1-2, 10-13 entry C          line   152 file /home/r08543048/miniconda3/share/psi4/basis/jun-cc-pvtz-jkfit.gbs 
    atoms 3          entry O          line   272 file /home/r08543048/miniconda3/share/psi4/basis/jun-cc-pvtz-jkfit.gbs 
    atoms 4          entry N          line   212 file /home/r08543048/miniconda3/share/psi4/basis/jun-cc-pvtz-jkfit.gbs 
    atoms 5-9, 14-21 entry H          line    70 file /home/r08543048/miniconda3/share/psi4/basis/jun-cc-pvtz-jkfit.gbs 

  ==> Pre-Iterations <==

   -------------------------------------------------------
    Irrep   Nso     Nmo     Nalpha   Nbeta   Ndocc  Nsocc
   -------------------------------------------------------
     A        494     494       0       0       0       0
   -------------------------------------------------------
    Total     494     494      16      16      16       0
   -------------------------------------------------------

  ==> Integral Setup <==

  ==> DiskDFJK: Density-Fitted J/K Matrices <==

    J tasked:                  Yes
    K tasked:                  Yes
    wK tasked:                  No
    OpenMP threads:              1
    Integrals threads:           1
    Memory [MiB]:            15735
    Algorithm:                Core
    Integral Cache:           LOAD
    Schwarz Cutoff:          1E-12
    Fitting Condition:       1E-10

   => Auxiliary Basis Set <=

  Basis Set: (JUN-CC-PVTZ AUX)
    Blend: JUN-CC-PVTZ-JKFIT
    Number of shells: 362
    Number of basis function: 1150
    Number of Cartesian functions: 1383
    Spherical Harmonics?: true
    Max angular momentum: 4

  Minimum eigenvalue in the overlap matrix is 3.4628989150E-05.
  Using Symmetric Orthogonalization.

  SCF Guess: Superposition of Atomic Densities via on-the-fly atomic UHF.

  ==> Iterations <==

                           Total Energy        Delta E     RMS |[F,P]|

   @DF-RHF iter SAD:  -155.38038612103995   -1.55380e+02   0.00000e+00 
   @DF-RHF iter   1:  -155.99473150702980   -6.14345e-01   1.05712e-03 DIIS
   @DF-RHF iter   2:  -156.13465038086804   -1.39919e-01   4.65726e-04 DIIS
   @DF-RHF iter   3:  -156.16226936390314   -2.76190e-02   9.01310e-05 DIIS
   @DF-RHF iter   4:  -156.16410268939063   -1.83333e-03   3.35076e-05 DIIS
   @DF-RHF iter   5:  -156.16427032060182   -1.67631e-04   6.23916e-06 DIIS
   @DF-RHF iter   6:  -156.16427914283446   -8.82223e-06   1.12046e-06 DIIS
   @DF-RHF iter   7:  -156.16427948798281   -3.45148e-07   3.16731e-07 DIIS
   @DF-RHF iter   8:  -156.16427951540052   -2.74177e-08   9.52705e-08 DIIS
   @DF-RHF iter   9:  -156.16427951831088   -2.91035e-09   4.12775e-08 DIIS
   @DF-RHF iter  10:  -156.16427951889790   -5.87022e-10   1.29195e-08 DIIS
   @DF-RHF iter  11:  -156.16427951896026   -6.23572e-11   3.22125e-09 DIIS
  Energy and wave function converged.


  ==> Post-Iterations <==

    Orbital Energies [Eh]
    ---------------------

    Doubly Occupied:                                                      

       1A    -11.231668     2A    -11.224888     3A    -11.217840  
       4A    -11.214569     5A     -1.080723     6A     -0.988239  
       7A     -0.855610     8A     -0.755657     9A     -0.642287  
      10A     -0.606515    11A     -0.587739    12A     -0.533853  
      13A     -0.516858    14A     -0.488523    15A     -0.477029  
      16A     -0.356463  

    Virtual:                                                              

      17A      0.033072    18A      0.052351    19A      0.052522  
      20A      0.055611    21A      0.068076    22A      0.073819  
      23A      0.075815    24A      0.079923    25A      0.094692  
      26A      0.099666    27A      0.105557    28A      0.110484  
      29A      0.117920    30A      0.126458    31A      0.127601  
      32A      0.134652    33A      0.139741    34A      0.143981  
      35A      0.147972    36A      0.164114    37A      0.171042  
      38A      0.173920    39A      0.177853    40A      0.185849  
      41A      0.194380    42A      0.197574    43A      0.210662  
      44A      0.215147    45A      0.222618    46A      0.226383  
      47A      0.230663    48A      0.239409    49A      0.251448  
      50A      0.274170    51A      0.276228    52A      0.295117  
      53A      0.295693    54A      0.304917    55A      0.310538  
      56A      0.313648    57A      0.317303    58A      0.323542  
      59A      0.334287    60A      0.345091    61A      0.355509  
      62A      0.356758    63A      0.361843    64A      0.363187  
      65A      0.370644    66A      0.373458    67A      0.377987  
      68A      0.385946    69A      0.391674    70A      0.396952  
      71A      0.406043    72A      0.414811    73A      0.418597  
      74A      0.430462    75A      0.431373    76A      0.433472  
      77A      0.443563    78A      0.450456    79A      0.462245  
      80A      0.472535    81A      0.479953    82A      0.485939  
      83A      0.497529    84A      0.499500    85A      0.504930  
      86A      0.516306    87A      0.518908    88A      0.528028  
      89A      0.538303    90A      0.541896    91A      0.555137  
      92A      0.559642    93A      0.570036    94A      0.572146  
      95A      0.582854    96A      0.598850    97A      0.607439  
      98A      0.616902    99A      0.634739   100A      0.647371  
     101A      0.658488   102A      0.666008   103A      0.682990  
     104A      0.695452   105A      0.696652   106A      0.710821  
     107A      0.726431   108A      0.737992   109A      0.749950  
     110A      0.751383   111A      0.768282   112A      0.779155  
     113A      0.788432   114A      0.795853   115A      0.800417  
     116A      0.805816   117A      0.827081   118A      0.836868  
     119A      0.840471   120A      0.843949   121A      0.855052  
     122A      0.865427   123A      0.869857   124A      0.880958  
     125A      0.885162   126A      0.888293   127A      0.896537  
     128A      0.904052   129A      0.922435   130A      0.942954  
     131A      0.952478   132A      0.956832   133A      0.968641  
     134A      0.994426   135A      1.005087   136A      1.012690  
     137A      1.025473   138A      1.033546   139A      1.038990  
     140A      1.045989   141A      1.056673   142A      1.078799  
     143A      1.081102   144A      1.090620   145A      1.101088  
     146A      1.107923   147A      1.128720   148A      1.135725  
     149A      1.146795   150A      1.169066   151A      1.182965  
     152A      1.194620   153A      1.202262   154A      1.207992  
     155A      1.223429   156A      1.248463   157A      1.253570  
     158A      1.271322   159A      1.273707   160A      1.287168  
     161A      1.300940   162A      1.311739   163A      1.323909  
     164A      1.340609   165A      1.347605   166A      1.361324  
     167A      1.379985   168A      1.384804   169A      1.399343  
     170A      1.413697   171A      1.421555   172A      1.432845  
     173A      1.445887   174A      1.463893   175A      1.472433  
     176A      1.484549   177A      1.493565   178A      1.501319  
     179A      1.512057   180A      1.524352   181A      1.535936  
     182A      1.541952   183A      1.551318   184A      1.556417  
     185A      1.568270   186A      1.582554   187A      1.593466  
     188A      1.603887   189A      1.607294   190A      1.626484  
     191A      1.640195   192A      1.651903   193A      1.662813  
     194A      1.672963   195A      1.683877   196A      1.695341  
     197A      1.708573   198A      1.726011   199A      1.731145  
     200A      1.759731   201A      1.771802   202A      1.787114  
     203A      1.793662   204A      1.799927   205A      1.826066  
     206A      1.849869   207A      1.854077   208A      1.861008  
     209A      1.877349   210A      1.885921   211A      1.900496  
     212A      1.914249   213A      1.935126   214A      1.957058  
     215A      1.969162   216A      1.990539   217A      2.007775  
     218A      2.039503   219A      2.064589   220A      2.070627  
     221A      2.116595   222A      2.138681   223A      2.174386  
     224A      2.245705   225A      2.281580   226A      2.326196  
     227A      2.364226   228A      2.376831   229A      2.430774  
     230A      2.461463   231A      2.551698   232A      2.587847  
     233A      2.640916   234A      2.677090   235A      2.720968  
     236A      2.737675   237A      2.756098   238A      2.774520  
     239A      2.784458   240A      2.806162   241A      2.834978  
     242A      2.844238   243A      2.849414   244A      2.863626  
     245A      2.894615   246A      2.904344   247A      2.939373  
     248A      2.948986   249A      2.967400   250A      2.970553  
     251A      2.984906   252A      3.012087   253A      3.030815  
     254A      3.043380   255A      3.055478   256A      3.079208  
     257A      3.099400   258A      3.107114   259A      3.147787  
     260A      3.149205   261A      3.163719   262A      3.196025  
     263A      3.205946   264A      3.213890   265A      3.232013  
     266A      3.253571   267A      3.282208   268A      3.309438  
     269A      3.315116   270A      3.330906   271A      3.348213  
     272A      3.356059   273A      3.361964   274A      3.371848  
     275A      3.407865   276A      3.428995   277A      3.436346  
     278A      3.449483   279A      3.472643   280A      3.487021  
     281A      3.496316   282A      3.503352   283A      3.511016  
     284A      3.538609   285A      3.551844   286A      3.570777  
     287A      3.576901   288A      3.585502   289A      3.589066  
     290A      3.595563   291A      3.612973   292A      3.619684  
     293A      3.637688   294A      3.648302   295A      3.671124  
     296A      3.691641   297A      3.713245   298A      3.716000  
     299A      3.734491   300A      3.742265   301A      3.764868  
     302A      3.793818   303A      3.819382   304A      3.838667  
     305A      3.847221   306A      3.858373   307A      3.865290  
     308A      3.878536   309A      3.887593   310A      3.897339  
     311A      3.913535   312A      3.929223   313A      3.949122  
     314A      3.979667   315A      3.994975   316A      4.004937  
     317A      4.012172   318A      4.025915   319A      4.047268  
     320A      4.056454   321A      4.069189   322A      4.085578  
     323A      4.124346   324A      4.135637   325A      4.165509  
     326A      4.185231   327A      4.191395   328A      4.219588  
     329A      4.232389   330A      4.249001   331A      4.267475  
     332A      4.282591   333A      4.291992   334A      4.294920  
     335A      4.309277   336A      4.319135   337A      4.330478  
     338A      4.343775   339A      4.346778   340A      4.355103  
     341A      4.363948   342A      4.393666   343A      4.401765  
     344A      4.405588   345A      4.426557   346A      4.437603  
     347A      4.456389   348A      4.458547   349A      4.478706  
     350A      4.494821   351A      4.506267   352A      4.517641  
     353A      4.525205   354A      4.530949   355A      4.543216  
     356A      4.565126   357A      4.580536   358A      4.618906  
     359A      4.625840   360A      4.642935   361A      4.657220  
     362A      4.672910   363A      4.681499   364A      4.685465  
     365A      4.729685   366A      4.743716   367A      4.749535  
     368A      4.756314   369A      4.765842   370A      4.775261  
     371A      4.784094   372A      4.793592   373A      4.811229  
     374A      4.813592   375A      4.826214   376A      4.837522  
     377A      4.848184   378A      4.865102   379A      4.868399  
     380A      4.892408   381A      4.906665   382A      4.911709  
     383A      4.930864   384A      4.949213   385A      4.963709  
     386A      4.974729   387A      4.988841   388A      5.010583  
     389A      5.024020   390A      5.055548   391A      5.059090  
     392A      5.081824   393A      5.102922   394A      5.119799  
     395A      5.126188   396A      5.157380   397A      5.177906  
     398A      5.195515   399A      5.211138   400A      5.230040  
     401A      5.245168   402A      5.247600   403A      5.265341  
     404A      5.298911   405A      5.313072   406A      5.316905  
     407A      5.379842   408A      5.409594   409A      5.418902  
     410A      5.429061   411A      5.449363   412A      5.508144  
     413A      5.580195   414A      5.596229   415A      5.641322  
     416A      5.655377   417A      5.679637   418A      5.689792  
     419A      5.734754   420A      5.760888   421A      5.775848  
     422A      5.801799   423A      5.836057   424A      5.853538  
     425A      5.903779   426A      5.911212   427A      5.937013  
     428A      5.960434   429A      5.981100   430A      6.029462  
     431A      6.044403   432A      6.069369   433A      6.146437  
     434A      6.178480   435A      6.204269   436A      6.229828  
     437A      6.302953   438A      6.352204   439A      6.406166  
     440A      6.446859   441A      6.452357   442A      6.477257  
     443A      6.494004   444A      6.500396   445A      6.523524  
     446A      6.546632   447A      6.569606   448A      6.589648  
     449A      6.620522   450A      6.707689   451A      6.722471  
     452A      6.744075   453A      6.853008   454A      6.965841  
     455A      7.085235   456A      7.339508   457A      7.354764  
     458A      7.443193   459A      7.464700   460A      7.535073  
     461A      7.550512   462A      7.712224   463A      7.828780  
     464A      7.837355   465A      7.874421   466A      7.889784  
     467A      8.042226   468A      8.288848   469A      8.446070  
     470A      8.792545   471A      9.102560   472A      9.124894  
     473A      9.167086   474A      9.452725   475A      9.835740  
     476A      9.845389   477A      9.917678   478A      9.952156  
     479A     10.154099   480A     10.524657   481A     10.954060  
     482A     11.418961   483A     11.616799   484A     11.664029  
     485A     11.994904   486A     12.372588   487A     13.849353  
     488A     14.106700   489A     14.604080   490A     15.312013  
     491A     42.978633   492A     46.186071   493A     55.330414  
     494A     60.846875  

    Final Occupation by Irrep:
              A 
    DOCC [    16 ]

  @DF-RHF Final Energy:  -156.16427951896026

   => Energetics <=

    Nuclear Repulsion Energy =            117.3296437600604918
    One-Electron Energy =                -441.4309251563706766
    Two-Electron Energy =                 167.9370018773499282
    Total Energy =                       -156.1642795189602566

Computation Completed


Properties will be evaluated at   0.000000,   0.000000,   0.000000 [a0]

Properties computed using the SCF density matrix

  Nuclear Dipole Moment: [e a0]
     X:  -117.6920      Y:     5.9473      Z:     2.0591

  Electronic Dipole Moment: [e a0]
     X:   117.6574      Y:    -5.7752      Z:    -2.0703

  Dipole Moment: [e a0]
     X:    -0.0345      Y:     0.1721      Z:    -0.0112     Total:     0.1759

  Dipole Moment: [D]
     X:    -0.0878      Y:     0.4373      Z:    -0.0286     Total:     0.4470


*** tstop() called on r282 at Sat Sep 11 02:18:27 2021
Module time:
	user time   =      36.46 seconds =       0.61 minutes
	system time =       0.62 seconds =       0.01 minutes
	total time  =         37 seconds =       0.62 minutes
Total time:
	user time   =     136.15 seconds =       2.27 minutes
	system time =       2.67 seconds =       0.04 minutes
	total time  =        139 seconds =       2.32 minutes
  Constructing Basis Sets for SAPT...

   => Loading Basis Set <=

    Name: (JUN-CC-PVTZ AUX)
    Role: RIFIT
    Keyword: DF_BASIS_SAPT
    atoms 1-2, 10-13 entry C          line   132 file /home/r08543048/miniconda3/share/psi4/basis/jun-cc-pvtz-ri.gbs 
    atoms 3          entry O          line   244 file /home/r08543048/miniconda3/share/psi4/basis/jun-cc-pvtz-ri.gbs 
    atoms 4          entry N          line   188 file /home/r08543048/miniconda3/share/psi4/basis/jun-cc-pvtz-ri.gbs 
    atoms 5-9, 14-21 entry H          line    30 file /home/r08543048/miniconda3/share/psi4/basis/jun-cc-pvtz-ri.gbs 


  //>>>>>>>>>>>>>>>>>>>>>>>>>>>>>>>>>>>//
  //               SAPT0               //
  //<<<<<<<<<<<<<<<<<<<<<<<<<<<<<<<<<<<//


*** tstart() called on r282
*** at Sat Sep 11 02:18:27 2021

        SAPT0  
    Ed Hohenstein
     6 June 2009

      Orbital Information
  --------------------------
    NSO        =       494
    NMO        =       494
    NRI        =      1166
    NOCC A     =        16
    NOCC B     =        16
    FOCC A     =         0
    FOCC B     =         0
    NVIR A     =       478
    NVIR B     =       478

    Elst10,r            =    -0.009711522027 [Eh]
    Exch10              =     0.013041784207 [Eh]
    Exch10 (S^2)        =     0.012972098698 [Eh]

    Iter     Energy [mEh]          dE [mEh]         Residual      Time [s]
       1      -0.87103676       0.871036763       4.272864431             1
       2      -1.07228639       0.201249627       1.502401692             2
       3      -1.08196316       0.009676768       0.579719617             3
       4      -1.07631321      -0.005649952       0.238606511             4
       5      -1.07540424      -0.000908964       0.095647234             5
       6      -1.07598224       0.000577996       0.036482400             6
       7      -1.07615061       0.000168371       0.009189948             7
       8      -1.07607845      -0.000072162       0.002311425             8
       9      -1.07607464      -0.000003809       0.000612414             9
      10      -1.07607796       0.000003322       0.000180225            10
      11      -1.07607809       0.000000131       0.000060122            10
      12      -1.07607779      -0.000000297       0.000023014            11
      13      -1.07607784       0.000000049       0.000008515            12
      14      -1.07607787       0.000000024       0.000002364            13
      15      -1.07607786      -0.000000006       0.000000719            14

    CHF Iterations converged


    Iter     Energy [mEh]          dE [mEh]         Residual      Time [s]
       1      -4.14664783       4.146647829      11.112959384             1
       2      -5.14886771       1.002219880       4.254136214             2
       3      -5.28664326       0.137775546       1.168949351             3
       4      -5.26486879      -0.021774470       0.439701887             4
       5      -5.25321882      -0.011649961       0.134872657             5
       6      -5.25552764       0.002308817       0.056742552             6
       7      -5.25632503       0.000797386       0.014864116             6
       8      -5.25603789      -0.000287138       0.003315995             7
       9      -5.25603214      -0.000005748       0.000876026             8
      10      -5.25604124       0.000009095       0.000269876             9
      11      -5.25604241       0.000001174       0.000064197            10
      12      -5.25604160      -0.000000811       0.000015492            11
      13      -5.25604160      -0.000000001       0.000004562            12
      14      -5.25604165       0.000000048       0.000001459            13
      15      -5.25604164      -0.000000005       0.000000506            14

    CHF Iterations converged

    Ind20,r (A<-B)      =    -0.001076077862 [Eh]
    Ind20,r (B<-A)      =    -0.005256041641 [Eh]
    Ind20,r             =    -0.006332119503 [Eh]
    Exch-Ind20,r (A<-B) =     0.000875984881 [Eh]
    Exch-Ind20,r (B<-A) =     0.003382125186 [Eh]
    Exch-Ind20,r        =     0.004258110067 [Eh]
    Disp20              =    -0.009986369833 [Eh]
    Disp20 (SS)         =    -0.004993184917 [Eh]
    Disp20 (OS)         =    -0.004993184917 [Eh]
    Exch-Disp20         =     0.001327959716 [Eh]
    Exch-Disp20 (SS)    =     0.000859005164 [Eh]
    Exch-Disp20 (OS)    =     0.000468954552 [Eh]

    SAPT Results 
  --------------------------------------------------------------------------------------------------------
    Electrostatics                 -9.71152203 [mEh]      -6.09407208 [kcal/mol]     -25.49759757 [kJ/mol]
      Elst10,r                     -9.71152203 [mEh]      -6.09407208 [kcal/mol]     -25.49759757 [kJ/mol]

    Exchange                       13.04178421 [mEh]       8.18384315 [kcal/mol]      34.24119972 [kJ/mol]
      Exch10                       13.04178421 [mEh]       8.18384315 [kcal/mol]      34.24119972 [kJ/mol]
      Exch10(S^2)                  12.97209870 [mEh]       8.14011483 [kcal/mol]      34.05824044 [kJ/mol]

    Induction                      -3.58132695 [mEh]      -2.24731659 [kcal/mol]      -9.40277262 [kJ/mol]
      Ind20,r                      -6.33211950 [mEh]      -3.97346498 [kcal/mol]     -16.62497747 [kJ/mol]
      Exch-Ind20,r                  4.25811007 [mEh]       2.67200441 [kcal/mol]      11.17966644 [kJ/mol]
      delta HF,r (2)               -1.50731751 [mEh]      -0.94585602 [kcal/mol]      -3.95746159 [kJ/mol]

    Dispersion                     -8.65841012 [mEh]      -5.43323438 [kcal/mol]     -22.73265263 [kJ/mol]
      Disp20                       -9.98636983 [mEh]      -6.26654168 [kcal/mol]     -26.21921039 [kJ/mol]
      Exch-Disp20                   1.32795972 [mEh]       0.83330730 [kcal/mol]       3.48655775 [kJ/mol]
      Disp20 (SS)                  -4.99318492 [mEh]      -3.13327084 [kcal/mol]     -13.10960519 [kJ/mol]
      Disp20 (OS)                  -4.99318492 [mEh]      -3.13327084 [kcal/mol]     -13.10960519 [kJ/mol]
      Exch-Disp20 (SS)              0.85900516 [mEh]       0.53903388 [kcal/mol]       2.25531775 [kJ/mol]
      Exch-Disp20 (OS)              0.46895455 [mEh]       0.29427342 [kcal/mol]       1.23124001 [kJ/mol]

  Total HF                         -0.25106477 [mEh]      -0.15754552 [kcal/mol]      -0.65917046 [kJ/mol]
  Total SAPT0                      -8.90947489 [mEh]      -5.59077990 [kcal/mol]     -23.39182309 [kJ/mol]

  Special recipe for scaled SAPT0 (see Manual):
    Electrostatics sSAPT0          -9.71152203 [mEh]      -6.09407208 [kcal/mol]     -25.49759757 [kJ/mol]
    Exchange sSAPT0                13.04178421 [mEh]       8.18384315 [kcal/mol]      34.24119972 [kJ/mol]
    Induction sSAPT0               -3.51233454 [mEh]      -2.20402320 [kcal/mol]      -9.22163308 [kJ/mol]
    Dispersion sSAPT0              -8.63689373 [mEh]      -5.41973264 [kcal/mol]     -22.67616137 [kJ/mol]
  Total sSAPT0                     -8.81896610 [mEh]      -5.53398477 [kcal/mol]     -23.15419229 [kJ/mol]
  --------------------------------------------------------------------------------------------------------

*** tstop() called on r282 at Sat Sep 11 02:20:23 2021
Module time:
	user time   =      98.43 seconds =       1.64 minutes
	system time =      16.82 seconds =       0.28 minutes
	total time  =        116 seconds =       1.93 minutes
Total time:
	user time   =     234.72 seconds =       3.91 minutes
	system time =      19.49 seconds =       0.32 minutes
	total time  =        255 seconds =       4.25 minutes

    Psi4 stopped on: Saturday, 11 September 2021 02:20AM
    Psi4 wall time for execution: 0:04:15.04

*** Psi4 exiting successfully. Buy a developer a beer!
