
    -----------------------------------------------------------------------
          Psi4: An Open-Source Ab Initio Electronic Structure Package
                               Psi4 1.3.2 release

                         Git: Rev {HEAD} ecbda83 


    R. M. Parrish, L. A. Burns, D. G. A. Smith, A. C. Simmonett,
    A. E. DePrince III, E. G. Hohenstein, U. Bozkaya, A. Yu. Sokolov,
    R. Di Remigio, R. M. Richard, J. F. Gonthier, A. M. James,
    H. R. McAlexander, A. Kumar, M. Saitow, X. Wang, B. P. Pritchard,
    P. Verma, H. F. Schaefer III, K. Patkowski, R. A. King, E. F. Valeev,
    F. A. Evangelista, J. M. Turney, T. D. Crawford, and C. D. Sherrill,
    J. Chem. Theory Comput. 13(7) pp 3185--3197 (2017).
    (doi: 10.1021/acs.jctc.7b00174)


                         Additional Contributions by
    P. Kraus, H. Kruse, M. H. Lechner, M. C. Schieber, R. A. Shaw,
    A. Alenaizan, R. Galvelis, Z. L. Glick, S. Lehtola, and J. P. Misiewicz

    -----------------------------------------------------------------------


    Psi4 started on: Saturday, 11 September 2021 02:52AM

    Process ID: 57537
    Host:       r282
    PSIDATADIR: /home/r08543048/miniconda3/share/psi4
    Memory:     500.0 MiB
    Threads:    1
    
  ==> Input File <==

--------------------------------------------------------------------------
# Any line starting with the # character is a comment line
#! Sample  computation

memory 22 gb

molecule Dimer {
0 1
 C  -2.296911   -0.204261   -0.063240
 O  -1.715732   -0.510426   -1.092259
 N  -1.753634    0.523420    0.942194
 H  -2.302716    0.772531    1.744303
 H  -0.814718    0.884401    0.842322
 H  -3.333672   -0.509503    0.142565
 
 
 
 
 
 
  
  
  
  
  
    
    
 --
0 1
 C   1.083500    1.843988   -0.306837
 C   1.760718    0.774008    0.127673
 C   1.671473   -0.593080   -0.472790
 C   1.311762   -1.652862    0.568448
 H   1.201282    2.812261    0.161129
 H   0.410890    1.766215   -1.152550
 H   2.429543    0.888782    0.977549
 H   0.929941   -0.590996   -1.272259
 H   2.639217   -0.845050   -0.915642
 H   2.036431   -1.660703    1.383948
 H   0.326130   -1.459324    0.990573
 H   1.295714   -2.645904    0.121252
   
   
   




units angstrom

no_reorient
symmetry c1
}

set globals{
  basis jun-cc-pvtz
}

energy('sapt0')


--------------------------------------------------------------------------

  Memory set to  20.489 GiB by Python driver.

  //>>>>>>>>>>>>>>>>>>>>>>>>>>>>>>>>>>>//
  //              Dimer HF             //
  //<<<<<<<<<<<<<<<<<<<<<<<<<<<<<<<<<<<//


*** tstart() called on r282
*** at Sat Sep 11 02:52:53 2021

   => Loading Basis Set <=

    Name: JUN-CC-PVTZ
    Role: ORBITAL
    Keyword: BASIS
    atoms 1, 7-10    entry C          line   217 file /home/r08543048/miniconda3/share/psi4/basis/jun-cc-pvtz.gbs 
    atoms 2          entry O          line   305 file /home/r08543048/miniconda3/share/psi4/basis/jun-cc-pvtz.gbs 
    atoms 3          entry N          line   261 file /home/r08543048/miniconda3/share/psi4/basis/jun-cc-pvtz.gbs 
    atoms 4-6, 11-18 entry H          line    36 file /home/r08543048/miniconda3/share/psi4/basis/jun-cc-pvtz.gbs 


         ---------------------------------------------------------
                                   SCF
               by Justin Turney, Rob Parrish, Andy Simmonett
                          and Daniel G. A. Smith
                              RHF Reference
                        1 Threads,  20980 MiB Core
         ---------------------------------------------------------

  ==> Geometry <==

    Molecular point group: c1
    Full point group: C1

    Geometry (in Angstrom), charge = 0, multiplicity = 1:

       Center              X                  Y                   Z               Mass       
    ------------   -----------------  -----------------  -----------------  -----------------
         C           -2.249653242379    -0.210067050128    -0.033649949284    12.000000000000
         O           -1.668474242379    -0.516232050128    -1.062668949284    15.994914619570
         N           -1.706376242379     0.517613949872     0.971784050716    14.003074004430
         H           -2.255458242379     0.766724949872     1.773893050716     1.007825032230
         H           -0.767460242379     0.878594949872     0.871912050716     1.007825032230
         H           -3.286414242379    -0.515309050128     0.172155050716     1.007825032230
         C            1.130757757621     1.838181949872    -0.277246949284    12.000000000000
         C            1.807975757621     0.768201949872     0.157263050716    12.000000000000
         C            1.718730757621    -0.598886050128    -0.443199949284    12.000000000000
         C            1.359019757621    -1.658668050128     0.598038050716    12.000000000000
         H            1.248539757621     2.806454949872     0.190719050716     1.007825032230
         H            0.458147757621     1.760408949872    -1.122959949284     1.007825032230
         H            2.476800757621     0.882975949872     1.007139050716     1.007825032230
         H            0.977198757621    -0.596802050128    -1.242668949284     1.007825032230
         H            2.686474757621    -0.850856050128    -0.886051949284     1.007825032230
         H            2.083688757621    -1.666509050128     1.413538050716     1.007825032230
         H            0.373387757621    -1.465130050128     1.020163050716     1.007825032230
         H            1.342971757621    -2.651710050128     0.150842050716     1.007825032230

  Running in c1 symmetry.

  Rotational constants: A =      0.09867  B =      0.04839  C =      0.04037 [cm^-1]
  Rotational constants: A =   2958.02032  B =   1450.78031  C =   1210.41117 [MHz]
  Nuclear repulsion =  295.359701081029982

  Charge       = 0
  Multiplicity = 1
  Electrons    = 56
  Nalpha       = 28
  Nbeta        = 28

  ==> Algorithm <==

  SCF Algorithm Type is DF.
  DIIS enabled.
  MOM disabled.
  Fractional occupation disabled.
  Guess Type is SAD.
  Energy threshold   = 1.00e-08
  Density threshold  = 1.00e-08
  Integral threshold = 0.00e+00

  ==> Primary Basis <==

  Basis Set: JUN-CC-PVTZ
    Blend: JUN-CC-PVTZ
    Number of shells: 157
    Number of basis function: 427
    Number of Cartesian functions: 480
    Spherical Harmonics?: true
    Max angular momentum: 3

   => Loading Basis Set <=

    Name: (JUN-CC-PVTZ AUX)
    Role: JKFIT
    Keyword: DF_BASIS_SCF
    atoms 1, 7-10    entry C          line   152 file /home/r08543048/miniconda3/share/psi4/basis/jun-cc-pvtz-jkfit.gbs 
    atoms 2          entry O          line   272 file /home/r08543048/miniconda3/share/psi4/basis/jun-cc-pvtz-jkfit.gbs 
    atoms 3          entry N          line   212 file /home/r08543048/miniconda3/share/psi4/basis/jun-cc-pvtz-jkfit.gbs 
    atoms 4-6, 11-18 entry H          line    70 file /home/r08543048/miniconda3/share/psi4/basis/jun-cc-pvtz-jkfit.gbs 

  ==> Pre-Iterations <==

   -------------------------------------------------------
    Irrep   Nso     Nmo     Nalpha   Nbeta   Ndocc  Nsocc
   -------------------------------------------------------
     A        427     427       0       0       0       0
   -------------------------------------------------------
    Total     427     427      28      28      28       0
   -------------------------------------------------------

  ==> Integral Setup <==

  ==> DiskDFJK: Density-Fitted J/K Matrices <==

    J tasked:                  Yes
    K tasked:                  Yes
    wK tasked:                  No
    OpenMP threads:              1
    Integrals threads:           1
    Memory [MiB]:            15735
    Algorithm:                Core
    Integral Cache:           SAVE
    Schwarz Cutoff:          1E-12
    Fitting Condition:       1E-10

   => Auxiliary Basis Set <=

  Basis Set: (JUN-CC-PVTZ AUX)
    Blend: JUN-CC-PVTZ-JKFIT
    Number of shells: 313
    Number of basis function: 995
    Number of Cartesian functions: 1197
    Spherical Harmonics?: true
    Max angular momentum: 4

  Minimum eigenvalue in the overlap matrix is 3.5219426802E-05.
  Using Symmetric Orthogonalization.

  SCF Guess: Superposition of Atomic Densities via on-the-fly atomic UHF.

  ==> Iterations <==

                           Total Energy        Delta E     RMS |[F,P]|

   @DF-RHF iter SAD:  -323.74761327163640   -3.23748e+02   0.00000e+00 
   @DF-RHF iter   1:  -324.88423253664763   -1.13662e+00   1.72737e-03 DIIS
   @DF-RHF iter   2:  -325.09447466776862   -2.10242e-01   9.99422e-04 DIIS
   @DF-RHF iter   3:  -325.16381871451813   -6.93440e-02   2.00857e-04 DIIS
   @DF-RHF iter   4:  -325.16770475769567   -3.88604e-03   8.11450e-05 DIIS
   @DF-RHF iter   5:  -325.16841076813336   -7.06010e-04   1.45008e-05 DIIS
   @DF-RHF iter   6:  -325.16845120042058   -4.04323e-05   6.71246e-06 DIIS
   @DF-RHF iter   7:  -325.16845929933481   -8.09891e-06   2.35337e-06 DIIS
   @DF-RHF iter   8:  -325.16846091494443   -1.61561e-06   9.84523e-07 DIIS
   @DF-RHF iter   9:  -325.16846117505389   -2.60109e-07   2.97157e-07 DIIS
   @DF-RHF iter  10:  -325.16846119914788   -2.40940e-08   1.12115e-07 DIIS
   @DF-RHF iter  11:  -325.16846120141463   -2.26675e-09   3.33296e-08 DIIS
   @DF-RHF iter  12:  -325.16846120165445   -2.39822e-10   9.28717e-09 DIIS
  Energy and wave function converged.


  ==> Post-Iterations <==

    Orbital Energies [Eh]
    ---------------------

    Doubly Occupied:                                                      

       1A    -20.526752     2A    -15.588830     3A    -11.354630  
       4A    -11.235399     5A    -11.218898     6A    -11.215507  
       7A    -11.207906     8A     -1.379912     9A     -1.216214  
      10A     -1.079353    11A     -0.986814    12A     -0.852691  
      13A     -0.847683    14A     -0.755650    15A     -0.747213  
      16A     -0.672478    17A     -0.641364    18A     -0.605645  
      19A     -0.603309    20A     -0.585995    21A     -0.565787  
      22A     -0.531589    23A     -0.510871    24A     -0.481025  
      25A     -0.474672    26A     -0.434538    27A     -0.417371  
      28A     -0.361298  

    Virtual:                                                              

      29A      0.046792    30A      0.055736    31A      0.056855  
      32A      0.064643    33A      0.072821    34A      0.077761  
      35A      0.087486    36A      0.095636    37A      0.098406  
      38A      0.109708    39A      0.116058    40A      0.122891  
      41A      0.129128    42A      0.134571    43A      0.136417  
      44A      0.152337    45A      0.165139    46A      0.171084  
      47A      0.174122    48A      0.179327    49A      0.192814  
      50A      0.197653    51A      0.201741    52A      0.215397  
      53A      0.220453    54A      0.241111    55A      0.243281  
      56A      0.252136    57A      0.259820    58A      0.273897  
      59A      0.278890    60A      0.286837    61A      0.294968  
      62A      0.305917    63A      0.310253    64A      0.316287  
      65A      0.321557    66A      0.330693    67A      0.337964  
      68A      0.349710    69A      0.353461    70A      0.357039  
      71A      0.367697    72A      0.374171    73A      0.381199  
      74A      0.389389    75A      0.391297    76A      0.401291  
      77A      0.408796    78A      0.422630    79A      0.430156  
      80A      0.431563    81A      0.441735    82A      0.452342  
      83A      0.460510    84A      0.470500    85A      0.486293  
      86A      0.492428    87A      0.499807    88A      0.503868  
      89A      0.517001    90A      0.528345    91A      0.534579  
      92A      0.544491    93A      0.548422    94A      0.554469  
      95A      0.572951    96A      0.583985    97A      0.588538  
      98A      0.594951    99A      0.605998   100A      0.608524  
     101A      0.626738   102A      0.632957   103A      0.638063  
     104A      0.651667   105A      0.673400   106A      0.699244  
     107A      0.716471   108A      0.720703   109A      0.737540  
     110A      0.744789   111A      0.758649   112A      0.765914  
     113A      0.781617   114A      0.789741   115A      0.803241  
     116A      0.808120   117A      0.811825   118A      0.824577  
     119A      0.835041   120A      0.843215   121A      0.860433  
     122A      0.861639   123A      0.870949   124A      0.880174  
     125A      0.885583   126A      0.887505   127A      0.906943  
     128A      0.912317   129A      0.932192   130A      0.945123  
     131A      0.956178   132A      0.976135   133A      0.983232  
     134A      1.001276   135A      1.012533   136A      1.019964  
     137A      1.040772   138A      1.045656   139A      1.052555  
     140A      1.064563   141A      1.075758   142A      1.092109  
     143A      1.097743   144A      1.110936   145A      1.128480  
     146A      1.146837   147A      1.152479   148A      1.169890  
     149A      1.189271   150A      1.199319   151A      1.216683  
     152A      1.240264   153A      1.266670   154A      1.272947  
     155A      1.281732   156A      1.295289   157A      1.316569  
     158A      1.321049   159A      1.331881   160A      1.351018  
     161A      1.364159   162A      1.376952   163A      1.382709  
     164A      1.388080   165A      1.403732   166A      1.422647  
     167A      1.430025   168A      1.434249   169A      1.460284  
     170A      1.462538   171A      1.477422   172A      1.489904  
     173A      1.513520   174A      1.518630   175A      1.533775  
     176A      1.560692   177A      1.565305   178A      1.571790  
     179A      1.576472   180A      1.612689   181A      1.615235  
     182A      1.635094   183A      1.637593   184A      1.658405  
     185A      1.684872   186A      1.692437   187A      1.697314  
     188A      1.708076   189A      1.729412   190A      1.737885  
     191A      1.778769   192A      1.793336   193A      1.797564  
     194A      1.809644   195A      1.826280   196A      1.859365  
     197A      1.874067   198A      1.889880   199A      1.901478  
     200A      1.943953   201A      1.965888   202A      1.972793  
     203A      2.014486   204A      2.041397   205A      2.084882  
     206A      2.125837   207A      2.138236   208A      2.179486  
     209A      2.239559   210A      2.267185   211A      2.329581  
     212A      2.394101   213A      2.413072   214A      2.528863  
     215A      2.611777   216A      2.709373   217A      2.718414  
     218A      2.736696   219A      2.754646   220A      2.783732  
     221A      2.826367   222A      2.831591   223A      2.835781  
     224A      2.866621   225A      2.876080   226A      2.898570  
     227A      2.923313   228A      2.945862   229A      2.964348  
     230A      2.975648   231A      3.000291   232A      3.016840  
     233A      3.036635   234A      3.068944   235A      3.082774  
     236A      3.094659   237A      3.127034   238A      3.133555  
     239A      3.145520   240A      3.158938   241A      3.167703  
     242A      3.176804   243A      3.190669   244A      3.205727  
     245A      3.222317   246A      3.238931   247A      3.251319  
     248A      3.262807   249A      3.285811   250A      3.314478  
     251A      3.317934   252A      3.346025   253A      3.352722  
     254A      3.363772   255A      3.376066   256A      3.400407  
     257A      3.405580   258A      3.416612   259A      3.425795  
     260A      3.438974   261A      3.446387   262A      3.467818  
     263A      3.480137   264A      3.488801   265A      3.495863  
     266A      3.498971   267A      3.507760   268A      3.525709  
     269A      3.529727   270A      3.540000   271A      3.552994  
     272A      3.569038   273A      3.590112   274A      3.598343  
     275A      3.603601   276A      3.615141   277A      3.634751  
     278A      3.644638   279A      3.675797   280A      3.690820  
     281A      3.702604   282A      3.708743   283A      3.726134  
     284A      3.743541   285A      3.762126   286A      3.783920  
     287A      3.796688   288A      3.814520   289A      3.838952  
     290A      3.849758   291A      3.860417   292A      3.872998  
     293A      3.892670   294A      3.898499   295A      3.911993  
     296A      3.952134   297A      3.956283   298A      3.986269  
     299A      3.996463   300A      4.011752   301A      4.019970  
     302A      4.063249   303A      4.070950   304A      4.093908  
     305A      4.115321   306A      4.143369   307A      4.181921  
     308A      4.190501   309A      4.201839   310A      4.202903  
     311A      4.240144   312A      4.262880   313A      4.268942  
     314A      4.274338   315A      4.285216   316A      4.294097  
     317A      4.313189   318A      4.335260   319A      4.344394  
     320A      4.354712   321A      4.363895   322A      4.374906  
     323A      4.408963   324A      4.409767   325A      4.422192  
     326A      4.451293   327A      4.458749   328A      4.466149  
     329A      4.475775   330A      4.492014   331A      4.493789  
     332A      4.508634   333A      4.518968   334A      4.535885  
     335A      4.560242   336A      4.579552   337A      4.587128  
     338A      4.630770   339A      4.639967   340A      4.648931  
     341A      4.676926   342A      4.688117   343A      4.697162  
     344A      4.722130   345A      4.753850   346A      4.775039  
     347A      4.793342   348A      4.825423   349A      4.831105  
     350A      4.853334   351A      4.872133   352A      4.911511  
     353A      4.954383   354A      4.975781   355A      5.002613  
     356A      5.013673   357A      5.045510   358A      5.076272  
     359A      5.103241   360A      5.179551   361A      5.196410  
     362A      5.213269   363A      5.233502   364A      5.240572  
     365A      5.252338   366A      5.257708   367A      5.276414  
     368A      5.297984   369A      5.303884   370A      5.319175  
     371A      5.325481   372A      5.380981   373A      5.409795  
     374A      5.419537   375A      5.438041   376A      5.471606  
     377A      5.484220   378A      5.523742   379A      5.550644  
     380A      5.595247   381A      5.599563   382A      5.673802  
     383A      5.720490   384A      5.733131   385A      5.739072  
     386A      5.766706   387A      5.776912   388A      5.804838  
     389A      5.839359   390A      5.895029   391A      5.908279  
     392A      5.922515   393A      5.955673   394A      5.968805  
     395A      6.002921   396A      6.031429   397A      6.043090  
     398A      6.078261   399A      6.170258   400A      6.181521  
     401A      6.259536   402A      6.369643   403A      6.410740  
     404A      6.491670   405A      6.506482   406A      6.534743  
     407A      6.569624   408A      6.599818   409A      6.679266  
     410A      6.707026   411A      6.788367   412A      6.935397  
     413A      7.166494   414A      7.263698   415A      7.282839  
     416A      7.409264   417A      7.458988   418A      7.603511  
     419A      7.733009   420A      7.824934   421A     12.319882  
     422A     12.715603   423A     14.015891   424A     14.278955  
     425A     14.599836   426A     15.295848   427A     15.746043  

    Final Occupation by Irrep:
              A 
    DOCC [    28 ]

  @DF-RHF Final Energy:  -325.16846120165445

   => Energetics <=

    Nuclear Repulsion Energy =            295.3597010810299821
    One-Electron Energy =               -1026.8575405105059417
    Two-Electron Energy =                 406.3293782278215645
    Total Energy =                       -325.1684612016544520

Computation Completed


Properties will be evaluated at   0.000000,   0.000000,   0.000000 [a0]

Properties computed using the SCF density matrix

  Nuclear Dipole Moment: [e a0]
     X:     5.0010      Y:    -0.6144      Z:     3.1314

  Electronic Dipole Moment: [e a0]
     X:    -5.3438      Y:     1.0677      Z:    -1.7895

  Dipole Moment: [e a0]
     X:    -0.3427      Y:     0.4533      Z:     1.3419     Total:     1.4573

  Dipole Moment: [D]
     X:    -0.8712      Y:     1.1521      Z:     3.4108     Total:     3.7040


*** tstop() called on r282 at Sat Sep 11 02:53:30 2021
Module time:
	user time   =      36.41 seconds =       0.61 minutes
	system time =       0.93 seconds =       0.02 minutes
	total time  =         37 seconds =       0.62 minutes
Total time:
	user time   =      36.41 seconds =       0.61 minutes
	system time =       0.93 seconds =       0.02 minutes
	total time  =         37 seconds =       0.62 minutes

  //>>>>>>>>>>>>>>>>>>>>>>>>>>>>>>>>>>>//
  //            Monomer A HF           //
  //<<<<<<<<<<<<<<<<<<<<<<<<<<<<<<<<<<<//


*** tstart() called on r282
*** at Sat Sep 11 02:53:30 2021

   => Loading Basis Set <=

    Name: JUN-CC-PVTZ
    Role: ORBITAL
    Keyword: BASIS
    atoms 1, 7-10    entry C          line   217 file /home/r08543048/miniconda3/share/psi4/basis/jun-cc-pvtz.gbs 
    atoms 2          entry O          line   305 file /home/r08543048/miniconda3/share/psi4/basis/jun-cc-pvtz.gbs 
    atoms 3          entry N          line   261 file /home/r08543048/miniconda3/share/psi4/basis/jun-cc-pvtz.gbs 
    atoms 4-6, 11-18 entry H          line    36 file /home/r08543048/miniconda3/share/psi4/basis/jun-cc-pvtz.gbs 


         ---------------------------------------------------------
                                   SCF
               by Justin Turney, Rob Parrish, Andy Simmonett
                          and Daniel G. A. Smith
                              RHF Reference
                        1 Threads,  20980 MiB Core
         ---------------------------------------------------------

  ==> Geometry <==

    Molecular point group: c1
    Full point group: C1

    Geometry (in Angstrom), charge = 0, multiplicity = 1:

       Center              X                  Y                   Z               Mass       
    ------------   -----------------  -----------------  -----------------  -----------------
         C           -2.249653242379    -0.210067050128    -0.033649949284    12.000000000000
         O           -1.668474242379    -0.516232050128    -1.062668949284    15.994914619570
         N           -1.706376242379     0.517613949872     0.971784050716    14.003074004430
         H           -2.255458242379     0.766724949872     1.773893050716     1.007825032230
         H           -0.767460242379     0.878594949872     0.871912050716     1.007825032230
         H           -3.286414242379    -0.515309050128     0.172155050716     1.007825032230
      Gh(C)           1.130757757621     1.838181949872    -0.277246949284    12.000000000000
      Gh(C)           1.807975757621     0.768201949872     0.157263050716    12.000000000000
      Gh(C)           1.718730757621    -0.598886050128    -0.443199949284    12.000000000000
      Gh(C)           1.359019757621    -1.658668050128     0.598038050716    12.000000000000
      Gh(H)           1.248539757621     2.806454949872     0.190719050716     1.007825032230
      Gh(H)           0.458147757621     1.760408949872    -1.122959949284     1.007825032230
      Gh(H)           2.476800757621     0.882975949872     1.007139050716     1.007825032230
      Gh(H)           0.977198757621    -0.596802050128    -1.242668949284     1.007825032230
      Gh(H)           2.686474757621    -0.850856050128    -0.886051949284     1.007825032230
      Gh(H)           2.083688757621    -1.666509050128     1.413538050716     1.007825032230
      Gh(H)           0.373387757621    -1.465130050128     1.020163050716     1.007825032230
      Gh(H)           1.342971757621    -2.651710050128     0.150842050716     1.007825032230

  Running in c1 symmetry.

  Rotational constants: A =      0.09867  B =      0.04839  C =      0.04037 [cm^-1]
  Rotational constants: A =   2958.02032  B =   1450.78031  C =   1210.41117 [MHz]
  Nuclear repulsion =   71.126826993704995

  Charge       = 0
  Multiplicity = 1
  Electrons    = 24
  Nalpha       = 12
  Nbeta        = 12

  ==> Algorithm <==

  SCF Algorithm Type is DF.
  DIIS enabled.
  MOM disabled.
  Fractional occupation disabled.
  Guess Type is SAD.
  Energy threshold   = 1.00e-08
  Density threshold  = 1.00e-08
  Integral threshold = 0.00e+00

  ==> Primary Basis <==

  Basis Set: JUN-CC-PVTZ
    Blend: JUN-CC-PVTZ
    Number of shells: 157
    Number of basis function: 427
    Number of Cartesian functions: 480
    Spherical Harmonics?: true
    Max angular momentum: 3

   => Loading Basis Set <=

    Name: (JUN-CC-PVTZ AUX)
    Role: JKFIT
    Keyword: DF_BASIS_SCF
    atoms 1, 7-10    entry C          line   152 file /home/r08543048/miniconda3/share/psi4/basis/jun-cc-pvtz-jkfit.gbs 
    atoms 2          entry O          line   272 file /home/r08543048/miniconda3/share/psi4/basis/jun-cc-pvtz-jkfit.gbs 
    atoms 3          entry N          line   212 file /home/r08543048/miniconda3/share/psi4/basis/jun-cc-pvtz-jkfit.gbs 
    atoms 4-6, 11-18 entry H          line    70 file /home/r08543048/miniconda3/share/psi4/basis/jun-cc-pvtz-jkfit.gbs 

  ==> Pre-Iterations <==

   -------------------------------------------------------
    Irrep   Nso     Nmo     Nalpha   Nbeta   Ndocc  Nsocc
   -------------------------------------------------------
     A        427     427       0       0       0       0
   -------------------------------------------------------
    Total     427     427      12      12      12       0
   -------------------------------------------------------

  ==> Integral Setup <==

  ==> DiskDFJK: Density-Fitted J/K Matrices <==

    J tasked:                  Yes
    K tasked:                  Yes
    wK tasked:                  No
    OpenMP threads:              1
    Integrals threads:           1
    Memory [MiB]:            15735
    Algorithm:                Core
    Integral Cache:           LOAD
    Schwarz Cutoff:          1E-12
    Fitting Condition:       1E-10

   => Auxiliary Basis Set <=

  Basis Set: (JUN-CC-PVTZ AUX)
    Blend: JUN-CC-PVTZ-JKFIT
    Number of shells: 313
    Number of basis function: 995
    Number of Cartesian functions: 1197
    Spherical Harmonics?: true
    Max angular momentum: 4

  Minimum eigenvalue in the overlap matrix is 3.5219426802E-05.
  Using Symmetric Orthogonalization.

  SCF Guess: Superposition of Atomic Densities via on-the-fly atomic UHF.

  ==> Iterations <==

                           Total Energy        Delta E     RMS |[F,P]|

   @DF-RHF iter SAD:  -168.21561730689942   -1.68216e+02   0.00000e+00 
   @DF-RHF iter   1:  -168.88107979762339   -6.65462e-01   1.25118e-03 DIIS
   @DF-RHF iter   2:  -168.95745283703354   -7.63730e-02   8.63777e-04 DIIS
   @DF-RHF iter   3:  -169.00188896388406   -4.44361e-02   1.20831e-04 DIIS
   @DF-RHF iter   4:  -169.00331006327309   -1.42110e-03   5.23041e-05 DIIS
   @DF-RHF iter   5:  -169.00360765294920   -2.97590e-04   1.07801e-05 DIIS
   @DF-RHF iter   6:  -169.00363917152566   -3.15186e-05   5.20350e-06 DIIS
   @DF-RHF iter   7:  -169.00364588713981   -6.71561e-06   2.09844e-06 DIIS
   @DF-RHF iter   8:  -169.00364704225299   -1.15511e-06   6.07910e-07 DIIS
   @DF-RHF iter   9:  -169.00364714126806   -9.90151e-08   1.64088e-07 DIIS
   @DF-RHF iter  10:  -169.00364714866191   -7.39385e-09   4.06350e-08 DIIS
   @DF-RHF iter  11:  -169.00364714903731   -3.75394e-10   7.28649e-09 DIIS
  Energy and wave function converged.


  ==> Post-Iterations <==

    Orbital Energies [Eh]
    ---------------------

    Doubly Occupied:                                                      

       1A    -20.530064     2A    -15.598941     3A    -11.358127  
       4A     -1.382118     5A     -1.223059     6A     -0.854112  
       7A     -0.753904     8A     -0.676282     9A     -0.607976  
      10A     -0.571613    11A     -0.437501    12A     -0.422708  

    Virtual:                                                              

      13A      0.029890    14A      0.046509    15A      0.048936  
      16A      0.059676    17A      0.068728    18A      0.075165  
      19A      0.085312    20A      0.090356    21A      0.093528  
      22A      0.111193    23A      0.113043    24A      0.116836  
      25A      0.121567    26A      0.128512    27A      0.132243  
      28A      0.137866    29A      0.149429    30A      0.156085  
      31A      0.169217    32A      0.171577    33A      0.176834  
      34A      0.179185    35A      0.185612    36A      0.193676  
      37A      0.218692    38A      0.236991    39A      0.248459  
      40A      0.254203    41A      0.258960    42A      0.269116  
      43A      0.276444    44A      0.280298    45A      0.285894  
      46A      0.298814    47A      0.307352    48A      0.317338  
      49A      0.322038    50A      0.330804    51A      0.332117  
      52A      0.350459    53A      0.357139    54A      0.363348  
      55A      0.375742    56A      0.378534    57A      0.387196  
      58A      0.390777    59A      0.407201    60A      0.408415  
      61A      0.417964    62A      0.424609    63A      0.430425  
      64A      0.437918    65A      0.441873    66A      0.458781  
      67A      0.469074    68A      0.481278    69A      0.485796  
      70A      0.501616    71A      0.507342    72A      0.512308  
      73A      0.529514    74A      0.540612    75A      0.545546  
      76A      0.560597    77A      0.567845    78A      0.577421  
      79A      0.585849    80A      0.588552    81A      0.597043  
      82A      0.600923    83A      0.612604    84A      0.616419  
      85A      0.625582    86A      0.632866    87A      0.634978  
      88A      0.656335    89A      0.660654    90A      0.669569  
      91A      0.677574    92A      0.691777    93A      0.696437  
      94A      0.715832    95A      0.722873    96A      0.735013  
      97A      0.752729    98A      0.763110    99A      0.780253  
     100A      0.792888   101A      0.801787   102A      0.829737  
     103A      0.838388   104A      0.844769   105A      0.869875  
     106A      0.875444   107A      0.898259   108A      0.913107  
     109A      0.950295   110A      0.981444   111A      1.008300  
     112A      1.025238   113A      1.039701   114A      1.066090  
     115A      1.073727   116A      1.079286   117A      1.092597  
     118A      1.118513   119A      1.128658   120A      1.135962  
     121A      1.139125   122A      1.147634   123A      1.169978  
     124A      1.182504   125A      1.188856   126A      1.216212  
     127A      1.218491   128A      1.236251   129A      1.245322  
     130A      1.258866   131A      1.265365   132A      1.275138  
     133A      1.282813   134A      1.296303   135A      1.299972  
     136A      1.305627   137A      1.324586   138A      1.331251  
     139A      1.339200   140A      1.343832   141A      1.355517  
     142A      1.369100   143A      1.378248   144A      1.381981  
     145A      1.391777   146A      1.405899   147A      1.409671  
     148A      1.419374   149A      1.433215   150A      1.449220  
     151A      1.465232   152A      1.475020   153A      1.481991  
     154A      1.493179   155A      1.503757   156A      1.527793  
     157A      1.542948   158A      1.550889   159A      1.568849  
     160A      1.575649   161A      1.586328   162A      1.601282  
     163A      1.609118   164A      1.612706   165A      1.625927  
     166A      1.641836   167A      1.663664   168A      1.674702  
     169A      1.685873   170A      1.709550   171A      1.717308  
     172A      1.737865   173A      1.755636   174A      1.774239  
     175A      1.784998   176A      1.815575   177A      1.833523  
     178A      1.851397   179A      1.876190   180A      1.894599  
     181A      1.916552   182A      1.958376   183A      1.982904  
     184A      2.005295   185A      2.025342   186A      2.077434  
     187A      2.091742   188A      2.107396   189A      2.124687  
     190A      2.149576   191A      2.165917   192A      2.206350  
     193A      2.214919   194A      2.235888   195A      2.248871  
     196A      2.306009   197A      2.335587   198A      2.363768  
     199A      2.401201   200A      2.414505   201A      2.422843  
     202A      2.428788   203A      2.463479   204A      2.512939  
     205A      2.532818   206A      2.566435   207A      2.574261  
     208A      2.610256   209A      2.647501   210A      2.729653  
     211A      2.750641   212A      2.761230   213A      2.875747  
     214A      2.931471   215A      3.050279   216A      3.138201  
     217A      3.166932   218A      3.172935   219A      3.269101  
     220A      3.341400   221A      3.392423   222A      3.429399  
     223A      3.443894   224A      3.449840   225A      3.463556  
     226A      3.485614   227A      3.491074   228A      3.510395  
     229A      3.534210   230A      3.535320   231A      3.568286  
     232A      3.576343   233A      3.595764   234A      3.599157  
     235A      3.615588   236A      3.628378   237A      3.643850  
     238A      3.656735   239A      3.672900   240A      3.689900  
     241A      3.705765   242A      3.716219   243A      3.729180  
     244A      3.767235   245A      3.782565   246A      3.799484  
     247A      3.810569   248A      3.819855   249A      3.834924  
     250A      3.840265   251A      3.858489   252A      3.864803  
     253A      3.867093   254A      3.896744   255A      3.925214  
     256A      3.952260   257A      3.960419   258A      3.965408  
     259A      3.977502   260A      4.011983   261A      4.036835  
     262A      4.048608   263A      4.066263   264A      4.093916  
     265A      4.120489   266A      4.121653   267A      4.136589  
     268A      4.160397   269A      4.166123   270A      4.194685  
     271A      4.198591   272A      4.223621   273A      4.231501  
     274A      4.248391   275A      4.256029   276A      4.270323  
     277A      4.305403   278A      4.308896   279A      4.332936  
     280A      4.354332   281A      4.366946   282A      4.390166  
     283A      4.410604   284A      4.429426   285A      4.450298  
     286A      4.462561   287A      4.479690   288A      4.484528  
     289A      4.489889   290A      4.506276   291A      4.513204  
     292A      4.533733   293A      4.556468   294A      4.573999  
     295A      4.590498   296A      4.595760   297A      4.618282  
     298A      4.620533   299A      4.627737   300A      4.643571  
     301A      4.671407   302A      4.680697   303A      4.684328  
     304A      4.701491   305A      4.710157   306A      4.723501  
     307A      4.755531   308A      4.764183   309A      4.779442  
     310A      4.787024   311A      4.799180   312A      4.818332  
     313A      4.833041   314A      4.838644   315A      4.846929  
     316A      4.851526   317A      4.870461   318A      4.885568  
     319A      4.888506   320A      4.897353   321A      4.921921  
     322A      4.942480   323A      4.953151   324A      4.973712  
     325A      4.982123   326A      4.989504   327A      5.013616  
     328A      5.020279   329A      5.043280   330A      5.065284  
     331A      5.072817   332A      5.094040   333A      5.102008  
     334A      5.139098   335A      5.165752   336A      5.178605  
     337A      5.193169   338A      5.204434   339A      5.248391  
     340A      5.251628   341A      5.261092   342A      5.279104  
     343A      5.307587   344A      5.318250   345A      5.374489  
     346A      5.392794   347A      5.435095   348A      5.470174  
     349A      5.475274   350A      5.482554   351A      5.505286  
     352A      5.549306   353A      5.577681   354A      5.620201  
     355A      5.674058   356A      5.707847   357A      5.726231  
     358A      5.740695   359A      5.744224   360A      5.825747  
     361A      5.837255   362A      5.887580   363A      5.904526  
     364A      5.942613   365A      5.972383   366A      5.996636  
     367A      6.028457   368A      6.034988   369A      6.064539  
     370A      6.070027   371A      6.084901   372A      6.164164  
     373A      6.168646   374A      6.206602   375A      6.256256  
     376A      6.262274   377A      6.338692   378A      6.367511  
     379A      6.375756   380A      6.406105   381A      6.421789  
     382A      6.476914   383A      6.512989   384A      6.560062  
     385A      6.653519   386A      6.672403   387A      6.738864  
     388A      6.786086   389A      6.796588   390A      6.873913  
     391A      6.930671   392A      6.966623   393A      7.104916  
     394A      7.164324   395A      7.261767   396A      7.278069  
     397A      7.364743   398A      7.387073   399A      7.425020  
     400A      7.459717   401A      7.502733   402A      7.574045  
     403A      7.606184   404A      7.614381   405A      7.705344  
     406A      7.714086   407A      7.734847   408A      7.822386  
     409A      7.852774   410A      7.896409   411A      7.969906  
     412A      7.984721   413A      8.138417   414A      8.265041  
     415A      8.434175   416A      8.799361   417A      9.423393  
     418A      9.694253   419A      9.918334   420A     10.209562  
     421A     12.719736   422A     14.239482   423A     15.702722  
     424A     41.063659   425A     44.794750   426A     45.733325  
     427A     47.083765  

    Final Occupation by Irrep:
              A 
    DOCC [    12 ]

  @DF-RHF Final Energy:  -169.00364714903731

   => Energetics <=

    Nuclear Repulsion Energy =             71.1268269937049951
    One-Electron Energy =                -371.4281385596525524
    Two-Electron Energy =                 131.2976644169102656
    Total Energy =                       -169.0036471490373060

Computation Completed


Properties will be evaluated at   0.000000,   0.000000,   0.000000 [a0]

Properties computed using the SCF density matrix

  Nuclear Dipole Moment: [e a0]
     X:   -85.2260      Y:    -1.2037      Z:     1.7333

  Electronic Dipole Moment: [e a0]
     X:    84.7851      Y:     1.8718      Z:    -0.2260

  Dipole Moment: [e a0]
     X:    -0.4409      Y:     0.6682      Z:     1.5073     Total:     1.7067

  Dipole Moment: [D]
     X:    -1.1207      Y:     1.6984      Z:     3.8312     Total:     4.3380


*** tstop() called on r282 at Sat Sep 11 02:53:49 2021
Module time:
	user time   =      18.24 seconds =       0.30 minutes
	system time =       0.41 seconds =       0.01 minutes
	total time  =         19 seconds =       0.32 minutes
Total time:
	user time   =      54.65 seconds =       0.91 minutes
	system time =       1.34 seconds =       0.02 minutes
	total time  =         56 seconds =       0.93 minutes

  //>>>>>>>>>>>>>>>>>>>>>>>>>>>>>>>>>>>//
  //            Monomer B HF           //
  //<<<<<<<<<<<<<<<<<<<<<<<<<<<<<<<<<<<//


*** tstart() called on r282
*** at Sat Sep 11 02:53:49 2021

   => Loading Basis Set <=

    Name: JUN-CC-PVTZ
    Role: ORBITAL
    Keyword: BASIS
    atoms 1, 7-10    entry C          line   217 file /home/r08543048/miniconda3/share/psi4/basis/jun-cc-pvtz.gbs 
    atoms 2          entry O          line   305 file /home/r08543048/miniconda3/share/psi4/basis/jun-cc-pvtz.gbs 
    atoms 3          entry N          line   261 file /home/r08543048/miniconda3/share/psi4/basis/jun-cc-pvtz.gbs 
    atoms 4-6, 11-18 entry H          line    36 file /home/r08543048/miniconda3/share/psi4/basis/jun-cc-pvtz.gbs 


         ---------------------------------------------------------
                                   SCF
               by Justin Turney, Rob Parrish, Andy Simmonett
                          and Daniel G. A. Smith
                              RHF Reference
                        1 Threads,  20980 MiB Core
         ---------------------------------------------------------

  ==> Geometry <==

    Molecular point group: c1
    Full point group: C1

    Geometry (in Angstrom), charge = 0, multiplicity = 1:

       Center              X                  Y                   Z               Mass       
    ------------   -----------------  -----------------  -----------------  -----------------
      Gh(C)          -2.249653242379    -0.210067050128    -0.033649949284    12.000000000000
      Gh(O)          -1.668474242379    -0.516232050128    -1.062668949284    15.994914619570
      Gh(N)          -1.706376242379     0.517613949872     0.971784050716    14.003074004430
      Gh(H)          -2.255458242379     0.766724949872     1.773893050716     1.007825032230
      Gh(H)          -0.767460242379     0.878594949872     0.871912050716     1.007825032230
      Gh(H)          -3.286414242379    -0.515309050128     0.172155050716     1.007825032230
         C            1.130757757621     1.838181949872    -0.277246949284    12.000000000000
         C            1.807975757621     0.768201949872     0.157263050716    12.000000000000
         C            1.718730757621    -0.598886050128    -0.443199949284    12.000000000000
         C            1.359019757621    -1.658668050128     0.598038050716    12.000000000000
         H            1.248539757621     2.806454949872     0.190719050716     1.007825032230
         H            0.458147757621     1.760408949872    -1.122959949284     1.007825032230
         H            2.476800757621     0.882975949872     1.007139050716     1.007825032230
         H            0.977198757621    -0.596802050128    -1.242668949284     1.007825032230
         H            2.686474757621    -0.850856050128    -0.886051949284     1.007825032230
         H            2.083688757621    -1.666509050128     1.413538050716     1.007825032230
         H            0.373387757621    -1.465130050128     1.020163050716     1.007825032230
         H            1.342971757621    -2.651710050128     0.150842050716     1.007825032230

  Running in c1 symmetry.

  Rotational constants: A =      0.09867  B =      0.04839  C =      0.04037 [cm^-1]
  Rotational constants: A =   2958.02032  B =   1450.78031  C =   1210.41117 [MHz]
  Nuclear repulsion =  117.312427500157142

  Charge       = 0
  Multiplicity = 1
  Electrons    = 32
  Nalpha       = 16
  Nbeta        = 16

  ==> Algorithm <==

  SCF Algorithm Type is DF.
  DIIS enabled.
  MOM disabled.
  Fractional occupation disabled.
  Guess Type is SAD.
  Energy threshold   = 1.00e-08
  Density threshold  = 1.00e-08
  Integral threshold = 0.00e+00

  ==> Primary Basis <==

  Basis Set: JUN-CC-PVTZ
    Blend: JUN-CC-PVTZ
    Number of shells: 157
    Number of basis function: 427
    Number of Cartesian functions: 480
    Spherical Harmonics?: true
    Max angular momentum: 3

   => Loading Basis Set <=

    Name: (JUN-CC-PVTZ AUX)
    Role: JKFIT
    Keyword: DF_BASIS_SCF
    atoms 1, 7-10    entry C          line   152 file /home/r08543048/miniconda3/share/psi4/basis/jun-cc-pvtz-jkfit.gbs 
    atoms 2          entry O          line   272 file /home/r08543048/miniconda3/share/psi4/basis/jun-cc-pvtz-jkfit.gbs 
    atoms 3          entry N          line   212 file /home/r08543048/miniconda3/share/psi4/basis/jun-cc-pvtz-jkfit.gbs 
    atoms 4-6, 11-18 entry H          line    70 file /home/r08543048/miniconda3/share/psi4/basis/jun-cc-pvtz-jkfit.gbs 

  ==> Pre-Iterations <==

   -------------------------------------------------------
    Irrep   Nso     Nmo     Nalpha   Nbeta   Ndocc  Nsocc
   -------------------------------------------------------
     A        427     427       0       0       0       0
   -------------------------------------------------------
    Total     427     427      16      16      16       0
   -------------------------------------------------------

  ==> Integral Setup <==

  ==> DiskDFJK: Density-Fitted J/K Matrices <==

    J tasked:                  Yes
    K tasked:                  Yes
    wK tasked:                  No
    OpenMP threads:              1
    Integrals threads:           1
    Memory [MiB]:            15735
    Algorithm:                Core
    Integral Cache:           LOAD
    Schwarz Cutoff:          1E-12
    Fitting Condition:       1E-10

   => Auxiliary Basis Set <=

  Basis Set: (JUN-CC-PVTZ AUX)
    Blend: JUN-CC-PVTZ-JKFIT
    Number of shells: 313
    Number of basis function: 995
    Number of Cartesian functions: 1197
    Spherical Harmonics?: true
    Max angular momentum: 4

  Minimum eigenvalue in the overlap matrix is 3.5219426802E-05.
  Using Symmetric Orthogonalization.

  SCF Guess: Superposition of Atomic Densities via on-the-fly atomic UHF.

  ==> Iterations <==

                           Total Energy        Delta E     RMS |[F,P]|

   @DF-RHF iter SAD:  -155.38025026237409   -1.55380e+02   0.00000e+00 
   @DF-RHF iter   1:  -155.99471300043081   -6.14463e-01   1.22294e-03 DIIS
   @DF-RHF iter   2:  -156.13467320375125   -1.39960e-01   5.38520e-04 DIIS
   @DF-RHF iter   3:  -156.16226447778945   -2.75913e-02   1.04254e-04 DIIS
   @DF-RHF iter   4:  -156.16409772192100   -1.83324e-03   3.87924e-05 DIIS
   @DF-RHF iter   5:  -156.16426559773444   -1.67876e-04   7.21702e-06 DIIS
   @DF-RHF iter   6:  -156.16427442473596   -8.82700e-06   1.29280e-06 DIIS
   @DF-RHF iter   7:  -156.16427476942096   -3.44685e-07   3.68667e-07 DIIS
   @DF-RHF iter   8:  -156.16427479717552   -2.77546e-08   1.11268e-07 DIIS
   @DF-RHF iter   9:  -156.16427480016236   -2.98684e-09   4.83313e-08 DIIS
   @DF-RHF iter  10:  -156.16427480076473   -6.02370e-10   1.50441e-08 DIIS
   @DF-RHF iter  11:  -156.16427480082586   -6.11351e-11   3.73784e-09 DIIS
  Energy and wave function converged.


  ==> Post-Iterations <==

    Orbital Energies [Eh]
    ---------------------

    Doubly Occupied:                                                      

       1A    -11.231687     2A    -11.224916     3A    -11.217828  
       4A    -11.214558     5A     -1.080685     6A     -0.988306  
       7A     -0.855650     8A     -0.755767     9A     -0.642003  
      10A     -0.606608    11A     -0.588028    12A     -0.533724  
      13A     -0.516858    14A     -0.488568    15A     -0.477078  
      16A     -0.356427  

    Virtual:                                                              

      17A      0.040219    18A      0.053309    19A      0.056193  
      20A      0.056768    21A      0.072493    22A      0.076788  
      23A      0.083659    24A      0.089586    25A      0.096678  
      26A      0.107807    27A      0.114988    28A      0.121218  
      29A      0.125892    30A      0.130004    31A      0.133847  
      32A      0.143356    33A      0.155758    34A      0.163735  
      35A      0.173658    36A      0.181041    37A      0.187397  
      38A      0.193216    39A      0.205989    40A      0.209940  
      41A      0.212521    42A      0.222445    43A      0.224562  
      44A      0.230689    45A      0.241414    46A      0.266360  
      47A      0.283045    48A      0.290370    49A      0.299432  
      50A      0.309843    51A      0.315415    52A      0.323956  
      53A      0.332353    54A      0.335968    55A      0.348161  
      56A      0.353119    57A      0.359004    58A      0.362565  
      59A      0.364406    60A      0.375773    61A      0.379787  
      62A      0.388043    63A      0.394593    64A      0.402485  
      65A      0.407705    66A      0.420359    67A      0.432967  
      68A      0.439711    69A      0.443997    70A      0.445502  
      71A      0.451819    72A      0.461537    73A      0.475722  
      74A      0.487415    75A      0.494720    76A      0.501789  
      77A      0.505288    78A      0.519213    79A      0.526258  
      80A      0.533436    81A      0.544223    82A      0.550498  
      83A      0.562949    84A      0.569852    85A      0.580616  
      86A      0.603613    87A      0.604828    88A      0.628085  
      89A      0.642120    90A      0.653040    91A      0.678554  
      92A      0.684049    93A      0.708052    94A      0.714783  
      95A      0.731023    96A      0.736456    97A      0.753459  
      98A      0.758782    99A      0.765932   100A      0.780214  
     101A      0.782853   102A      0.800348   103A      0.811191  
     104A      0.812704   105A      0.826251   106A      0.828960  
     107A      0.836248   108A      0.852181   109A      0.855436  
     110A      0.865034   111A      0.870107   112A      0.880656  
     113A      0.884600   114A      0.897902   115A      0.909604  
     116A      0.914950   117A      0.938992   118A      0.948880  
     119A      0.965685   120A      0.983566   121A      0.986485  
     122A      1.004812   123A      1.017257   124A      1.027005  
     125A      1.032820   126A      1.041272   127A      1.055760  
     128A      1.058159   129A      1.079274   130A      1.108147  
     131A      1.126669   132A      1.144864   133A      1.153988  
     134A      1.174746   135A      1.179881   136A      1.198433  
     137A      1.210340   138A      1.237388   139A      1.241392  
     140A      1.265074   141A      1.270609   142A      1.290530  
     143A      1.314397   144A      1.322367   145A      1.328289  
     146A      1.344990   147A      1.370244   148A      1.386346  
     149A      1.394481   150A      1.408109   151A      1.410151  
     152A      1.421088   153A      1.449536   154A      1.454877  
     155A      1.489100   156A      1.495746   157A      1.500767  
     158A      1.512431   159A      1.527436   160A      1.543683  
     161A      1.554385   162A      1.562993   163A      1.563895  
     164A      1.581381   165A      1.596978   166A      1.624955  
     167A      1.629267   168A      1.647725   169A      1.657513  
     170A      1.662401   171A      1.680190   172A      1.686489  
     173A      1.700698   174A      1.713357   175A      1.724590  
     176A      1.755435   177A      1.766224   178A      1.784161  
     179A      1.795508   180A      1.802027   181A      1.837490  
     182A      1.848599   183A      1.865718   184A      1.876547  
     185A      1.892300   186A      1.900503   187A      1.931946  
     188A      1.950740   189A      1.977430   190A      2.021127  
     191A      2.049032   192A      2.100176   193A      2.138322  
     194A      2.155357   195A      2.223872   196A      2.250004  
     197A      2.287280   198A      2.344931   199A      2.420510  
     200A      2.545368   201A      2.559835   202A      2.616108  
     203A      2.648085   204A      2.710137   205A      2.720346  
     206A      2.735869   207A      2.771664   208A      2.779857  
     209A      2.818525   210A      2.822241   211A      2.827963  
     212A      2.840312   213A      2.866135   214A      2.876190  
     215A      2.892257   216A      2.911598   217A      2.938802  
     218A      2.954456   219A      2.967340   220A      2.977435  
     221A      3.003877   222A      3.015444   223A      3.031807  
     224A      3.064905   225A      3.080727   226A      3.091309  
     227A      3.113882   228A      3.140472   229A      3.150947  
     230A      3.172154   231A      3.191415   232A      3.203548  
     233A      3.222175   234A      3.242423   235A      3.267652  
     236A      3.276211   237A      3.303258   238A      3.316677  
     239A      3.337005   240A      3.338960   241A      3.359142  
     242A      3.367728   243A      3.397415   244A      3.426074  
     245A      3.430533   246A      3.439364   247A      3.449601  
     248A      3.469490   249A      3.488643   250A      3.499723  
     251A      3.506095   252A      3.534536   253A      3.540032  
     254A      3.566541   255A      3.575706   256A      3.585099  
     257A      3.603950   258A      3.620225   259A      3.637659  
     260A      3.666796   261A      3.687333   262A      3.713282  
     263A      3.718698   264A      3.732708   265A      3.742090  
     266A      3.757902   267A      3.788077   268A      3.792040  
     269A      3.818285   270A      3.841742   271A      3.854618  
     272A      3.883520   273A      3.895764   274A      3.907932  
     275A      3.941498   276A      3.969290   277A      3.980546  
     278A      3.992770   279A      4.006548   280A      4.017702  
     281A      4.030847   282A      4.047391   283A      4.067136  
     284A      4.121377   285A      4.131994   286A      4.161081  
     287A      4.186422   288A      4.196592   289A      4.225418  
     290A      4.245027   291A      4.259425   292A      4.271745  
     293A      4.293669   294A      4.308102   295A      4.319458  
     296A      4.343255   297A      4.349297   298A      4.356218  
     299A      4.375657   300A      4.387231   301A      4.392862  
     302A      4.410085   303A      4.424878   304A      4.439791  
     305A      4.451922   306A      4.467155   307A      4.485159  
     308A      4.487303   309A      4.494642   310A      4.509940  
     311A      4.523462   312A      4.527861   313A      4.540226  
     314A      4.568887   315A      4.591740   316A      4.638475  
     317A      4.647174   318A      4.661263   319A      4.673361  
     320A      4.685646   321A      4.714909   322A      4.743557  
     323A      4.763929   324A      4.764787   325A      4.793796  
     326A      4.806224   327A      4.815529   328A      4.832145  
     329A      4.844459   330A      4.849210   331A      4.875726  
     332A      4.883117   333A      4.903524   334A      4.927753  
     335A      4.955856   336A      4.972340   337A      4.991993  
     338A      5.002469   339A      5.026586   340A      5.065468  
     341A      5.079804   342A      5.096171   343A      5.105716  
     344A      5.123009   345A      5.161859   346A      5.206440  
     347A      5.231257   348A      5.243198   349A      5.258667  
     350A      5.294915   351A      5.307892   352A      5.312860  
     353A      5.370826   354A      5.406791   355A      5.417783  
     356A      5.432024   357A      5.475582   358A      5.498038  
     359A      5.561809   360A      5.591730   361A      5.613538  
     362A      5.671484   363A      5.689898   364A      5.728663  
     365A      5.758797   366A      5.770493   367A      5.791897  
     368A      5.816362   369A      5.833284   370A      5.895243  
     371A      5.909702   372A      5.920282   373A      5.959048  
     374A      6.023770   375A      6.069060   376A      6.114987  
     377A      6.169828   378A      6.176934   379A      6.309530  
     380A      6.341612   381A      6.407252   382A      6.433145  
     383A      6.487730   384A      6.499267   385A      6.512079  
     386A      6.536136   387A      6.544987   388A      6.568310  
     389A      6.589773   390A      6.624391   391A      6.707403  
     392A      6.796643   393A      6.840209   394A      6.965762  
     395A      7.116601   396A      7.337002   397A      7.339243  
     398A      7.468253   399A      7.497846   400A      7.779471  
     401A      7.851697   402A      8.067809   403A      8.324252  
     404A      8.456594   405A      8.826689   406A      9.065769  
     407A      9.090657   408A      9.316275   409A      9.416045  
     410A      9.816427   411A      9.857857   412A      9.901170  
     413A     10.111395   414A     10.455059   415A     10.888583  
     416A     11.299333   417A     11.584378   418A     11.664679  
     419A     11.926680   420A     12.371940   421A     13.748623  
     422A     14.063277   423A     14.583723   424A     15.306711  
     425A     44.813637   426A     55.020686   427A     60.269437  

    Final Occupation by Irrep:
              A 
    DOCC [    16 ]

  @DF-RHF Final Energy:  -156.16427480082586

   => Energetics <=

    Nuclear Repulsion Energy =            117.3124275001571419
    One-Electron Energy =                -441.3960171685071145
    Two-Electron Energy =                 167.9193148675241218
    Total Energy =                       -156.1642748008258650

Computation Completed


Properties will be evaluated at   0.000000,   0.000000,   0.000000 [a0]

Properties computed using the SCF density matrix

  Nuclear Dipole Moment: [e a0]
     X:    90.2271      Y:     0.5892      Z:     1.3981

  Electronic Dipole Moment: [e a0]
     X:   -90.1755      Y:    -0.7576      Z:    -1.4069

  Dipole Moment: [e a0]
     X:     0.0515      Y:    -0.1684      Z:    -0.0088     Total:     0.1763

  Dipole Moment: [D]
     X:     0.1310      Y:    -0.4281      Z:    -0.0224     Total:     0.4482


*** tstop() called on r282 at Sat Sep 11 02:54:09 2021
Module time:
	user time   =      20.13 seconds =       0.34 minutes
	system time =       0.44 seconds =       0.01 minutes
	total time  =         20 seconds =       0.33 minutes
Total time:
	user time   =      74.79 seconds =       1.25 minutes
	system time =       1.78 seconds =       0.03 minutes
	total time  =         76 seconds =       1.27 minutes
  Constructing Basis Sets for SAPT...

   => Loading Basis Set <=

    Name: (JUN-CC-PVTZ AUX)
    Role: RIFIT
    Keyword: DF_BASIS_SAPT
    atoms 1, 7-10    entry C          line   132 file /home/r08543048/miniconda3/share/psi4/basis/jun-cc-pvtz-ri.gbs 
    atoms 2          entry O          line   244 file /home/r08543048/miniconda3/share/psi4/basis/jun-cc-pvtz-ri.gbs 
    atoms 3          entry N          line   188 file /home/r08543048/miniconda3/share/psi4/basis/jun-cc-pvtz-ri.gbs 
    atoms 4-6, 11-18 entry H          line    30 file /home/r08543048/miniconda3/share/psi4/basis/jun-cc-pvtz-ri.gbs 


  //>>>>>>>>>>>>>>>>>>>>>>>>>>>>>>>>>>>//
  //               SAPT0               //
  //<<<<<<<<<<<<<<<<<<<<<<<<<<<<<<<<<<<//


*** tstart() called on r282
*** at Sat Sep 11 02:54:09 2021

        SAPT0  
    Ed Hohenstein
     6 June 2009

      Orbital Information
  --------------------------
    NSO        =       427
    NMO        =       427
    NRI        =      1009
    NOCC A     =        12
    NOCC B     =        16
    FOCC A     =         0
    FOCC B     =         0
    NVIR A     =       415
    NVIR B     =       411

    Elst10,r            =    -0.009669954008 [Eh]
    Exch10              =     0.012738901134 [Eh]
    Exch10 (S^2)        =     0.012667731598 [Eh]

    Iter     Energy [mEh]          dE [mEh]         Residual      Time [s]
       1      -0.80422028       0.804220279       4.120059176             0
       2      -0.98300890       0.178788625       1.557869716             1
       3      -0.99473561       0.011726706       0.570213276             1
       4      -0.98972062      -0.005014991       0.250971828             2
       5      -0.98860363      -0.001116987       0.100409467             2
       6      -0.98915167       0.000548039       0.037667916             3
       7      -0.98934780       0.000196130       0.008188649             4
       8      -0.98927169      -0.000076107       0.001687088             4
       9      -0.98927442       0.000002724       0.000495054             5
      10      -0.98927676       0.000002346       0.000154913             5
      11      -0.98927643      -0.000000336       0.000060533             6
      12      -0.98927623      -0.000000195       0.000022364             6
      13      -0.98927634       0.000000110       0.000005938             7
      14      -0.98927633      -0.000000015       0.000001482             8
      15      -0.98927632      -0.000000002       0.000000412             8

    CHF Iterations converged


    Iter     Energy [mEh]          dE [mEh]         Residual      Time [s]
       1      -4.20980900       4.209808996      11.368016713             1
       2      -5.24572849       1.035919490       4.407443611             1
       3      -5.39374057       0.148012086       1.207982705             2
       4      -5.37096112      -0.022779452       0.456295014             2
       5      -5.35894927      -0.012011854       0.140907644             3
       6      -5.36131371       0.002364448       0.059044617             4
       7      -5.36216905       0.000855340       0.015197308             4
       8      -5.36188378      -0.000285268       0.003495476             5
       9      -5.36187251      -0.000011274       0.000935388             5
      10      -5.36188226       0.000009747       0.000281893             6
      11      -5.36188371       0.000001456       0.000068397             7
      12      -5.36188290      -0.000000816       0.000016768             7
      13      -5.36188287      -0.000000029       0.000004616             8
      14      -5.36188292       0.000000049       0.000001508             8
      15      -5.36188291      -0.000000003       0.000000531             9

    CHF Iterations converged

    Ind20,r (A<-B)      =    -0.000989276325 [Eh]
    Ind20,r (B<-A)      =    -0.005361882914 [Eh]
    Ind20,r             =    -0.006351159239 [Eh]
    Exch-Ind20,r (A<-B) =     0.000795024079 [Eh]
    Exch-Ind20,r (B<-A) =     0.003486336675 [Eh]
    Exch-Ind20,r        =     0.004281360754 [Eh]
    Disp20              =    -0.009473780318 [Eh]
    Disp20 (SS)         =    -0.004736890159 [Eh]
    Disp20 (OS)         =    -0.004736890159 [Eh]
    Exch-Disp20         =     0.001258811567 [Eh]
    Exch-Disp20 (SS)    =     0.000816695473 [Eh]
    Exch-Disp20 (OS)    =     0.000442116093 [Eh]

    SAPT Results 
  --------------------------------------------------------------------------------------------------------
    Electrostatics                 -9.66995401 [mEh]      -6.06798775 [kcal/mol]     -25.38846075 [kJ/mol]
      Elst10,r                     -9.66995401 [mEh]      -6.06798775 [kcal/mol]     -25.38846075 [kJ/mol]

    Exchange                       12.73890113 [mEh]       7.99378115 [kcal/mol]      33.44598032 [kJ/mol]
      Exch10                       12.73890113 [mEh]       7.99378115 [kcal/mol]      33.44598032 [kJ/mol]
      Exch10(S^2)                  12.66773160 [mEh]       7.94912159 [kcal/mol]      33.25912473 [kJ/mol]

    Induction                      -3.60819892 [mEh]      -2.26417900 [kcal/mol]      -9.47332495 [kJ/mol]
      Ind20,r                      -6.35115924 [mEh]      -3.98541259 [kcal/mol]     -16.67496629 [kJ/mol]
      Exch-Ind20,r                  4.28136075 [mEh]       2.68659443 [kcal/mol]      11.24071111 [kJ/mol]
      delta HF,r (2)               -1.53840043 [mEh]      -0.96536085 [kcal/mol]      -4.03906978 [kJ/mol]

    Dispersion                     -8.21496875 [mEh]      -5.15497072 [kcal/mol]     -21.56839749 [kJ/mol]
      Disp20                       -9.47378032 [mEh]      -5.94488690 [kcal/mol]     -24.87340680 [kJ/mol]
      Exch-Disp20                   1.25881157 [mEh]       0.78991618 [kcal/mol]       3.30500931 [kJ/mol]
      Disp20 (SS)                  -4.73689016 [mEh]      -2.97244345 [kcal/mol]     -12.43670340 [kJ/mol]
      Disp20 (OS)                  -4.73689016 [mEh]      -2.97244345 [kcal/mol]     -12.43670340 [kJ/mol]
      Exch-Disp20 (SS)              0.81669547 [mEh]       0.51248415 [kcal/mol]       2.14423367 [kJ/mol]
      Exch-Disp20 (OS)              0.44211609 [mEh]       0.27743204 [kcal/mol]       1.16077564 [kJ/mol]

  Total HF                         -0.53925179 [mEh]      -0.33838561 [kcal/mol]      -1.41580538 [kJ/mol]
  Total SAPT0                      -8.75422054 [mEh]      -5.49335633 [kcal/mol]     -22.98420287 [kJ/mol]

  Special recipe for scaled SAPT0 (see Manual):
    Electrostatics sSAPT0          -9.66995401 [mEh]      -6.06798775 [kcal/mol]     -25.38846075 [kJ/mol]
    Exchange sSAPT0                12.73890113 [mEh]       7.99378115 [kcal/mol]      33.44598032 [kJ/mol]
    Induction sSAPT0               -3.53563244 [mEh]      -2.21864285 [kcal/mol]      -9.28280170 [kJ/mol]
    Dispersion sSAPT0              -8.19363266 [mEh]      -5.14158212 [kcal/mol]     -21.51237958 [kJ/mol]
  Total sSAPT0                     -8.66031798 [mEh]      -5.43443158 [kcal/mol]     -22.73766171 [kJ/mol]
  --------------------------------------------------------------------------------------------------------

*** tstop() called on r282 at Sat Sep 11 02:55:20 2021
Module time:
	user time   =      57.81 seconds =       0.96 minutes
	system time =      11.67 seconds =       0.19 minutes
	total time  =         71 seconds =       1.18 minutes
Total time:
	user time   =     132.72 seconds =       2.21 minutes
	system time =      13.45 seconds =       0.22 minutes
	total time  =        147 seconds =       2.45 minutes

    Psi4 stopped on: Saturday, 11 September 2021 02:55AM
    Psi4 wall time for execution: 0:02:27.27

*** Psi4 exiting successfully. Buy a developer a beer!
