
    -----------------------------------------------------------------------
          Psi4: An Open-Source Ab Initio Electronic Structure Package
                               Psi4 1.3.2 release

                         Git: Rev {HEAD} ecbda83 


    R. M. Parrish, L. A. Burns, D. G. A. Smith, A. C. Simmonett,
    A. E. DePrince III, E. G. Hohenstein, U. Bozkaya, A. Yu. Sokolov,
    R. Di Remigio, R. M. Richard, J. F. Gonthier, A. M. James,
    H. R. McAlexander, A. Kumar, M. Saitow, X. Wang, B. P. Pritchard,
    P. Verma, H. F. Schaefer III, K. Patkowski, R. A. King, E. F. Valeev,
    F. A. Evangelista, J. M. Turney, T. D. Crawford, and C. D. Sherrill,
    J. Chem. Theory Comput. 13(7) pp 3185--3197 (2017).
    (doi: 10.1021/acs.jctc.7b00174)


                         Additional Contributions by
    P. Kraus, H. Kruse, M. H. Lechner, M. C. Schieber, R. A. Shaw,
    A. Alenaizan, R. Galvelis, Z. L. Glick, S. Lehtola, and J. P. Misiewicz

    -----------------------------------------------------------------------


    Psi4 started on: Saturday, 11 September 2021 02:35AM

    Process ID: 57527
    Host:       r282
    PSIDATADIR: /home/r08543048/miniconda3/share/psi4
    Memory:     500.0 MiB
    Threads:    1
    
  ==> Input File <==

--------------------------------------------------------------------------
# Any line starting with the # character is a comment line
#! Sample  computation

memory 22 gb

molecule Dimer {
0 1
 C   2.838629   -0.371134    0.319508
 C   1.349002   -0.408943    0.037012
 O   0.851067    0.097578   -0.962044
 N   0.597725   -1.053497    0.972380
 H  -0.383369   -1.203348    0.783256
 H   1.028401   -1.526162    1.745542
 C   3.519076    0.797182   -0.375599
 H   3.133861    1.744885   -0.002819
 H   4.594215    0.770663   -0.206090
 H   3.328813    0.761023   -1.445301
 H   3.005880   -0.341259    1.397764
 H   3.252975   -1.317828   -0.037172
  
  
  
  
  
    
    
 --
0 1
 C   -2.384344   -1.579023   -0.540369
 C   -2.839613   -0.437537   -0.009427
 C   -2.411251    0.930561   -0.436348
 C   -1.878420    1.754714    0.735790
 H   -2.742689   -2.540634   -0.197704
 H   -1.652677   -1.562616   -1.339143
 H   -3.573562   -0.489558    0.791503
 H   -1.645293    0.845912   -1.207610
 H   -3.271108    1.447185   -0.872291
 H   -2.624606    1.835966    1.527682
 H   -0.985016    1.292627    1.154748
 H   -1.616916    2.762077    0.413925
   
   
   




units angstrom

no_reorient
symmetry c1
}

set globals{
  basis jun-cc-pvtz
}

energy('sapt0')


--------------------------------------------------------------------------

  Memory set to  20.489 GiB by Python driver.

  //>>>>>>>>>>>>>>>>>>>>>>>>>>>>>>>>>>>//
  //              Dimer HF             //
  //<<<<<<<<<<<<<<<<<<<<<<<<<<<<<<<<<<<//


*** tstart() called on r282
*** at Sat Sep 11 02:35:33 2021

   => Loading Basis Set <=

    Name: JUN-CC-PVTZ
    Role: ORBITAL
    Keyword: BASIS
    atoms 1-2, 7, 13-16    entry C          line   217 file /home/r08543048/miniconda3/share/psi4/basis/jun-cc-pvtz.gbs 
    atoms 3                entry O          line   305 file /home/r08543048/miniconda3/share/psi4/basis/jun-cc-pvtz.gbs 
    atoms 4                entry N          line   261 file /home/r08543048/miniconda3/share/psi4/basis/jun-cc-pvtz.gbs 
    atoms 5-6, 8-12, 17-24 entry H          line    36 file /home/r08543048/miniconda3/share/psi4/basis/jun-cc-pvtz.gbs 


         ---------------------------------------------------------
                                   SCF
               by Justin Turney, Rob Parrish, Andy Simmonett
                          and Daniel G. A. Smith
                              RHF Reference
                        1 Threads,  20980 MiB Core
         ---------------------------------------------------------

  ==> Geometry <==

    Molecular point group: c1
    Full point group: C1

    Geometry (in Angstrom), charge = 0, multiplicity = 1:

       Center              X                  Y                   Z               Mass       
    ------------   -----------------  -----------------  -----------------  -----------------
         C            2.837487337899    -0.352055914583     0.338706309643    12.000000000000
         C            1.347860337899    -0.389864914583     0.056210309643    12.000000000000
         O            0.849925337899     0.116656085417    -0.942845690357    15.994914619570
         N            0.596583337899    -1.034418914583     0.991578309643    14.003074004430
         H           -0.384510662101    -1.184269914583     0.802454309643     1.007825032230
         H            1.027259337899    -1.507083914583     1.764740309643     1.007825032230
         C            3.517934337899     0.816260085417    -0.356400690357    12.000000000000
         H            3.132719337899     1.763963085417     0.016379309643     1.007825032230
         H            4.593073337899     0.789741085417    -0.186891690357     1.007825032230
         H            3.327671337899     0.780101085417    -1.426102690357     1.007825032230
         H            3.004738337899    -0.322180914583     1.416962309643     1.007825032230
         H            3.251833337899    -1.298749914583    -0.017973690357     1.007825032230
         C           -2.385485662101    -1.559944914583    -0.521170690357    12.000000000000
         C           -2.840754662101    -0.418458914583     0.009771309643    12.000000000000
         C           -2.412392662101     0.949639085417    -0.417149690357    12.000000000000
         C           -1.879561662101     1.773792085417     0.754988309643    12.000000000000
         H           -2.743830662101    -2.521555914583    -0.178505690357     1.007825032230
         H           -1.653818662101    -1.543537914583    -1.319944690357     1.007825032230
         H           -3.574703662101    -0.470479914583     0.810701309643     1.007825032230
         H           -1.646434662101     0.864990085417    -1.188411690357     1.007825032230
         H           -3.272249662101     1.466263085417    -0.853092690357     1.007825032230
         H           -2.625747662101     1.855044085417     1.546880309643     1.007825032230
         H           -0.986157662101     1.311705085417     1.173946309643     1.007825032230
         H           -1.618057662101     2.781155085417     0.433123309643     1.007825032230

  Running in c1 symmetry.

  Rotational constants: A =      0.08394  B =      0.02306  C =      0.02074 [cm^-1]
  Rotational constants: A =   2516.46357  B =    691.33291  C =    621.89820 [MHz]
  Nuclear repulsion =  449.733159262601930

  Charge       = 0
  Multiplicity = 1
  Electrons    = 72
  Nalpha       = 36
  Nbeta        = 36

  ==> Algorithm <==

  SCF Algorithm Type is DF.
  DIIS enabled.
  MOM disabled.
  Fractional occupation disabled.
  Guess Type is SAD.
  Energy threshold   = 1.00e-08
  Density threshold  = 1.00e-08
  Integral threshold = 0.00e+00

  ==> Primary Basis <==

  Basis Set: JUN-CC-PVTZ
    Blend: JUN-CC-PVTZ
    Number of shells: 207
    Number of basis function: 561
    Number of Cartesian functions: 630
    Spherical Harmonics?: true
    Max angular momentum: 3

   => Loading Basis Set <=

    Name: (JUN-CC-PVTZ AUX)
    Role: JKFIT
    Keyword: DF_BASIS_SCF
    atoms 1-2, 7, 13-16    entry C          line   152 file /home/r08543048/miniconda3/share/psi4/basis/jun-cc-pvtz-jkfit.gbs 
    atoms 3                entry O          line   272 file /home/r08543048/miniconda3/share/psi4/basis/jun-cc-pvtz-jkfit.gbs 
    atoms 4                entry N          line   212 file /home/r08543048/miniconda3/share/psi4/basis/jun-cc-pvtz-jkfit.gbs 
    atoms 5-6, 8-12, 17-24 entry H          line    70 file /home/r08543048/miniconda3/share/psi4/basis/jun-cc-pvtz-jkfit.gbs 

  ==> Pre-Iterations <==

   -------------------------------------------------------
    Irrep   Nso     Nmo     Nalpha   Nbeta   Ndocc  Nsocc
   -------------------------------------------------------
     A        561     561       0       0       0       0
   -------------------------------------------------------
    Total     561     561      36      36      36       0
   -------------------------------------------------------

  ==> Integral Setup <==

  ==> DiskDFJK: Density-Fitted J/K Matrices <==

    J tasked:                  Yes
    K tasked:                  Yes
    wK tasked:                  No
    OpenMP threads:              1
    Integrals threads:           1
    Memory [MiB]:            15735
    Algorithm:                Core
    Integral Cache:           SAVE
    Schwarz Cutoff:          1E-12
    Fitting Condition:       1E-10

   => Auxiliary Basis Set <=

  Basis Set: (JUN-CC-PVTZ AUX)
    Blend: JUN-CC-PVTZ-JKFIT
    Number of shells: 411
    Number of basis function: 1305
    Number of Cartesian functions: 1569
    Spherical Harmonics?: true
    Max angular momentum: 4

  Minimum eigenvalue in the overlap matrix is 3.4039204039E-05.
  Using Symmetric Orthogonalization.

  SCF Guess: Superposition of Atomic Densities via on-the-fly atomic UHF.

  ==> Iterations <==

                           Total Energy        Delta E     RMS |[F,P]|

   @DF-RHF iter SAD:  -401.83414531137009   -4.01834e+02   0.00000e+00 
   @DF-RHF iter   1:  -402.89754793760949   -1.06340e+00   1.47667e-03 DIIS
   @DF-RHF iter   2:  -403.19284064272085   -2.95293e-01   7.71730e-04 DIIS
   @DF-RHF iter   3:  -403.26827665295525   -7.54360e-02   1.66662e-04 DIIS
   @DF-RHF iter   4:  -403.27326563837840   -4.98899e-03   7.50325e-05 DIIS
   @DF-RHF iter   5:  -403.27425544239861   -9.89804e-04   1.13030e-05 DIIS
   @DF-RHF iter   6:  -403.27430160275088   -4.61604e-05   5.01303e-06 DIIS
   @DF-RHF iter   7:  -403.27430832068774   -6.71794e-06   1.79037e-06 DIIS
   @DF-RHF iter   8:  -403.27430978153279   -1.46085e-06   7.62387e-07 DIIS
   @DF-RHF iter   9:  -403.27431005745098   -2.75918e-07   2.13490e-07 DIIS
   @DF-RHF iter  10:  -403.27431008109176   -2.36408e-08   6.92769e-08 DIIS
   @DF-RHF iter  11:  -403.27431008260464   -1.51289e-09   2.07077e-08 DIIS
   @DF-RHF iter  12:  -403.27431008274141   -1.36765e-10   6.60048e-09 DIIS
  Energy and wave function converged.


  ==> Post-Iterations <==

    Orbital Energies [Eh]
    ---------------------

    Doubly Occupied:                                                      

       1A    -20.514315     2A    -15.577183     3A    -11.347892  
       4A    -11.239893     5A    -11.231398     6A    -11.214859  
       7A    -11.214850     8A    -11.211776     9A    -11.204555  
      10A     -1.373722    11A     -1.206514    12A     -1.075528  
      13A     -1.050898    14A     -0.982994    15A     -0.891738  
      16A     -0.848062    17A     -0.779369    18A     -0.751388  
      19A     -0.716265    20A     -0.671504    21A     -0.638187  
      22A     -0.632454    23A     -0.599931    24A     -0.598115  
      25A     -0.580502    26A     -0.553976    27A     -0.528375  
      28A     -0.523747    29A     -0.514865    30A     -0.507672  
      31A     -0.492809    32A     -0.477062    33A     -0.470722  
      34A     -0.420554    35A     -0.410266    36A     -0.357043  

    Virtual:                                                              

      37A      0.041970    38A      0.052873    39A      0.054859  
      40A      0.060122    41A      0.069100    42A      0.070185  
      43A      0.079073    44A      0.084392    45A      0.094703  
      46A      0.097881    47A      0.101368    48A      0.108344  
      49A      0.112939    50A      0.113175    51A      0.126790  
      52A      0.131033    53A      0.138869    54A      0.140576  
      55A      0.147368    56A      0.156258    57A      0.163135  
      58A      0.165033    59A      0.177229    60A      0.181424  
      61A      0.183258    62A      0.193398    63A      0.199078  
      64A      0.203335    65A      0.208375    66A      0.212443  
      67A      0.217583    68A      0.226774    69A      0.233014  
      70A      0.246869    71A      0.257206    72A      0.270513  
      73A      0.278801    74A      0.285443    75A      0.293126  
      76A      0.300105    77A      0.303929    78A      0.307116  
      79A      0.311960    80A      0.315492    81A      0.316106  
      82A      0.322866    83A      0.329269    84A      0.330256  
      85A      0.338052    86A      0.344198    87A      0.345976  
      88A      0.348193    89A      0.352590    90A      0.362524  
      91A      0.365655    92A      0.369767    93A      0.370678  
      94A      0.383229    95A      0.388947    96A      0.394056  
      97A      0.398971    98A      0.405385    99A      0.420932  
     100A      0.428244   101A      0.430723   102A      0.434060  
     103A      0.439908   104A      0.449147   105A      0.455028  
     106A      0.458835   107A      0.471732   108A      0.475652  
     109A      0.478503   110A      0.494933   111A      0.498416  
     112A      0.502830   113A      0.511147   114A      0.513026  
     115A      0.525963   116A      0.531473   117A      0.540001  
     118A      0.543891   119A      0.547865   120A      0.552311  
     121A      0.559566   122A      0.571159   123A      0.574692  
     124A      0.585464   125A      0.591719   126A      0.598141  
     127A      0.613211   128A      0.615842   129A      0.628457  
     130A      0.639548   131A      0.644481   132A      0.649184  
     133A      0.661078   134A      0.666771   135A      0.678376  
     136A      0.686182   137A      0.713397   138A      0.717508  
     139A      0.729524   140A      0.733243   141A      0.741366  
     142A      0.747416   143A      0.757608   144A      0.762860  
     145A      0.776575   146A      0.781606   147A      0.785959  
     148A      0.790174   149A      0.798983   150A      0.803474  
     151A      0.805828   152A      0.809533   153A      0.825498  
     154A      0.836473   155A      0.838221   156A      0.843372  
     157A      0.861726   158A      0.864827   159A      0.866782  
     160A      0.882169   161A      0.883970   162A      0.889399  
     163A      0.894065   164A      0.908360   165A      0.919488  
     166A      0.926581   167A      0.932086   168A      0.935643  
     169A      0.952509   170A      0.960261   171A      0.965810  
     172A      0.969671   173A      0.988828   174A      1.003919  
     175A      1.009821   176A      1.023298   177A      1.034454  
     178A      1.037306   179A      1.049525   180A      1.058256  
     181A      1.063238   182A      1.078020   183A      1.088598  
     184A      1.098041   185A      1.107579   186A      1.112871  
     187A      1.123787   188A      1.145215   189A      1.151009  
     190A      1.159705   191A      1.173330   192A      1.180252  
     193A      1.199504   194A      1.225532   195A      1.231135  
     196A      1.243531   197A      1.259335   198A      1.266222  
     199A      1.280048   200A      1.287721   201A      1.302086  
     202A      1.316454   203A      1.331755   204A      1.337238  
     205A      1.353345   206A      1.356881   207A      1.361526  
     208A      1.371113   209A      1.375976   210A      1.386254  
     211A      1.395995   212A      1.415113   213A      1.417411  
     214A      1.423238   215A      1.430475   216A      1.443250  
     217A      1.448153   218A      1.452523   219A      1.460018  
     220A      1.473026   221A      1.476976   222A      1.489951  
     223A      1.502523   224A      1.510548   225A      1.514188  
     226A      1.527972   227A      1.539088   228A      1.549817  
     229A      1.553146   230A      1.561711   231A      1.577942  
     232A      1.590911   233A      1.596490   234A      1.609239  
     235A      1.611806   236A      1.621008   237A      1.631872  
     238A      1.643649   239A      1.650656   240A      1.667043  
     241A      1.670218   242A      1.684487   243A      1.691408  
     244A      1.713734   245A      1.717832   246A      1.734725  
     247A      1.738483   248A      1.751254   249A      1.763743  
     250A      1.773481   251A      1.788258   252A      1.797281  
     253A      1.815137   254A      1.826749   255A      1.838034  
     256A      1.846463   257A      1.875042   258A      1.884810  
     259A      1.904719   260A      1.919423   261A      1.929416  
     262A      1.944545   263A      1.955136   264A      1.965384  
     265A      1.985882   266A      1.993590   267A      2.012852  
     268A      2.045046   269A      2.065549   270A      2.086999  
     271A      2.143374   272A      2.152452   273A      2.201670  
     274A      2.259347   275A      2.283817   276A      2.316246  
     277A      2.408969   278A      2.471008   279A      2.506664  
     280A      2.605176   281A      2.697181   282A      2.727310  
     283A      2.750024   284A      2.757211   285A      2.777422  
     286A      2.791832   287A      2.829898   288A      2.838067  
     289A      2.845600   290A      2.851805   291A      2.858881  
     292A      2.881930   293A      2.897541   294A      2.901833  
     295A      2.908803   296A      2.931419   297A      2.945853  
     298A      2.956870   299A      2.971613   300A      2.975301  
     301A      2.989672   302A      2.992040   303A      3.009519  
     304A      3.039491   305A      3.046223   306A      3.065049  
     307A      3.081715   308A      3.092074   309A      3.104440  
     310A      3.115906   311A      3.129033   312A      3.134765  
     313A      3.149913   314A      3.161019   315A      3.163325  
     316A      3.173856   317A      3.190816   318A      3.195652  
     319A      3.214677   320A      3.233240   321A      3.239220  
     322A      3.246739   323A      3.268522   324A      3.269258  
     325A      3.283747   326A      3.292519   327A      3.300024  
     328A      3.331960   329A      3.338637   330A      3.347883  
     331A      3.351575   332A      3.362918   333A      3.371802  
     334A      3.374164   335A      3.391052   336A      3.402347  
     337A      3.404500   338A      3.426006   339A      3.427926  
     340A      3.438332   341A      3.453191   342A      3.458850  
     343A      3.467748   344A      3.473414   345A      3.478508  
     346A      3.495725   347A      3.499002   348A      3.504204  
     349A      3.519554   350A      3.522856   351A      3.528147  
     352A      3.534989   353A      3.547769   354A      3.556642  
     355A      3.560656   356A      3.571938   357A      3.578483  
     358A      3.584427   359A      3.594624   360A      3.606131  
     361A      3.617371   362A      3.635712   363A      3.639709  
     364A      3.655923   365A      3.664559   366A      3.678200  
     367A      3.693701   368A      3.706923   369A      3.718146  
     370A      3.721236   371A      3.736345   372A      3.745616  
     373A      3.758235   374A      3.777975   375A      3.786624  
     376A      3.806707   377A      3.816433   378A      3.826191  
     379A      3.842802   380A      3.857456   381A      3.860818  
     382A      3.864257   383A      3.870325   384A      3.893770  
     385A      3.901139   386A      3.908412   387A      3.919776  
     388A      3.929717   389A      3.953729   390A      3.972800  
     391A      3.995078   392A      3.999901   393A      4.012461  
     394A      4.026728   395A      4.032965   396A      4.059900  
     397A      4.073405   398A      4.086294   399A      4.089032  
     400A      4.098335   401A      4.145277   402A      4.149886  
     403A      4.172440   404A      4.191300   405A      4.203601  
     406A      4.212715   407A      4.217288   408A      4.240574  
     409A      4.250897   410A      4.260236   411A      4.273475  
     412A      4.279648   413A      4.283424   414A      4.288656  
     415A      4.298259   416A      4.324841   417A      4.333776  
     418A      4.339257   419A      4.345335   420A      4.356235  
     421A      4.370539   422A      4.373365   423A      4.381907  
     424A      4.397583   425A      4.412050   426A      4.417071  
     427A      4.422077   428A      4.437566   429A      4.447988  
     430A      4.453613   431A      4.470400   432A      4.474740  
     433A      4.478528   434A      4.483469   435A      4.485114  
     436A      4.505447   437A      4.506881   438A      4.520842  
     439A      4.529982   440A      4.543919   441A      4.566013  
     442A      4.576385   443A      4.592985   444A      4.610437  
     445A      4.617296   446A      4.636991   447A      4.655244  
     448A      4.669324   449A      4.677618   450A      4.692159  
     451A      4.698599   452A      4.712199   453A      4.721861  
     454A      4.746829   455A      4.763298   456A      4.775226  
     457A      4.792570   458A      4.815324   459A      4.821509  
     460A      4.837535   461A      4.861585   462A      4.867463  
     463A      4.895257   464A      4.911871   465A      4.921583  
     466A      4.953368   467A      4.961599   468A      4.982947  
     469A      4.997000   470A      5.007022   471A      5.043460  
     472A      5.086210   473A      5.116959   474A      5.156013  
     475A      5.170513   476A      5.210157   477A      5.220859  
     478A      5.237621   479A      5.239526   480A      5.250472  
     481A      5.260756   482A      5.274645   483A      5.279431  
     484A      5.294388   485A      5.306658   486A      5.315649  
     487A      5.318824   488A      5.326298   489A      5.339252  
     490A      5.376870   491A      5.385921   492A      5.413593  
     493A      5.419047   494A      5.423818   495A      5.442939  
     496A      5.454370   497A      5.472555   498A      5.521865  
     499A      5.527798   500A      5.594146   501A      5.605101  
     502A      5.606317   503A      5.647671   504A      5.677329  
     505A      5.683926   506A      5.711209   507A      5.738668  
     508A      5.741746   509A      5.753207   510A      5.766752  
     511A      5.783659   512A      5.790821   513A      5.800044  
     514A      5.814837   515A      5.850618   516A      5.858169  
     517A      5.881150   518A      5.896321   519A      5.925880  
     520A      5.935646   521A      5.946611   522A      5.971927  
     523A      6.017590   524A      6.036401   525A      6.043523  
     526A      6.088589   527A      6.107315   528A      6.190938  
     529A      6.217349   530A      6.241669   531A      6.348631  
     532A      6.418135   533A      6.493419   534A      6.500071  
     535A      6.505260   536A      6.510155   537A      6.532934  
     538A      6.552647   539A      6.591355   540A      6.610058  
     541A      6.712158   542A      6.716702   543A      6.814505  
     544A      6.826910   545A      7.228653   546A      7.335386  
     547A      7.377834   548A      7.475165   549A      7.491624  
     550A      7.529064   551A      7.790562   552A      7.831827  
     553A     12.324600   554A     12.327142   555A     13.972294  
     556A     14.082959   557A     14.228520   558A     14.609198  
     559A     14.650733   560A     15.310818   561A     15.776383  

    Final Occupation by Irrep:
              A 
    DOCC [    36 ]

  @DF-RHF Final Energy:  -403.27431008274141

   => Energetics <=

    Nuclear Repulsion Energy =            449.7331592626019301
    One-Electron Energy =               -1439.1929713415788683
    Two-Electron Energy =                 586.1855019962355300
    Total Energy =                       -403.2743100827414082

Computation Completed


Properties will be evaluated at   0.000000,   0.000000,   0.000000 [a0]

Properties computed using the SCF density matrix

  Nuclear Dipole Moment: [e a0]
     X:    -0.1553      Y:     2.5958      Z:     2.6121

  Electronic Dipole Moment: [e a0]
     X:     0.6227      Y:    -3.1883      Z:    -1.4427

  Dipole Moment: [e a0]
     X:     0.4673      Y:    -0.5925      Z:     1.1694     Total:     1.3918

  Dipole Moment: [D]
     X:     1.1878      Y:    -1.5060      Z:     2.9724     Total:     3.5375


*** tstop() called on r282 at Sat Sep 11 02:37:19 2021
Module time:
	user time   =     104.20 seconds =       1.74 minutes
	system time =       1.95 seconds =       0.03 minutes
	total time  =        106 seconds =       1.77 minutes
Total time:
	user time   =     104.20 seconds =       1.74 minutes
	system time =       1.95 seconds =       0.03 minutes
	total time  =        106 seconds =       1.77 minutes

  //>>>>>>>>>>>>>>>>>>>>>>>>>>>>>>>>>>>//
  //            Monomer A HF           //
  //<<<<<<<<<<<<<<<<<<<<<<<<<<<<<<<<<<<//


*** tstart() called on r282
*** at Sat Sep 11 02:37:19 2021

   => Loading Basis Set <=

    Name: JUN-CC-PVTZ
    Role: ORBITAL
    Keyword: BASIS
    atoms 1-2, 7, 13-16    entry C          line   217 file /home/r08543048/miniconda3/share/psi4/basis/jun-cc-pvtz.gbs 
    atoms 3                entry O          line   305 file /home/r08543048/miniconda3/share/psi4/basis/jun-cc-pvtz.gbs 
    atoms 4                entry N          line   261 file /home/r08543048/miniconda3/share/psi4/basis/jun-cc-pvtz.gbs 
    atoms 5-6, 8-12, 17-24 entry H          line    36 file /home/r08543048/miniconda3/share/psi4/basis/jun-cc-pvtz.gbs 


         ---------------------------------------------------------
                                   SCF
               by Justin Turney, Rob Parrish, Andy Simmonett
                          and Daniel G. A. Smith
                              RHF Reference
                        1 Threads,  20980 MiB Core
         ---------------------------------------------------------

  ==> Geometry <==

    Molecular point group: c1
    Full point group: C1

    Geometry (in Angstrom), charge = 0, multiplicity = 1:

       Center              X                  Y                   Z               Mass       
    ------------   -----------------  -----------------  -----------------  -----------------
         C            2.837487337899    -0.352055914583     0.338706309643    12.000000000000
         C            1.347860337899    -0.389864914583     0.056210309643    12.000000000000
         O            0.849925337899     0.116656085417    -0.942845690357    15.994914619570
         N            0.596583337899    -1.034418914583     0.991578309643    14.003074004430
         H           -0.384510662101    -1.184269914583     0.802454309643     1.007825032230
         H            1.027259337899    -1.507083914583     1.764740309643     1.007825032230
         C            3.517934337899     0.816260085417    -0.356400690357    12.000000000000
         H            3.132719337899     1.763963085417     0.016379309643     1.007825032230
         H            4.593073337899     0.789741085417    -0.186891690357     1.007825032230
         H            3.327671337899     0.780101085417    -1.426102690357     1.007825032230
         H            3.004738337899    -0.322180914583     1.416962309643     1.007825032230
         H            3.251833337899    -1.298749914583    -0.017973690357     1.007825032230
      Gh(C)          -2.385485662101    -1.559944914583    -0.521170690357    12.000000000000
      Gh(C)          -2.840754662101    -0.418458914583     0.009771309643    12.000000000000
      Gh(C)          -2.412392662101     0.949639085417    -0.417149690357    12.000000000000
      Gh(C)          -1.879561662101     1.773792085417     0.754988309643    12.000000000000
      Gh(H)          -2.743830662101    -2.521555914583    -0.178505690357     1.007825032230
      Gh(H)          -1.653818662101    -1.543537914583    -1.319944690357     1.007825032230
      Gh(H)          -3.574703662101    -0.470479914583     0.810701309643     1.007825032230
      Gh(H)          -1.646434662101     0.864990085417    -1.188411690357     1.007825032230
      Gh(H)          -3.272249662101     1.466263085417    -0.853092690357     1.007825032230
      Gh(H)          -2.625747662101     1.855044085417     1.546880309643     1.007825032230
      Gh(H)          -0.986157662101     1.311705085417     1.173946309643     1.007825032230
      Gh(H)          -1.618057662101     2.781155085417     0.433123309643     1.007825032230

  Running in c1 symmetry.

  Rotational constants: A =      0.08394  B =      0.02306  C =      0.02074 [cm^-1]
  Rotational constants: A =   2516.46357  B =    691.33291  C =    621.89820 [MHz]
  Nuclear repulsion =  179.102791435441787

  Charge       = 0
  Multiplicity = 1
  Electrons    = 40
  Nalpha       = 20
  Nbeta        = 20

  ==> Algorithm <==

  SCF Algorithm Type is DF.
  DIIS enabled.
  MOM disabled.
  Fractional occupation disabled.
  Guess Type is SAD.
  Energy threshold   = 1.00e-08
  Density threshold  = 1.00e-08
  Integral threshold = 0.00e+00

  ==> Primary Basis <==

  Basis Set: JUN-CC-PVTZ
    Blend: JUN-CC-PVTZ
    Number of shells: 207
    Number of basis function: 561
    Number of Cartesian functions: 630
    Spherical Harmonics?: true
    Max angular momentum: 3

   => Loading Basis Set <=

    Name: (JUN-CC-PVTZ AUX)
    Role: JKFIT
    Keyword: DF_BASIS_SCF
    atoms 1-2, 7, 13-16    entry C          line   152 file /home/r08543048/miniconda3/share/psi4/basis/jun-cc-pvtz-jkfit.gbs 
    atoms 3                entry O          line   272 file /home/r08543048/miniconda3/share/psi4/basis/jun-cc-pvtz-jkfit.gbs 
    atoms 4                entry N          line   212 file /home/r08543048/miniconda3/share/psi4/basis/jun-cc-pvtz-jkfit.gbs 
    atoms 5-6, 8-12, 17-24 entry H          line    70 file /home/r08543048/miniconda3/share/psi4/basis/jun-cc-pvtz-jkfit.gbs 

  ==> Pre-Iterations <==

   -------------------------------------------------------
    Irrep   Nso     Nmo     Nalpha   Nbeta   Ndocc  Nsocc
   -------------------------------------------------------
     A        561     561       0       0       0       0
   -------------------------------------------------------
    Total     561     561      20      20      20       0
   -------------------------------------------------------

  ==> Integral Setup <==

  ==> DiskDFJK: Density-Fitted J/K Matrices <==

    J tasked:                  Yes
    K tasked:                  Yes
    wK tasked:                  No
    OpenMP threads:              1
    Integrals threads:           1
    Memory [MiB]:            15735
    Algorithm:                Core
    Integral Cache:           LOAD
    Schwarz Cutoff:          1E-12
    Fitting Condition:       1E-10

   => Auxiliary Basis Set <=

  Basis Set: (JUN-CC-PVTZ AUX)
    Blend: JUN-CC-PVTZ-JKFIT
    Number of shells: 411
    Number of basis function: 1305
    Number of Cartesian functions: 1569
    Spherical Harmonics?: true
    Max angular momentum: 4

  Minimum eigenvalue in the overlap matrix is 3.4039204039E-05.
  Using Symmetric Orthogonalization.

  SCF Guess: Superposition of Atomic Densities via on-the-fly atomic UHF.

  ==> Iterations <==

                           Total Energy        Delta E     RMS |[F,P]|

   @DF-RHF iter SAD:  -246.29860812846874   -2.46299e+02   0.00000e+00 
   @DF-RHF iter   1:  -246.89430444146726   -5.95696e-01   1.16679e-03 DIIS
   @DF-RHF iter   2:  -247.05591064293878   -1.61606e-01   6.71391e-04 DIIS
   @DF-RHF iter   3:  -247.10622800978280   -5.03174e-02   1.30711e-04 DIIS
   @DF-RHF iter   4:  -247.10922770341134   -2.99969e-03   5.74933e-05 DIIS
   @DF-RHF iter   5:  -247.10986817142438   -6.40468e-04   9.15857e-06 DIIS
   @DF-RHF iter   6:  -247.10990581206295   -3.76406e-05   3.73798e-06 DIIS
   @DF-RHF iter   7:  -247.10991071626106   -4.90420e-06   1.63182e-06 DIIS
   @DF-RHF iter   8:  -247.10991183468707   -1.11843e-06   6.27055e-07 DIIS
   @DF-RHF iter   9:  -247.10991202790009   -1.93213e-07   1.38892e-07 DIIS
   @DF-RHF iter  10:  -247.10991203786455   -9.96445e-09   3.31662e-08 DIIS
   @DF-RHF iter  11:  -247.10991203826151   -3.96966e-10   9.59055e-09 DIIS
  Energy and wave function converged.


  ==> Post-Iterations <==

    Orbital Energies [Eh]
    ---------------------

    Doubly Occupied:                                                      

       1A    -20.516190     2A    -15.586067     3A    -11.350053  
       4A    -11.241806     5A    -11.215497     6A     -1.374606  
       7A     -1.211925     8A     -1.052445     9A     -0.893581  
      10A     -0.783387    11A     -0.721261    12A     -0.672399  
      13A     -0.634572    14A     -0.598951    15A     -0.556307  
      16A     -0.525100    17A     -0.515762    18A     -0.494422  
      19A     -0.421966    20A     -0.414286  

    Virtual:                                                              

      21A      0.031219    22A      0.044003    23A      0.046710  
      24A      0.055932    25A      0.064184    26A      0.066264  
      27A      0.076962    28A      0.081586    29A      0.091377  
      30A      0.097378    31A      0.101122    32A      0.101976  
      33A      0.110855    34A      0.113321    35A      0.118456  
      36A      0.125961    37A      0.134711    38A      0.138116  
      39A      0.142412    40A      0.146682    41A      0.150525  
      42A      0.156802    43A      0.164742    44A      0.170728  
      45A      0.174377    46A      0.181054    47A      0.187587  
      48A      0.193542    49A      0.200112    50A      0.206179  
      51A      0.211813    52A      0.215132    53A      0.228809  
      54A      0.250832    55A      0.264042    56A      0.265609  
      57A      0.275937    58A      0.277370    59A      0.286232  
      60A      0.289244    61A      0.293056    62A      0.306938  
      63A      0.312041    64A      0.316656    65A      0.317883  
      66A      0.323721    67A      0.329630    68A      0.332106  
      69A      0.341805    70A      0.342975    71A      0.345556  
      72A      0.353228    73A      0.354260    74A      0.360259  
      75A      0.365554    76A      0.372293    77A      0.375858  
      78A      0.392747    79A      0.395888    80A      0.400307  
      81A      0.410093    82A      0.414626    83A      0.418827  
      84A      0.420895    85A      0.429862    86A      0.433101  
      87A      0.442464    88A      0.457483    89A      0.460187  
      90A      0.470544    91A      0.474032    92A      0.481139  
      93A      0.493312    94A      0.499966    95A      0.504755  
      96A      0.509519    97A      0.519116    98A      0.520432  
      99A      0.531924   100A      0.535509   101A      0.551899  
     102A      0.552039   103A      0.559367   104A      0.566734  
     105A      0.571659   106A      0.581528   107A      0.592772  
     108A      0.597646   109A      0.603389   110A      0.613684  
     111A      0.618724   112A      0.623429   113A      0.632218  
     114A      0.641071   115A      0.642365   116A      0.659440  
     117A      0.664002   118A      0.665219   119A      0.676769  
     120A      0.682733   121A      0.686731   122A      0.690751  
     123A      0.696559   124A      0.704055   125A      0.716956  
     126A      0.727236   127A      0.735211   128A      0.741514  
     129A      0.753325   130A      0.758426   131A      0.770352  
     132A      0.781384   133A      0.784331   134A      0.794016  
     135A      0.797987   136A      0.812205   137A      0.819000  
     138A      0.826438   139A      0.838276   140A      0.843681  
     141A      0.848596   142A      0.868101   143A      0.888267  
     144A      0.895500   145A      0.904150   146A      0.926733  
     147A      0.935057   148A      0.940408   149A      0.969528  
     150A      0.972664   151A      0.993040   152A      1.014648  
     153A      1.035779   154A      1.043095   155A      1.049251  
     156A      1.064599   157A      1.083874   158A      1.099399  
     159A      1.112668   160A      1.120879   161A      1.127503  
     162A      1.142917   163A      1.148163   164A      1.155767  
     165A      1.168880   166A      1.170396   167A      1.182666  
     168A      1.186629   169A      1.196013   170A      1.209159  
     171A      1.220589   172A      1.234637   173A      1.237012  
     174A      1.254432   175A      1.278060   176A      1.284091  
     177A      1.289410   178A      1.292626   179A      1.307606  
     180A      1.314315   181A      1.319714   182A      1.328829  
     183A      1.330482   184A      1.334192   185A      1.351653  
     186A      1.352965   187A      1.356045   188A      1.371107  
     189A      1.374579   190A      1.385857   191A      1.391454  
     192A      1.408239   193A      1.411623   194A      1.415705  
     195A      1.421927   196A      1.430321   197A      1.445466  
     198A      1.450222   199A      1.461664   200A      1.462363  
     201A      1.471027   202A      1.480711   203A      1.485948  
     204A      1.492089   205A      1.497630   206A      1.513607  
     207A      1.517688   208A      1.524291   209A      1.527133  
     210A      1.548568   211A      1.553927   212A      1.565163  
     213A      1.581381   214A      1.588644   215A      1.593237  
     216A      1.596702   217A      1.613054   218A      1.615908  
     219A      1.624033   220A      1.637326   221A      1.652261  
     222A      1.655560   223A      1.663026   224A      1.670352  
     225A      1.681931   226A      1.697461   227A      1.709169  
     228A      1.714656   229A      1.727521   230A      1.747874  
     231A      1.759161   232A      1.760769   233A      1.793620  
     234A      1.800533   235A      1.807431   236A      1.832514  
     237A      1.845803   238A      1.860715   239A      1.869245  
     240A      1.895055   241A      1.906698   242A      1.916907  
     243A      1.939337   244A      1.955183   245A      1.961215  
     246A      1.969237   247A      1.993472   248A      2.020368  
     249A      2.027466   250A      2.055511   251A      2.070968  
     252A      2.101746   253A      2.117348   254A      2.137741  
     255A      2.161563   256A      2.186024   257A      2.212781  
     258A      2.249317   259A      2.255482   260A      2.267148  
     261A      2.307847   262A      2.336509   263A      2.374542  
     264A      2.408339   265A      2.431978   266A      2.436726  
     267A      2.468681   268A      2.480310   269A      2.520663  
     270A      2.535310   271A      2.560964   272A      2.586775  
     273A      2.616642   274A      2.648760   275A      2.717384  
     276A      2.741604   277A      2.767559   278A      2.801794  
     279A      2.856011   280A      2.862647   281A      2.899243  
     282A      2.912375   283A      2.935040   284A      2.946375  
     285A      2.985596   286A      2.997577   287A      3.016383  
     288A      3.058501   289A      3.118144   290A      3.126121  
     291A      3.144398   292A      3.164140   293A      3.194961  
     294A      3.236922   295A      3.258798   296A      3.284572  
     297A      3.332338   298A      3.343727   299A      3.359035  
     300A      3.390431   301A      3.398124   302A      3.421275  
     303A      3.433031   304A      3.445483   305A      3.464046  
     306A      3.467683   307A      3.472068   308A      3.483539  
     309A      3.493422   310A      3.511413   311A      3.519211  
     312A      3.537141   313A      3.541885   314A      3.553214  
     315A      3.567139   316A      3.575318   317A      3.584418  
     318A      3.598760   319A      3.607480   320A      3.608314  
     321A      3.623387   322A      3.640185   323A      3.655325  
     324A      3.659113   325A      3.671092   326A      3.688866  
     327A      3.690862   328A      3.714680   329A      3.721974  
     330A      3.723113   331A      3.735737   332A      3.752310  
     333A      3.773151   334A      3.780020   335A      3.804893  
     336A      3.813608   337A      3.819300   338A      3.827493  
     339A      3.843989   340A      3.849563   341A      3.856681  
     342A      3.861437   343A      3.868015   344A      3.878477  
     345A      3.893705   346A      3.917356   347A      3.921969  
     348A      3.942803   349A      3.950698   350A      3.970216  
     351A      3.977452   352A      4.001226   353A      4.018367  
     354A      4.024857   355A      4.032505   356A      4.044971  
     357A      4.056878   358A      4.086778   359A      4.100929  
     360A      4.107385   361A      4.120448   362A      4.146695  
     363A      4.149072   364A      4.169039   365A      4.178963  
     366A      4.195042   367A      4.206036   368A      4.210579  
     369A      4.212998   370A      4.233195   371A      4.251458  
     372A      4.260955   373A      4.263656   374A      4.279264  
     375A      4.287134   376A      4.311319   377A      4.318288  
     378A      4.325297   379A      4.328865   380A      4.344646  
     381A      4.362159   382A      4.383088   383A      4.393086  
     384A      4.415294   385A      4.423750   386A      4.435236  
     387A      4.437603   388A      4.447449   389A      4.449543  
     390A      4.465888   391A      4.471924   392A      4.478355  
     393A      4.490420   394A      4.494047   395A      4.500922  
     396A      4.516343   397A      4.530360   398A      4.556089  
     399A      4.559492   400A      4.566845   401A      4.584958  
     402A      4.594858   403A      4.604707   404A      4.614070  
     405A      4.627050   406A      4.634322   407A      4.651515  
     408A      4.662907   409A      4.678448   410A      4.683102  
     411A      4.687779   412A      4.701371   413A      4.716496  
     414A      4.723199   415A      4.728987   416A      4.738678  
     417A      4.762259   418A      4.767159   419A      4.785089  
     420A      4.791339   421A      4.800203   422A      4.819639  
     423A      4.828646   424A      4.839560   425A      4.849149  
     426A      4.854775   427A      4.860706   428A      4.867187  
     429A      4.878872   430A      4.886448   431A      4.904271  
     432A      4.908274   433A      4.926998   434A      4.936300  
     435A      4.952724   436A      4.957922   437A      4.963005  
     438A      4.981932   439A      4.998975   440A      5.009222  
     441A      5.014986   442A      5.030249   443A      5.039422  
     444A      5.067235   445A      5.084131   446A      5.106848  
     447A      5.118415   448A      5.148544   449A      5.162122  
     450A      5.172934   451A      5.183494   452A      5.195197  
     453A      5.227485   454A      5.240529   455A      5.255037  
     456A      5.266975   457A      5.272548   458A      5.291587  
     459A      5.301136   460A      5.305669   461A      5.324399  
     462A      5.333707   463A      5.371414   464A      5.387126  
     465A      5.396391   466A      5.420879   467A      5.437787  
     468A      5.449044   469A      5.470888   470A      5.482494  
     471A      5.514165   472A      5.523676   473A      5.584583  
     474A      5.603626   475A      5.620847   476A      5.649991  
     477A      5.678143   478A      5.689236   479A      5.704263  
     480A      5.728676   481A      5.738820   482A      5.745397  
     483A      5.755573   484A      5.781762   485A      5.799545  
     486A      5.830125   487A      5.841777   488A      5.859113  
     489A      5.882072   490A      5.896977   491A      5.906373  
     492A      5.943965   493A      5.977861   494A      6.009486  
     495A      6.028116   496A      6.045267   497A      6.072749  
     498A      6.082570   499A      6.091655   500A      6.104084  
     501A      6.172363   502A      6.205821   503A      6.222352  
     504A      6.237023   505A      6.267169   506A      6.342739  
     507A      6.357254   508A      6.382466   509A      6.414715  
     510A      6.429235   511A      6.484579   512A      6.494562  
     513A      6.505013   514A      6.519782   515A      6.533880  
     516A      6.590502   517A      6.660275   518A      6.710917  
     519A      6.743675   520A      6.790314   521A      6.816165  
     522A      6.837352   523A      6.884602   524A      6.976746  
     525A      7.114787   526A      7.227200   527A      7.333453  
     528A      7.359375   529A      7.381813   530A      7.416665  
     531A      7.473218   532A      7.489335   533A      7.507341  
     534A      7.532829   535A      7.592236   536A      7.616223  
     537A      7.708500   538A      7.720000   539A      7.792266  
     540A      7.831789   541A      7.860562   542A      7.900835  
     543A      7.975946   544A      7.992387   545A      8.147076  
     546A      8.271223   547A      8.444587   548A      8.809376  
     549A      9.428475   550A      9.708170   551A      9.933235  
     552A     10.217390   553A     12.336970   554A     13.972014  
     555A     14.218438   556A     14.627050   557A     15.732316  
     558A     41.074740   559A     44.871448   560A     45.793697  
     561A     47.103713  

    Final Occupation by Irrep:
              A 
    DOCC [    20 ]

  @DF-RHF Final Energy:  -247.10991203826151

   => Energetics <=

    Nuclear Repulsion Energy =            179.1027914354417874
    One-Electron Energy =                -690.8642364219912224
    Two-Electron Energy =                 264.6515329482879793
    Total Energy =                       -247.1099120382614842

Computation Completed


Properties will be evaluated at   0.000000,   0.000000,   0.000000 [a0]

Properties computed using the SCF density matrix

  Nuclear Dipole Moment: [e a0]
     X:   142.0091      Y:   -12.9260      Z:     3.7775

  Electronic Dipole Moment: [e a0]
     X:  -141.5351      Y:    12.1071      Z:    -2.4762

  Dipole Moment: [e a0]
     X:     0.4740      Y:    -0.8189      Z:     1.3012     Total:     1.6089

  Dipole Moment: [D]
     X:     1.2048      Y:    -2.0813      Z:     3.3074     Total:     4.0893


*** tstop() called on r282 at Sat Sep 11 02:38:21 2021
Module time:
	user time   =      61.11 seconds =       1.02 minutes
	system time =       0.87 seconds =       0.01 minutes
	total time  =         62 seconds =       1.03 minutes
Total time:
	user time   =     165.31 seconds =       2.76 minutes
	system time =       2.82 seconds =       0.05 minutes
	total time  =        168 seconds =       2.80 minutes

  //>>>>>>>>>>>>>>>>>>>>>>>>>>>>>>>>>>>//
  //            Monomer B HF           //
  //<<<<<<<<<<<<<<<<<<<<<<<<<<<<<<<<<<<//


*** tstart() called on r282
*** at Sat Sep 11 02:38:21 2021

   => Loading Basis Set <=

    Name: JUN-CC-PVTZ
    Role: ORBITAL
    Keyword: BASIS
    atoms 1-2, 7, 13-16    entry C          line   217 file /home/r08543048/miniconda3/share/psi4/basis/jun-cc-pvtz.gbs 
    atoms 3                entry O          line   305 file /home/r08543048/miniconda3/share/psi4/basis/jun-cc-pvtz.gbs 
    atoms 4                entry N          line   261 file /home/r08543048/miniconda3/share/psi4/basis/jun-cc-pvtz.gbs 
    atoms 5-6, 8-12, 17-24 entry H          line    36 file /home/r08543048/miniconda3/share/psi4/basis/jun-cc-pvtz.gbs 


         ---------------------------------------------------------
                                   SCF
               by Justin Turney, Rob Parrish, Andy Simmonett
                          and Daniel G. A. Smith
                              RHF Reference
                        1 Threads,  20980 MiB Core
         ---------------------------------------------------------

  ==> Geometry <==

    Molecular point group: c1
    Full point group: C1

    Geometry (in Angstrom), charge = 0, multiplicity = 1:

       Center              X                  Y                   Z               Mass       
    ------------   -----------------  -----------------  -----------------  -----------------
      Gh(C)           2.837487337899    -0.352055914583     0.338706309643    12.000000000000
      Gh(C)           1.347860337899    -0.389864914583     0.056210309643    12.000000000000
      Gh(O)           0.849925337899     0.116656085417    -0.942845690357    15.994914619570
      Gh(N)           0.596583337899    -1.034418914583     0.991578309643    14.003074004430
      Gh(H)          -0.384510662101    -1.184269914583     0.802454309643     1.007825032230
      Gh(H)           1.027259337899    -1.507083914583     1.764740309643     1.007825032230
      Gh(C)           3.517934337899     0.816260085417    -0.356400690357    12.000000000000
      Gh(H)           3.132719337899     1.763963085417     0.016379309643     1.007825032230
      Gh(H)           4.593073337899     0.789741085417    -0.186891690357     1.007825032230
      Gh(H)           3.327671337899     0.780101085417    -1.426102690357     1.007825032230
      Gh(H)           3.004738337899    -0.322180914583     1.416962309643     1.007825032230
      Gh(H)           3.251833337899    -1.298749914583    -0.017973690357     1.007825032230
         C           -2.385485662101    -1.559944914583    -0.521170690357    12.000000000000
         C           -2.840754662101    -0.418458914583     0.009771309643    12.000000000000
         C           -2.412392662101     0.949639085417    -0.417149690357    12.000000000000
         C           -1.879561662101     1.773792085417     0.754988309643    12.000000000000
         H           -2.743830662101    -2.521555914583    -0.178505690357     1.007825032230
         H           -1.653818662101    -1.543537914583    -1.319944690357     1.007825032230
         H           -3.574703662101    -0.470479914583     0.810701309643     1.007825032230
         H           -1.646434662101     0.864990085417    -1.188411690357     1.007825032230
         H           -3.272249662101     1.466263085417    -0.853092690357     1.007825032230
         H           -2.625747662101     1.855044085417     1.546880309643     1.007825032230
         H           -0.986157662101     1.311705085417     1.173946309643     1.007825032230
         H           -1.618057662101     2.781155085417     0.433123309643     1.007825032230

  Running in c1 symmetry.

  Rotational constants: A =      0.08394  B =      0.02306  C =      0.02074 [cm^-1]
  Rotational constants: A =   2516.46357  B =    691.33291  C =    621.89820 [MHz]
  Nuclear repulsion =  117.331758256479887

  Charge       = 0
  Multiplicity = 1
  Electrons    = 32
  Nalpha       = 16
  Nbeta        = 16

  ==> Algorithm <==

  SCF Algorithm Type is DF.
  DIIS enabled.
  MOM disabled.
  Fractional occupation disabled.
  Guess Type is SAD.
  Energy threshold   = 1.00e-08
  Density threshold  = 1.00e-08
  Integral threshold = 0.00e+00

  ==> Primary Basis <==

  Basis Set: JUN-CC-PVTZ
    Blend: JUN-CC-PVTZ
    Number of shells: 207
    Number of basis function: 561
    Number of Cartesian functions: 630
    Spherical Harmonics?: true
    Max angular momentum: 3

   => Loading Basis Set <=

    Name: (JUN-CC-PVTZ AUX)
    Role: JKFIT
    Keyword: DF_BASIS_SCF
    atoms 1-2, 7, 13-16    entry C          line   152 file /home/r08543048/miniconda3/share/psi4/basis/jun-cc-pvtz-jkfit.gbs 
    atoms 3                entry O          line   272 file /home/r08543048/miniconda3/share/psi4/basis/jun-cc-pvtz-jkfit.gbs 
    atoms 4                entry N          line   212 file /home/r08543048/miniconda3/share/psi4/basis/jun-cc-pvtz-jkfit.gbs 
    atoms 5-6, 8-12, 17-24 entry H          line    70 file /home/r08543048/miniconda3/share/psi4/basis/jun-cc-pvtz-jkfit.gbs 

  ==> Pre-Iterations <==

   -------------------------------------------------------
    Irrep   Nso     Nmo     Nalpha   Nbeta   Ndocc  Nsocc
   -------------------------------------------------------
     A        561     561       0       0       0       0
   -------------------------------------------------------
    Total     561     561      16      16      16       0
   -------------------------------------------------------

  ==> Integral Setup <==

  ==> DiskDFJK: Density-Fitted J/K Matrices <==

    J tasked:                  Yes
    K tasked:                  Yes
    wK tasked:                  No
    OpenMP threads:              1
    Integrals threads:           1
    Memory [MiB]:            15735
    Algorithm:                Core
    Integral Cache:           LOAD
    Schwarz Cutoff:          1E-12
    Fitting Condition:       1E-10

   => Auxiliary Basis Set <=

  Basis Set: (JUN-CC-PVTZ AUX)
    Blend: JUN-CC-PVTZ-JKFIT
    Number of shells: 411
    Number of basis function: 1305
    Number of Cartesian functions: 1569
    Spherical Harmonics?: true
    Max angular momentum: 4

  Minimum eigenvalue in the overlap matrix is 3.4039204039E-05.
  Using Symmetric Orthogonalization.

  SCF Guess: Superposition of Atomic Densities via on-the-fly atomic UHF.

  ==> Iterations <==

                           Total Energy        Delta E     RMS |[F,P]|

   @DF-RHF iter SAD:  -155.38042257716498   -1.55380e+02   0.00000e+00 
   @DF-RHF iter   1:  -155.99474006006653   -6.14317e-01   9.30873e-04 DIIS
   @DF-RHF iter   2:  -156.13465292898627   -1.39913e-01   4.10136e-04 DIIS
   @DF-RHF iter   3:  -156.16227604896497   -2.76231e-02   7.93700e-05 DIIS
   @DF-RHF iter   4:  -156.16410945052974   -1.83340e-03   2.95027e-05 DIIS
   @DF-RHF iter   5:  -156.16427704651883   -1.67596e-04   5.49420e-06 DIIS
   @DF-RHF iter   6:  -156.16428586796474   -8.82145e-06   9.87007e-07 DIIS
   @DF-RHF iter   7:  -156.16428621314827   -3.45184e-07   2.78488e-07 DIIS
   @DF-RHF iter   8:  -156.16428624048453   -2.73363e-08   8.36936e-08 DIIS
   @DF-RHF iter   9:  -156.16428624338153   -2.89700e-09   3.62463e-08 DIIS
   @DF-RHF iter  10:  -156.16428624396082   -5.79291e-10   1.13592e-08 DIIS
   @DF-RHF iter  11:  -156.16428624402354   -6.27267e-11   2.83483e-09 DIIS
  Energy and wave function converged.


  ==> Post-Iterations <==

    Orbital Energies [Eh]
    ---------------------

    Doubly Occupied:                                                      

       1A    -11.231656     2A    -11.224883     3A    -11.217837  
       4A    -11.214580     5A     -1.080729     6A     -0.988235  
       7A     -0.855618     8A     -0.755636     9A     -0.642325  
      10A     -0.606507    11A     -0.587716    12A     -0.533861  
      13A     -0.516876    14A     -0.488508    15A     -0.477019  
      16A     -0.356471  

    Virtual:                                                              

      17A      0.030869    18A      0.049157    19A      0.051763  
      20A      0.052500    21A      0.064805    22A      0.067642  
      23A      0.073116    24A      0.077873    25A      0.089386  
      26A      0.092333    27A      0.096553    28A      0.106306  
      29A      0.110213    30A      0.110762    31A      0.120817  
      32A      0.122683    33A      0.127215    34A      0.133997  
      35A      0.139535    36A      0.144872    37A      0.155402  
      38A      0.158507    39A      0.164360    40A      0.168738  
      41A      0.177124    42A      0.181278    43A      0.185955  
      44A      0.196644    45A      0.201331    46A      0.208733  
      47A      0.210743    48A      0.221134    49A      0.226558  
      50A      0.227264    51A      0.230985    52A      0.247281  
      53A      0.250827    54A      0.264894    55A      0.282930  
      56A      0.292622    57A      0.298344    58A      0.304921  
      59A      0.308864    60A      0.309986    61A      0.320679  
      62A      0.325906    63A      0.329006    64A      0.336998  
      65A      0.341512    66A      0.347541    67A      0.351768  
      68A      0.358564    69A      0.360112    70A      0.366298  
      71A      0.371951    72A      0.377232    73A      0.385364  
      74A      0.391762    75A      0.396271    76A      0.405403  
      77A      0.412367    78A      0.416166    79A      0.417778  
      80A      0.421050    81A      0.424886    82A      0.428628  
      83A      0.447155    84A      0.449407    85A      0.450445  
      86A      0.455630    87A      0.463600    88A      0.471989  
      89A      0.478459    90A      0.484608    91A      0.492712  
      92A      0.497826    93A      0.511415    94A      0.518026  
      95A      0.520391    96A      0.529695    97A      0.530493  
      98A      0.539398    99A      0.542304   100A      0.551191  
     101A      0.553534   102A      0.563098   103A      0.574181  
     104A      0.579942   105A      0.585521   106A      0.594582  
     107A      0.605550   108A      0.619857   109A      0.621262  
     110A      0.639019   111A      0.645791   112A      0.653100  
     113A      0.664107   114A      0.672097   115A      0.683317  
     116A      0.697312   117A      0.704627   118A      0.712730  
     119A      0.717887   120A      0.732059   121A      0.742509  
     122A      0.744318   123A      0.759070   124A      0.770503  
     125A      0.777503   126A      0.787807   127A      0.794864  
     128A      0.803424   129A      0.805794   130A      0.822512  
     131A      0.828990   132A      0.840682   133A      0.845815  
     134A      0.852468   135A      0.852766   136A      0.872841  
     137A      0.881872   138A      0.884120   139A      0.891587  
     140A      0.897927   141A      0.904356   142A      0.908017  
     143A      0.924612   144A      0.947478   145A      0.958189  
     146A      0.962965   147A      0.972752   148A      0.991777  
     149A      1.000378   150A      1.005784   151A      1.022925  
     152A      1.027380   153A      1.041724   154A      1.047007  
     155A      1.049613   156A      1.068970   157A      1.080978  
     158A      1.090164   159A      1.098143   160A      1.101088  
     161A      1.121682   162A      1.132747   163A      1.139100  
     164A      1.145261   165A      1.161973   166A      1.180413  
     167A      1.187311   168A      1.197818   169A      1.202691  
     170A      1.217143   171A      1.218940   172A      1.234340  
     173A      1.247060   174A      1.254503   175A      1.276616  
     176A      1.282222   177A      1.288113   178A      1.295501  
     179A      1.301015   180A      1.308841   181A      1.321057  
     182A      1.337730   183A      1.345026   184A      1.355228  
     185A      1.365729   186A      1.376627   187A      1.379230  
     188A      1.388317   189A      1.395184   190A      1.406106  
     191A      1.423564   192A      1.427485   193A      1.450487  
     194A      1.458285   195A      1.478138   196A      1.486138  
     197A      1.496470   198A      1.503776   199A      1.513731  
     200A      1.519094   201A      1.522619   202A      1.533089  
     203A      1.539535   204A      1.545221   205A      1.551262  
     206A      1.570259   207A      1.579964   208A      1.595174  
     209A      1.599503   210A      1.602412   211A      1.607439  
     212A      1.616932   213A      1.633163   214A      1.637308  
     215A      1.647562   216A      1.653922   217A      1.667919  
     218A      1.674036   219A      1.690524   220A      1.700162  
     221A      1.707738   222A      1.729736   223A      1.748708  
     224A      1.757945   225A      1.759353   226A      1.777278  
     227A      1.790761   228A      1.798614   229A      1.803618  
     230A      1.815986   231A      1.827063   232A      1.851819  
     233A      1.864333   234A      1.877227   235A      1.882060  
     236A      1.903870   237A      1.909641   238A      1.921489  
     239A      1.948181   240A      1.958641   241A      1.966540  
     242A      2.002696   243A      2.026720   244A      2.039394  
     245A      2.055530   246A      2.083602   247A      2.101807  
     248A      2.127981   249A      2.150873   250A      2.161993  
     251A      2.192028   252A      2.234351   253A      2.269064  
     254A      2.298085   255A      2.336315   256A      2.353713  
     257A      2.387462   258A      2.414404   259A      2.437709  
     260A      2.481455   261A      2.528064   262A      2.555652  
     263A      2.592051   264A      2.646586   265A      2.666059  
     266A      2.701316   267A      2.735305   268A      2.751951  
     269A      2.771927   270A      2.783351   271A      2.814483  
     272A      2.837751   273A      2.844605   274A      2.851539  
     275A      2.862839   276A      2.873547   277A      2.900845  
     278A      2.909922   279A      2.957834   280A      2.965579  
     281A      2.974143   282A      2.982987   283A      2.993906  
     284A      3.024532   285A      3.040678   286A      3.059799  
     287A      3.070074   288A      3.084177   289A      3.107034  
     290A      3.117874   291A      3.150536   292A      3.157397  
     293A      3.171026   294A      3.198643   295A      3.210641  
     296A      3.216178   297A      3.236758   298A      3.255292  
     299A      3.283435   300A      3.314089   301A      3.318083  
     302A      3.332354   303A      3.350211   304A      3.358571  
     305A      3.363514   306A      3.373843   307A      3.412228  
     308A      3.430937   309A      3.440985   310A      3.454967  
     311A      3.472383   312A      3.494157   313A      3.499618  
     314A      3.503775   315A      3.512138   316A      3.539898  
     317A      3.547542   318A      3.559936   319A      3.567663  
     320A      3.577200   321A      3.586579   322A      3.599063  
     323A      3.611721   324A      3.615677   325A      3.628361  
     326A      3.636194   327A      3.657996   328A      3.671930  
     329A      3.682827   330A      3.694209   331A      3.711255  
     332A      3.737515   333A      3.742898   334A      3.756005  
     335A      3.768846   336A      3.776827   337A      3.795617  
     338A      3.809846   339A      3.815428   340A      3.824546  
     341A      3.839854   342A      3.848775   343A      3.858568  
     344A      3.866445   345A      3.884493   346A      3.890191  
     347A      3.897939   348A      3.926234   349A      3.929989  
     350A      3.944499   351A      3.956412   352A      3.986808  
     353A      3.998090   354A      4.009119   355A      4.028378  
     356A      4.046973   357A      4.063267   358A      4.070744  
     359A      4.077387   360A      4.089574   361A      4.101788  
     362A      4.126009   363A      4.138024   364A      4.148274  
     365A      4.180093   366A      4.188142   367A      4.198067  
     368A      4.219712   369A      4.237253   370A      4.243873  
     371A      4.253845   372A      4.276245   373A      4.285606  
     374A      4.294701   375A      4.311933   376A      4.325607  
     377A      4.333682   378A      4.345901   379A      4.354655  
     380A      4.366079   381A      4.390141   382A      4.405280  
     383A      4.410440   384A      4.413674   385A      4.430798  
     386A      4.439386   387A      4.454216   388A      4.461750  
     389A      4.471418   390A      4.487608   391A      4.493389  
     392A      4.497150   393A      4.507525   394A      4.519119  
     395A      4.532092   396A      4.538642   397A      4.550844  
     398A      4.567149   399A      4.586357   400A      4.606004  
     401A      4.632089   402A      4.638539   403A      4.656427  
     404A      4.661373   405A      4.672412   406A      4.677671  
     407A      4.680320   408A      4.697388   409A      4.711913  
     410A      4.734288   411A      4.743491   412A      4.749189  
     413A      4.755601   414A      4.773445   415A      4.790839  
     416A      4.806767   417A      4.815030   418A      4.818993  
     419A      4.823400   420A      4.826665   421A      4.831762  
     422A      4.852337   423A      4.856258   424A      4.860707  
     425A      4.871027   426A      4.881891   427A      4.900950  
     428A      4.905107   429A      4.918817   430A      4.926560  
     431A      4.941179   432A      4.956558   433A      4.966998  
     434A      4.976183   435A      4.981725   436A      4.988666  
     437A      4.993719   438A      5.017139   439A      5.022097  
     440A      5.030951   441A      5.063178   442A      5.075207  
     443A      5.081466   444A      5.101207   445A      5.118620  
     446A      5.142234   447A      5.144497   448A      5.200309  
     449A      5.204237   450A      5.230656   451A      5.239740  
     452A      5.246897   453A      5.253177   454A      5.264173  
     455A      5.297918   456A      5.304037   457A      5.315404  
     458A      5.319339   459A      5.341931   460A      5.383101  
     461A      5.402865   462A      5.418008   463A      5.427215  
     464A      5.453394   465A      5.471263   466A      5.510171  
     467A      5.553229   468A      5.593393   469A      5.598329  
     470A      5.602365   471A      5.665989   472A      5.682548  
     473A      5.721403   474A      5.734778   475A      5.754565  
     476A      5.760766   477A      5.779607   478A      5.799912  
     479A      5.836535   480A      5.843194   481A      5.864953  
     482A      5.902282   483A      5.915886   484A      5.933288  
     485A      5.967961   486A      5.985758   487A      6.031003  
     488A      6.045025   489A      6.097723   490A      6.113884  
     491A      6.181193   492A      6.208599   493A      6.288490  
     494A      6.299268   495A      6.322463   496A      6.367517  
     497A      6.395456   498A      6.425952   499A      6.438396  
     500A      6.470609   501A      6.485290   502A      6.500639  
     503A      6.501064   504A      6.519545   505A      6.549982  
     506A      6.576903   507A      6.590337   508A      6.599231  
     509A      6.618863   510A      6.706226   511A      6.722764  
     512A      6.797004   513A      6.870739   514A      6.966669  
     515A      6.980950   516A      7.110288   517A      7.322205  
     518A      7.340008   519A      7.434808   520A      7.465580  
     521A      7.535099   522A      7.544700   523A      7.629988  
     524A      7.672329   525A      7.729127   526A      7.811199  
     527A      7.830244   528A      7.886124   529A      7.935270  
     530A      7.984894   531A      8.052649   532A      8.289975  
     533A      8.423527   534A      8.451134   535A      8.825560  
     536A      9.114522   537A      9.154224   538A      9.182412  
     539A      9.498844   540A      9.624435   541A      9.862999  
     542A      9.919127   543A      9.962094   544A     10.005331  
     545A     10.164845   546A     10.529248   547A     10.945840  
     548A     11.436650   549A     11.641770   550A     11.681790  
     551A     12.047007   552A     12.372235   553A     13.852786  
     554A     14.111957   555A     14.612326   556A     15.315899  
     557A     43.128493   558A     44.892951   559A     45.729994  
     560A     55.458393   561A     61.073297  

    Final Occupation by Irrep:
              A 
    DOCC [    16 ]

  @DF-RHF Final Energy:  -156.16428624402354

   => Energetics <=

    Nuclear Repulsion Energy =            117.3317582564798869
    One-Electron Energy =                -441.4351716676648039
    Two-Electron Energy =                 167.9391271671613879
    Total Energy =                       -156.1642862440235433

Computation Completed


Properties will be evaluated at   0.000000,   0.000000,   0.000000 [a0]

Properties computed using the SCF density matrix

  Nuclear Dipole Moment: [e a0]
     X:  -142.1644      Y:    15.5217      Z:    -1.1653

  Electronic Dipole Moment: [e a0]
     X:   142.1529      Y:   -15.3466      Z:     1.1761

  Dipole Moment: [e a0]
     X:    -0.0115      Y:     0.1751      Z:     0.0108     Total:     0.1759

  Dipole Moment: [D]
     X:    -0.0293      Y:     0.4452      Z:     0.0274     Total:     0.4470


*** tstop() called on r282 at Sat Sep 11 02:39:21 2021
Module time:
	user time   =      59.08 seconds =       0.98 minutes
	system time =       0.84 seconds =       0.01 minutes
	total time  =         60 seconds =       1.00 minutes
Total time:
	user time   =     224.39 seconds =       3.74 minutes
	system time =       3.66 seconds =       0.06 minutes
	total time  =        228 seconds =       3.80 minutes
  Constructing Basis Sets for SAPT...

   => Loading Basis Set <=

    Name: (JUN-CC-PVTZ AUX)
    Role: RIFIT
    Keyword: DF_BASIS_SAPT
    atoms 1-2, 7, 13-16    entry C          line   132 file /home/r08543048/miniconda3/share/psi4/basis/jun-cc-pvtz-ri.gbs 
    atoms 3                entry O          line   244 file /home/r08543048/miniconda3/share/psi4/basis/jun-cc-pvtz-ri.gbs 
    atoms 4                entry N          line   188 file /home/r08543048/miniconda3/share/psi4/basis/jun-cc-pvtz-ri.gbs 
    atoms 5-6, 8-12, 17-24 entry H          line    30 file /home/r08543048/miniconda3/share/psi4/basis/jun-cc-pvtz-ri.gbs 


  //>>>>>>>>>>>>>>>>>>>>>>>>>>>>>>>>>>>//
  //               SAPT0               //
  //<<<<<<<<<<<<<<<<<<<<<<<<<<<<<<<<<<<//


*** tstart() called on r282
*** at Sat Sep 11 02:39:21 2021

        SAPT0  
    Ed Hohenstein
     6 June 2009

      Orbital Information
  --------------------------
    NSO        =       561
    NMO        =       561
    NRI        =      1323
    NOCC A     =        20
    NOCC B     =        16
    FOCC A     =         0
    FOCC B     =         0
    NVIR A     =       541
    NVIR B     =       545

    Elst10,r            =    -0.009642096506 [Eh]
    Exch10              =     0.013047935354 [Eh]
    Exch10 (S^2)        =     0.012979049658 [Eh]

    Iter     Energy [mEh]          dE [mEh]         Residual      Time [s]
       1      -0.88402028       0.884020278       4.287193216             1
       2      -1.08878087       0.204760592       1.485598066             3
       3      -1.09800618       0.009225311       0.578270276             4
       4      -1.09235633      -0.005649851       0.235280842             6
       5      -1.09146374      -0.000892593       0.094302726             7
       6      -1.09203533       0.000571590       0.036444200             9
       7      -1.09220767       0.000172340       0.009308906            10
       8      -1.09213384      -0.000073823       0.002325921            11
       9      -1.09212990      -0.000003945       0.000614151            13
      10      -1.09213317       0.000003271       0.000190569            14
      11      -1.09213345       0.000000277       0.000064807            16
      12      -1.09213308      -0.000000372       0.000025741            17
      13      -1.09213314       0.000000064       0.000008937            18
      14      -1.09213316       0.000000021       0.000002309            20
      15      -1.09213315      -0.000000006       0.000000734            21

    CHF Iterations converged


    Iter     Energy [mEh]          dE [mEh]         Residual      Time [s]
       1      -4.07546770       4.075467701      10.995347131             2
       2      -5.06335941       0.987891706       4.221413057             3
       3      -5.19662840       0.133268996       1.216032167             4
       4      -5.17682669      -0.019801711       0.453990486             6
       5      -5.16423314      -0.012593556       0.135672017             7
       6      -5.16663255       0.002399414       0.056917808             8
       7      -5.16740066       0.000768105       0.014811860            10
       8      -5.16711462      -0.000286040       0.003274759            11
       9      -5.16710991      -0.000004709       0.000856295            13
      10      -5.16711871       0.000008804       0.000265902            14
      11      -5.16711984       0.000001126       0.000062666            15
      12      -5.16711903      -0.000000810       0.000014736            17
      13      -5.16711904       0.000000012       0.000004423            18
      14      -5.16711908       0.000000045       0.000001400            19
      15      -5.16711908      -0.000000006       0.000000482            21

    CHF Iterations converged

    Ind20,r (A<-B)      =    -0.001092133154 [Eh]
    Ind20,r (B<-A)      =    -0.005167119079 [Eh]
    Ind20,r             =    -0.006259252233 [Eh]
    Exch-Ind20,r (A<-B) =     0.000891694662 [Eh]
    Exch-Ind20,r (B<-A) =     0.003347011415 [Eh]
    Exch-Ind20,r        =     0.004238706077 [Eh]
    Disp20              =    -0.010156680882 [Eh]
    Disp20 (SS)         =    -0.005078340441 [Eh]
    Disp20 (OS)         =    -0.005078340441 [Eh]
    Exch-Disp20         =     0.001340032302 [Eh]
    Exch-Disp20 (SS)    =     0.000866618911 [Eh]
    Exch-Disp20 (OS)    =     0.000473413390 [Eh]

    SAPT Results 
  --------------------------------------------------------------------------------------------------------
    Electrostatics                 -9.64209651 [mEh]      -6.05050690 [kcal/mol]     -25.31532089 [kJ/mol]
      Elst10,r                     -9.64209651 [mEh]      -6.05050690 [kcal/mol]     -25.31532089 [kJ/mol]

    Exchange                       13.04793535 [mEh]       8.18770305 [kcal/mol]      34.25734955 [kJ/mol]
      Exch10                       13.04793535 [mEh]       8.18770305 [kcal/mol]      34.25734955 [kJ/mol]
      Exch10(S^2)                  12.97904966 [mEh]       8.14447662 [kcal/mol]      34.07649018 [kJ/mol]

    Induction                      -3.51763930 [mEh]      -2.20735199 [kcal/mol]      -9.23556072 [kJ/mol]
      Ind20,r                      -6.25925223 [mEh]      -3.92774007 [kcal/mol]     -16.43366447 [kJ/mol]
      Exch-Ind20,r                  4.23870608 [mEh]       2.65982822 [kcal/mol]      11.12872127 [kJ/mol]
      delta HF,r (2)               -1.49709315 [mEh]      -0.93944013 [kcal/mol]      -3.93061752 [kJ/mol]

    Dispersion                     -8.81664858 [mEh]      -5.53253051 [kcal/mol]     -23.14810766 [kJ/mol]
      Disp20                      -10.15668088 [mEh]      -6.37341348 [kcal/mol]     -26.66636198 [kJ/mol]
      Exch-Disp20                   1.34003230 [mEh]       0.84088296 [kcal/mol]       3.51825432 [kJ/mol]
      Disp20 (SS)                  -5.07834044 [mEh]      -3.18670674 [kcal/mol]     -13.33318099 [kJ/mol]
      Disp20 (OS)                  -5.07834044 [mEh]      -3.18670674 [kcal/mol]     -13.33318099 [kJ/mol]
      Exch-Disp20 (SS)              0.86661891 [mEh]       0.54381158 [kcal/mol]       2.27530764 [kJ/mol]
      Exch-Disp20 (OS)              0.47341339 [mEh]       0.29707139 [kcal/mol]       1.24294669 [kJ/mol]

  Total HF                         -0.11180046 [mEh]      -0.07015585 [kcal/mol]      -0.29353206 [kJ/mol]
  Total SAPT0                      -8.92844904 [mEh]      -5.60268636 [kcal/mol]     -23.44163972 [kJ/mol]

  Special recipe for scaled SAPT0 (see Manual):
    Electrostatics sSAPT0          -9.64209651 [mEh]      -6.05050690 [kcal/mol]     -25.31532089 [kJ/mol]
    Exchange sSAPT0                13.04793535 [mEh]       8.18770305 [kcal/mol]      34.25734955 [kJ/mol]
    Induction sSAPT0               -3.44979027 [mEh]      -2.16477608 [kcal/mol]      -9.05742310 [kJ/mol]
    Dispersion sSAPT0              -8.79519866 [mEh]      -5.51907048 [kcal/mol]     -23.09179091 [kJ/mol]
  Total sSAPT0                     -8.83915008 [mEh]      -5.54665042 [kcal/mol]     -23.20718535 [kJ/mol]
  --------------------------------------------------------------------------------------------------------

*** tstop() called on r282 at Sat Sep 11 02:42:29 2021
Module time:
	user time   =     161.36 seconds =       2.69 minutes
	system time =      25.70 seconds =       0.43 minutes
	total time  =        188 seconds =       3.13 minutes
Total time:
	user time   =     385.90 seconds =       6.43 minutes
	system time =      29.36 seconds =       0.49 minutes
	total time  =        416 seconds =       6.93 minutes

    Psi4 stopped on: Saturday, 11 September 2021 02:42AM
    Psi4 wall time for execution: 0:06:55.73

*** Psi4 exiting successfully. Buy a developer a beer!
