
    -----------------------------------------------------------------------
          Psi4: An Open-Source Ab Initio Electronic Structure Package
                               Psi4 1.3.2 release

                         Git: Rev {HEAD} ecbda83 


    R. M. Parrish, L. A. Burns, D. G. A. Smith, A. C. Simmonett,
    A. E. DePrince III, E. G. Hohenstein, U. Bozkaya, A. Yu. Sokolov,
    R. Di Remigio, R. M. Richard, J. F. Gonthier, A. M. James,
    H. R. McAlexander, A. Kumar, M. Saitow, X. Wang, B. P. Pritchard,
    P. Verma, H. F. Schaefer III, K. Patkowski, R. A. King, E. F. Valeev,
    F. A. Evangelista, J. M. Turney, T. D. Crawford, and C. D. Sherrill,
    J. Chem. Theory Comput. 13(7) pp 3185--3197 (2017).
    (doi: 10.1021/acs.jctc.7b00174)


                         Additional Contributions by
    P. Kraus, H. Kruse, M. H. Lechner, M. C. Schieber, R. A. Shaw,
    A. Alenaizan, R. Galvelis, Z. L. Glick, S. Lehtola, and J. P. Misiewicz

    -----------------------------------------------------------------------


    Psi4 started on: Saturday, 11 September 2021 02:13AM

    Process ID: 57503
    Host:       r282
    PSIDATADIR: /home/r08543048/miniconda3/share/psi4
    Memory:     500.0 MiB
    Threads:    1
    
  ==> Input File <==

--------------------------------------------------------------------------
# Any line starting with the # character is a comment line
#! Sample  computation

memory 22 gb

molecule Dimer {
0 1
 C  -2.167201    0.505459    0.164996
 C  -0.682680    0.222288    0.037831
 O  -0.212578   -0.906366    0.122453
 N   0.099089    1.318995   -0.165747
 H   1.101116    1.204368   -0.158830
 H  -0.293164    2.242052   -0.174902
 C  -3.009665   -0.723418   -0.135390
 H  -2.719335   -1.546967    0.512074
 H  -4.066336   -0.509505    0.016320
 H  -2.866680   -1.046658   -1.165057
 H  -2.339758    0.843160    1.190333
 H  -2.435545    1.338023   -0.488112
  
  
  
  
  
    
    
 --
0 1
 C   3.110349   -0.351323   -0.661452
 H   3.941210   -0.013852   -1.266169
 H   2.272261   -0.818822   -1.160716
 C   3.113727   -0.211675    0.666641
 H   2.278485   -0.565409    1.256184
 H   3.947568    0.243587    1.183721
   
   
   
   
   
   
   
   
   




units angstrom

no_reorient
symmetry c1
}

set globals{
  basis jun-cc-pvtz
}

energy('sapt0')


--------------------------------------------------------------------------

  Memory set to  20.489 GiB by Python driver.

  //>>>>>>>>>>>>>>>>>>>>>>>>>>>>>>>>>>>//
  //              Dimer HF             //
  //<<<<<<<<<<<<<<<<<<<<<<<<<<<<<<<<<<<//


*** tstart() called on r282
*** at Sat Sep 11 02:13:47 2021

   => Loading Basis Set <=

    Name: JUN-CC-PVTZ
    Role: ORBITAL
    Keyword: BASIS
    atoms 1-2, 7, 13, 16          entry C          line   217 file /home/r08543048/miniconda3/share/psi4/basis/jun-cc-pvtz.gbs 
    atoms 3                       entry O          line   305 file /home/r08543048/miniconda3/share/psi4/basis/jun-cc-pvtz.gbs 
    atoms 4                       entry N          line   261 file /home/r08543048/miniconda3/share/psi4/basis/jun-cc-pvtz.gbs 
    atoms 5-6, 8-12, 14-15, 17-18 entry H          line    36 file /home/r08543048/miniconda3/share/psi4/basis/jun-cc-pvtz.gbs 


         ---------------------------------------------------------
                                   SCF
               by Justin Turney, Rob Parrish, Andy Simmonett
                          and Daniel G. A. Smith
                              RHF Reference
                        1 Threads,  20980 MiB Core
         ---------------------------------------------------------

  ==> Geometry <==

    Molecular point group: c1
    Full point group: C1

    Geometry (in Angstrom), charge = 0, multiplicity = 1:

       Center              X                  Y                   Z               Mass       
    ------------   -----------------  -----------------  -----------------  -----------------
         C           -2.178798581884     0.518820087992     0.162502835650    12.000000000000
         C           -0.694277581884     0.235649087992     0.035337835650    12.000000000000
         O           -0.224175581884    -0.893004912008     0.119959835650    15.994914619570
         N            0.087491418116     1.332356087992    -0.168240164350    14.003074004430
         H            1.089518418116     1.217729087992    -0.161323164350     1.007825032230
         H           -0.304761581884     2.255413087992    -0.177395164350     1.007825032230
         C           -3.021262581884    -0.710056912008    -0.137883164350    12.000000000000
         H           -2.730932581884    -1.533605912008     0.509580835650     1.007825032230
         H           -4.077933581884    -0.496143912008     0.013826835650     1.007825032230
         H           -2.878277581884    -1.033296912008    -1.167550164350     1.007825032230
         H           -2.351355581884     0.856521087992     1.187839835650     1.007825032230
         H           -2.447142581884     1.351384087992    -0.490605164350     1.007825032230
         C            3.098751418116    -0.337961912008    -0.663945164350    12.000000000000
         H            3.929612418116    -0.000490912008    -1.268662164350     1.007825032230
         H            2.260663418116    -0.805460912008    -1.163209164350     1.007825032230
         C            3.102129418116    -0.198313912008     0.664147835650    12.000000000000
         H            2.266887418116    -0.552047912008     1.253690835650     1.007825032230
         H            3.935970418116     0.256948087992     1.181227835650     1.007825032230

  Running in c1 symmetry.

  Rotational constants: A =      0.19970  B =      0.03292  C =      0.03041 [cm^-1]
  Rotational constants: A =   5986.82023  B =    986.99781  C =    911.79356 [MHz]
  Nuclear repulsion =  291.728430483670763

  Charge       = 0
  Multiplicity = 1
  Electrons    = 56
  Nalpha       = 28
  Nbeta        = 28

  ==> Algorithm <==

  SCF Algorithm Type is DF.
  DIIS enabled.
  MOM disabled.
  Fractional occupation disabled.
  Guess Type is SAD.
  Energy threshold   = 1.00e-08
  Density threshold  = 1.00e-08
  Integral threshold = 0.00e+00

  ==> Primary Basis <==

  Basis Set: JUN-CC-PVTZ
    Blend: JUN-CC-PVTZ
    Number of shells: 157
    Number of basis function: 427
    Number of Cartesian functions: 480
    Spherical Harmonics?: true
    Max angular momentum: 3

   => Loading Basis Set <=

    Name: (JUN-CC-PVTZ AUX)
    Role: JKFIT
    Keyword: DF_BASIS_SCF
    atoms 1-2, 7, 13, 16          entry C          line   152 file /home/r08543048/miniconda3/share/psi4/basis/jun-cc-pvtz-jkfit.gbs 
    atoms 3                       entry O          line   272 file /home/r08543048/miniconda3/share/psi4/basis/jun-cc-pvtz-jkfit.gbs 
    atoms 4                       entry N          line   212 file /home/r08543048/miniconda3/share/psi4/basis/jun-cc-pvtz-jkfit.gbs 
    atoms 5-6, 8-12, 14-15, 17-18 entry H          line    70 file /home/r08543048/miniconda3/share/psi4/basis/jun-cc-pvtz-jkfit.gbs 

  ==> Pre-Iterations <==

   -------------------------------------------------------
    Irrep   Nso     Nmo     Nalpha   Nbeta   Ndocc  Nsocc
   -------------------------------------------------------
     A        427     427       0       0       0       0
   -------------------------------------------------------
    Total     427     427      28      28      28       0
   -------------------------------------------------------

  ==> Integral Setup <==

  ==> DiskDFJK: Density-Fitted J/K Matrices <==

    J tasked:                  Yes
    K tasked:                  Yes
    wK tasked:                  No
    OpenMP threads:              1
    Integrals threads:           1
    Memory [MiB]:            15735
    Algorithm:                Core
    Integral Cache:           SAVE
    Schwarz Cutoff:          1E-12
    Fitting Condition:       1E-10

   => Auxiliary Basis Set <=

  Basis Set: (JUN-CC-PVTZ AUX)
    Blend: JUN-CC-PVTZ-JKFIT
    Number of shells: 313
    Number of basis function: 995
    Number of Cartesian functions: 1197
    Spherical Harmonics?: true
    Max angular momentum: 4

  Minimum eigenvalue in the overlap matrix is 4.1863975048E-05.
  Using Symmetric Orthogonalization.

  SCF Guess: Superposition of Atomic Densities via on-the-fly atomic UHF.

  ==> Iterations <==

                           Total Energy        Delta E     RMS |[F,P]|

   @DF-RHF iter SAD:  -323.69574585364740   -3.23696e+02   0.00000e+00 
   @DF-RHF iter   1:  -324.89272530155245   -1.19698e+00   1.72745e-03 DIIS
   @DF-RHF iter   2:  -325.11330023966610   -2.20575e-01   9.19104e-04 DIIS
   @DF-RHF iter   3:  -325.17091255111774   -5.76123e-02   1.93465e-04 DIIS
   @DF-RHF iter   4:  -325.17454943517907   -3.63688e-03   8.49277e-05 DIIS
   @DF-RHF iter   5:  -325.17530566417440   -7.56229e-04   1.22854e-05 DIIS
   @DF-RHF iter   6:  -325.17534268160500   -3.70174e-05   5.15076e-06 DIIS
   @DF-RHF iter   7:  -325.17534753859928   -4.85699e-06   2.13375e-06 DIIS
   @DF-RHF iter   8:  -325.17534872003841   -1.18144e-06   8.04266e-07 DIIS
   @DF-RHF iter   9:  -325.17534890630623   -1.86268e-07   2.10526e-07 DIIS
   @DF-RHF iter  10:  -325.17534891788569   -1.15795e-08   6.41986e-08 DIIS
   @DF-RHF iter  11:  -325.17534891872236   -8.36678e-10   1.76866e-08 DIIS
   @DF-RHF iter  12:  -325.17534891878535   -6.29825e-11   4.39173e-09 DIIS
  Energy and wave function converged.


  ==> Post-Iterations <==

    Orbital Energies [Eh]
    ---------------------

    Doubly Occupied:                                                      

       1A    -20.515285     2A    -15.578638     3A    -11.348784  
       4A    -11.240390     5A    -11.224843     6A    -11.223150  
       7A    -11.214797     8A     -1.374618     9A     -1.207610  
      10A     -1.051513    11A     -1.029110    12A     -0.892294  
      13A     -0.786228    14A     -0.780077    15A     -0.718116  
      16A     -0.672023    17A     -0.638739    18A     -0.634314  
      19A     -0.598213    20A     -0.578814    21A     -0.554430  
      22A     -0.524583    23A     -0.515476    24A     -0.502416  
      25A     -0.492691    26A     -0.422420    27A     -0.411288  
      28A     -0.372650  

    Virtual:                                                              

      29A      0.043486    30A      0.055510    31A      0.058067  
      32A      0.063241    33A      0.075784    34A      0.081495  
      35A      0.089522    36A      0.095224    37A      0.101238  
      38A      0.108412    39A      0.112867    40A      0.116740  
      41A      0.122383    42A      0.127093    43A      0.144149  
      44A      0.153908    45A      0.166897    46A      0.171491  
      47A      0.178581    48A      0.182449    49A      0.191156  
      50A      0.200059    51A      0.205513    52A      0.210796  
      53A      0.220104    54A      0.237205    55A      0.241218  
      56A      0.262697    57A      0.274288    58A      0.279794  
      59A      0.288672    60A      0.295549    61A      0.300125  
      62A      0.301957    63A      0.308343    64A      0.312397  
      65A      0.319687    66A      0.325464    67A      0.328787  
      68A      0.339178    69A      0.344082    70A      0.349330  
      71A      0.351905    72A      0.358743    73A      0.361171  
      74A      0.376231    75A      0.380617    76A      0.396228  
      77A      0.410853    78A      0.419806    79A      0.424671  
      80A      0.428161    81A      0.437150    82A      0.443026  
      83A      0.450712    84A      0.469116    85A      0.478890  
      86A      0.482454    87A      0.492424    88A      0.498243  
      89A      0.509432    90A      0.519233    91A      0.529572  
      92A      0.533296    93A      0.545336    94A      0.558445  
      95A      0.565234    96A      0.580508    97A      0.594890  
      98A      0.606875    99A      0.614657   100A      0.625026  
     101A      0.632535   102A      0.637397   103A      0.643867  
     104A      0.666807   105A      0.671608   106A      0.695169  
     107A      0.713305   108A      0.729290   109A      0.738599  
     110A      0.753154   111A      0.766806   112A      0.768094  
     113A      0.774560   114A      0.777349   115A      0.786970  
     116A      0.791749   117A      0.800842   118A      0.806383  
     119A      0.816726   120A      0.818668   121A      0.842267  
     122A      0.850592   123A      0.869830   124A      0.871901  
     125A      0.884677   126A      0.887291   127A      0.907801  
     128A      0.913892   129A      0.921067   130A      0.927098  
     131A      0.941619   132A      0.961698   133A      0.971581  
     134A      0.981691   135A      1.006144   136A      1.023225  
     137A      1.036012   138A      1.044968   139A      1.062311  
     140A      1.071615   141A      1.075422   142A      1.092251  
     143A      1.102090   144A      1.118633   145A      1.132900  
     146A      1.139706   147A      1.152416   148A      1.162368  
     149A      1.174351   150A      1.199089   151A      1.206724  
     152A      1.234845   153A      1.247471   154A      1.273970  
     155A      1.284417   156A      1.291545   157A      1.299132  
     158A      1.324911   159A      1.332460   160A      1.347196  
     161A      1.361218   162A      1.364878   163A      1.367076  
     164A      1.373941   165A      1.388298   166A      1.400148  
     167A      1.412349   168A      1.427762   169A      1.439863  
     170A      1.445576   171A      1.453089   172A      1.473317  
     173A      1.481072   174A      1.506055   175A      1.509429  
     176A      1.523777   177A      1.539564   178A      1.558808  
     179A      1.569290   180A      1.586692   181A      1.607560  
     182A      1.619512   183A      1.621132   184A      1.651694  
     185A      1.655064   186A      1.676791   187A      1.677366  
     188A      1.688578   189A      1.695734   190A      1.730312  
     191A      1.754662   192A      1.766004   193A      1.794489  
     194A      1.800956   195A      1.836949   196A      1.866109  
     197A      1.886829   198A      1.900052   199A      1.916506  
     200A      1.942863   201A      1.959101   202A      1.965599  
     203A      1.979783   204A      2.001229   205A      2.038507  
     206A      2.070019   207A      2.110044   208A      2.148139  
     209A      2.236375   210A      2.296473   211A      2.354598  
     212A      2.451570   213A      2.490005   214A      2.527895  
     215A      2.647218   216A      2.663548   217A      2.725822  
     218A      2.732914   219A      2.757482   220A      2.775563  
     221A      2.778619   222A      2.815526   223A      2.839415  
     224A      2.866161   225A      2.876082   226A      2.889935  
     227A      2.896483   228A      2.934568   229A      2.951243  
     230A      2.959519   231A      2.971280   232A      2.984780  
     233A      2.996384   234A      3.021697   235A      3.050680  
     236A      3.081631   237A      3.110816   238A      3.120389  
     239A      3.123866   240A      3.127218   241A      3.138422  
     242A      3.150998   243A      3.159673   244A      3.191048  
     245A      3.203269   246A      3.225153   247A      3.244149  
     248A      3.253094   249A      3.258569   250A      3.264224  
     251A      3.284718   252A      3.330884   253A      3.336042  
     254A      3.352594   255A      3.375379   256A      3.386553  
     257A      3.396686   258A      3.427535   259A      3.432966  
     260A      3.436418   261A      3.453462   262A      3.456016  
     263A      3.458670   264A      3.471836   265A      3.476544  
     266A      3.495961   267A      3.503887   268A      3.513085  
     269A      3.515472   270A      3.521409   271A      3.529279  
     272A      3.551459   273A      3.556160   274A      3.570126  
     275A      3.581202   276A      3.591116   277A      3.603583  
     278A      3.627169   279A      3.647387   280A      3.652228  
     281A      3.674703   282A      3.683136   283A      3.710019  
     284A      3.712522   285A      3.739880   286A      3.769807  
     287A      3.785416   288A      3.797846   289A      3.817222  
     290A      3.845088   291A      3.861195   292A      3.884013  
     293A      3.896181   294A      3.911179   295A      3.923236  
     296A      3.958760   297A      3.986186   298A      4.012350  
     299A      4.023833   300A      4.026343   301A      4.032693  
     302A      4.043189   303A      4.046298   304A      4.058408  
     305A      4.059772   306A      4.073077   307A      4.117088  
     308A      4.178355   309A      4.193621   310A      4.205715  
     311A      4.241608   312A      4.249689   313A      4.260760  
     314A      4.272550   315A      4.286669   316A      4.296819  
     317A      4.301494   318A      4.310745   319A      4.324136  
     320A      4.329751   321A      4.353102   322A      4.370451  
     323A      4.372089   324A      4.388853   325A      4.402374  
     326A      4.411811   327A      4.429978   328A      4.443384  
     329A      4.445475   330A      4.466488   331A      4.468973  
     332A      4.485187   333A      4.497794   334A      4.505899  
     335A      4.549520   336A      4.578342   337A      4.594208  
     338A      4.626664   339A      4.645796   340A      4.660505  
     341A      4.673772   342A      4.681986   343A      4.704446  
     344A      4.731877   345A      4.749440   346A      4.792290  
     347A      4.809330   348A      4.812850   349A      4.865218  
     350A      4.877443   351A      4.883367   352A      4.901864  
     353A      4.947928   354A      4.955475   355A      4.983289  
     356A      5.014065   357A      5.028450   358A      5.098802  
     359A      5.142895   360A      5.166094   361A      5.183677  
     362A      5.211344   363A      5.228729   364A      5.255809  
     365A      5.263285   366A      5.271706   367A      5.289012  
     368A      5.304192   369A      5.328393   370A      5.354408  
     371A      5.374807   372A      5.386614   373A      5.427920  
     374A      5.437923   375A      5.444604   376A      5.461540  
     377A      5.470630   378A      5.508860   379A      5.520460  
     380A      5.582278   381A      5.632753   382A      5.660041  
     383A      5.686101   384A      5.709282   385A      5.738635  
     386A      5.753045   387A      5.772950   388A      5.796648  
     389A      5.800993   390A      5.852535   391A      5.877285  
     392A      5.894828   393A      5.933300   394A      6.001467  
     395A      6.028599   396A      6.054855   397A      6.081058  
     398A      6.104995   399A      6.209197   400A      6.232957  
     401A      6.297496   402A      6.337873   403A      6.432110  
     404A      6.490199   405A      6.501430   406A      6.528180  
     407A      6.570932   408A      6.586214   409A      6.705854  
     410A      6.798315   411A      6.821645   412A      6.858045  
     413A      7.204607   414A      7.308396   415A      7.364003  
     416A      7.470315   417A      7.478796   418A      7.498172  
     419A      7.764155   420A      7.812612   421A     12.099500  
     422A     12.756686   423A     13.957771   424A     14.117641  
     425A     14.595835   426A     15.475055   427A     15.626396  

    Final Occupation by Irrep:
              A 
    DOCC [    28 ]

  @DF-RHF Final Energy:  -325.17534891878535

   => Energetics <=

    Nuclear Repulsion Energy =            291.7284304836707634
    One-Electron Energy =               -1019.6005367817919023
    Two-Electron Energy =                 402.6967573793357928
    Total Energy =                       -325.1753489187853461

Computation Completed


Properties will be evaluated at   0.000000,   0.000000,   0.000000 [a0]

Properties computed using the SCF density matrix

  Nuclear Dipole Moment: [e a0]
     X:    -1.2273      Y:     1.4139      Z:    -0.2638

  Electronic Dipole Moment: [e a0]
     X:     0.8238      Y:     0.0299      Z:     0.2323

  Dipole Moment: [e a0]
     X:    -0.4035      Y:     1.4439      Z:    -0.0315     Total:     1.4995

  Dipole Moment: [D]
     X:    -1.0256      Y:     3.6700      Z:    -0.0801     Total:     3.8114


*** tstop() called on r282 at Sat Sep 11 02:14:24 2021
Module time:
	user time   =      35.74 seconds =       0.60 minutes
	system time =       0.89 seconds =       0.01 minutes
	total time  =         37 seconds =       0.62 minutes
Total time:
	user time   =      35.74 seconds =       0.60 minutes
	system time =       0.89 seconds =       0.01 minutes
	total time  =         37 seconds =       0.62 minutes

  //>>>>>>>>>>>>>>>>>>>>>>>>>>>>>>>>>>>//
  //            Monomer A HF           //
  //<<<<<<<<<<<<<<<<<<<<<<<<<<<<<<<<<<<//


*** tstart() called on r282
*** at Sat Sep 11 02:14:24 2021

   => Loading Basis Set <=

    Name: JUN-CC-PVTZ
    Role: ORBITAL
    Keyword: BASIS
    atoms 1-2, 7, 13, 16          entry C          line   217 file /home/r08543048/miniconda3/share/psi4/basis/jun-cc-pvtz.gbs 
    atoms 3                       entry O          line   305 file /home/r08543048/miniconda3/share/psi4/basis/jun-cc-pvtz.gbs 
    atoms 4                       entry N          line   261 file /home/r08543048/miniconda3/share/psi4/basis/jun-cc-pvtz.gbs 
    atoms 5-6, 8-12, 14-15, 17-18 entry H          line    36 file /home/r08543048/miniconda3/share/psi4/basis/jun-cc-pvtz.gbs 


         ---------------------------------------------------------
                                   SCF
               by Justin Turney, Rob Parrish, Andy Simmonett
                          and Daniel G. A. Smith
                              RHF Reference
                        1 Threads,  20980 MiB Core
         ---------------------------------------------------------

  ==> Geometry <==

    Molecular point group: c1
    Full point group: C1

    Geometry (in Angstrom), charge = 0, multiplicity = 1:

       Center              X                  Y                   Z               Mass       
    ------------   -----------------  -----------------  -----------------  -----------------
         C           -2.178798581884     0.518820087992     0.162502835650    12.000000000000
         C           -0.694277581884     0.235649087992     0.035337835650    12.000000000000
         O           -0.224175581884    -0.893004912008     0.119959835650    15.994914619570
         N            0.087491418116     1.332356087992    -0.168240164350    14.003074004430
         H            1.089518418116     1.217729087992    -0.161323164350     1.007825032230
         H           -0.304761581884     2.255413087992    -0.177395164350     1.007825032230
         C           -3.021262581884    -0.710056912008    -0.137883164350    12.000000000000
         H           -2.730932581884    -1.533605912008     0.509580835650     1.007825032230
         H           -4.077933581884    -0.496143912008     0.013826835650     1.007825032230
         H           -2.878277581884    -1.033296912008    -1.167550164350     1.007825032230
         H           -2.351355581884     0.856521087992     1.187839835650     1.007825032230
         H           -2.447142581884     1.351384087992    -0.490605164350     1.007825032230
      Gh(C)           3.098751418116    -0.337961912008    -0.663945164350    12.000000000000
      Gh(H)           3.929612418116    -0.000490912008    -1.268662164350     1.007825032230
      Gh(H)           2.260663418116    -0.805460912008    -1.163209164350     1.007825032230
      Gh(C)           3.102129418116    -0.198313912008     0.664147835650    12.000000000000
      Gh(H)           2.266887418116    -0.552047912008     1.253690835650     1.007825032230
      Gh(H)           3.935970418116     0.256948087992     1.181227835650     1.007825032230

  Running in c1 symmetry.

  Rotational constants: A =      0.19970  B =      0.03292  C =      0.03041 [cm^-1]
  Rotational constants: A =   5986.82023  B =    986.99781  C =    911.79356 [MHz]
  Nuclear repulsion =  179.112701998377190

  Charge       = 0
  Multiplicity = 1
  Electrons    = 40
  Nalpha       = 20
  Nbeta        = 20

  ==> Algorithm <==

  SCF Algorithm Type is DF.
  DIIS enabled.
  MOM disabled.
  Fractional occupation disabled.
  Guess Type is SAD.
  Energy threshold   = 1.00e-08
  Density threshold  = 1.00e-08
  Integral threshold = 0.00e+00

  ==> Primary Basis <==

  Basis Set: JUN-CC-PVTZ
    Blend: JUN-CC-PVTZ
    Number of shells: 157
    Number of basis function: 427
    Number of Cartesian functions: 480
    Spherical Harmonics?: true
    Max angular momentum: 3

   => Loading Basis Set <=

    Name: (JUN-CC-PVTZ AUX)
    Role: JKFIT
    Keyword: DF_BASIS_SCF
    atoms 1-2, 7, 13, 16          entry C          line   152 file /home/r08543048/miniconda3/share/psi4/basis/jun-cc-pvtz-jkfit.gbs 
    atoms 3                       entry O          line   272 file /home/r08543048/miniconda3/share/psi4/basis/jun-cc-pvtz-jkfit.gbs 
    atoms 4                       entry N          line   212 file /home/r08543048/miniconda3/share/psi4/basis/jun-cc-pvtz-jkfit.gbs 
    atoms 5-6, 8-12, 14-15, 17-18 entry H          line    70 file /home/r08543048/miniconda3/share/psi4/basis/jun-cc-pvtz-jkfit.gbs 

  ==> Pre-Iterations <==

   -------------------------------------------------------
    Irrep   Nso     Nmo     Nalpha   Nbeta   Ndocc  Nsocc
   -------------------------------------------------------
     A        427     427       0       0       0       0
   -------------------------------------------------------
    Total     427     427      20      20      20       0
   -------------------------------------------------------

  ==> Integral Setup <==

  ==> DiskDFJK: Density-Fitted J/K Matrices <==

    J tasked:                  Yes
    K tasked:                  Yes
    wK tasked:                  No
    OpenMP threads:              1
    Integrals threads:           1
    Memory [MiB]:            15735
    Algorithm:                Core
    Integral Cache:           LOAD
    Schwarz Cutoff:          1E-12
    Fitting Condition:       1E-10

   => Auxiliary Basis Set <=

  Basis Set: (JUN-CC-PVTZ AUX)
    Blend: JUN-CC-PVTZ-JKFIT
    Number of shells: 313
    Number of basis function: 995
    Number of Cartesian functions: 1197
    Spherical Harmonics?: true
    Max angular momentum: 4

  Minimum eigenvalue in the overlap matrix is 4.1863975048E-05.
  Using Symmetric Orthogonalization.

  SCF Guess: Superposition of Atomic Densities via on-the-fly atomic UHF.

  ==> Iterations <==

                           Total Energy        Delta E     RMS |[F,P]|

   @DF-RHF iter SAD:  -246.29995073244220   -2.46300e+02   0.00000e+00 
   @DF-RHF iter   1:  -246.89427435872614   -5.94324e-01   1.53342e-03 DIIS
   @DF-RHF iter   2:  -247.05598913377233   -1.61715e-01   8.81779e-04 DIIS
   @DF-RHF iter   3:  -247.10627260743971   -5.02835e-02   1.71826e-04 DIIS
   @DF-RHF iter   4:  -247.10927204255040   -2.99944e-03   7.55304e-05 DIIS
   @DF-RHF iter   5:  -247.10991229223694   -6.40250e-04   1.19979e-05 DIIS
   @DF-RHF iter   6:  -247.10994973597508   -3.74437e-05   4.89378e-06 DIIS
   @DF-RHF iter   7:  -247.10995459757146   -4.86160e-06   2.13823e-06 DIIS
   @DF-RHF iter   8:  -247.10995570829311   -1.11072e-06   8.20655e-07 DIIS
   @DF-RHF iter   9:  -247.10995590004194   -1.91749e-07   1.80900e-07 DIIS
   @DF-RHF iter  10:  -247.10995590984487   -9.80293e-09   4.27052e-08 DIIS
   @DF-RHF iter  11:  -247.10995591021330   -3.68431e-10   1.23532e-08 DIIS
   @DF-RHF iter  12:  -247.10995591024943   -3.61240e-11   3.67438e-09 DIIS
  Energy and wave function converged.


  ==> Post-Iterations <==

    Orbital Energies [Eh]
    ---------------------

    Doubly Occupied:                                                      

       1A    -20.516392     2A    -15.585636     3A    -11.350058  
       4A    -11.241747     5A    -11.215224     6A     -1.374787  
       7A     -1.211956     8A     -1.052409     9A     -0.893727  
      10A     -0.783267    11A     -0.721557    12A     -0.672318  
      13A     -0.635335    14A     -0.599154    15A     -0.555270  
      16A     -0.525280    17A     -0.516006    18A     -0.494288  
      19A     -0.422037    20A     -0.414209  

    Virtual:                                                              

      21A      0.037351    22A      0.046511    23A      0.054917  
      24A      0.057860    25A      0.072527    26A      0.078285  
      27A      0.083712    28A      0.097848    29A      0.102461  
      30A      0.109790    31A      0.114022    32A      0.115319  
      33A      0.118714    34A      0.121370    35A      0.139612  
      36A      0.148291    37A      0.154908    38A      0.163416  
      39A      0.171274    40A      0.176972    41A      0.193558  
      42A      0.197544    43A      0.205029    44A      0.211297  
      45A      0.223403    46A      0.241609    47A      0.258724  
      48A      0.260930    49A      0.264526    50A      0.283248  
      51A      0.287136    52A      0.292786    53A      0.299522  
      54A      0.306952    55A      0.311405    56A      0.315277  
      57A      0.323126    58A      0.326315    59A      0.335073  
      60A      0.336088    61A      0.339195    62A      0.340628  
      63A      0.354544    64A      0.364764    65A      0.370523  
      66A      0.378656    67A      0.388302    68A      0.397912  
      69A      0.404788    70A      0.412989    71A      0.421613  
      72A      0.431636    73A      0.440872    74A      0.451523  
      75A      0.453340    76A      0.463746    77A      0.474750  
      78A      0.489636    79A      0.502124    80A      0.503602  
      81A      0.517617    82A      0.526243    83A      0.533016  
      84A      0.545546    85A      0.551345    86A      0.561516  
      87A      0.572488    88A      0.589978    89A      0.597393  
      90A      0.603314    91A      0.607056    92A      0.619310  
      93A      0.631828    94A      0.641260    95A      0.648967  
      96A      0.659420    97A      0.662430    98A      0.665531  
      99A      0.680723   100A      0.700877   101A      0.707295  
     102A      0.717533   103A      0.733474   104A      0.751217  
     105A      0.763251   106A      0.776601   107A      0.783719  
     108A      0.793064   109A      0.794701   110A      0.807630  
     111A      0.809999   112A      0.827066   113A      0.863360  
     114A      0.874360   115A      0.897816   116A      0.899579  
     117A      0.914207   118A      0.919502   119A      0.942863  
     120A      0.949587   121A      0.964282   122A      0.998321  
     123A      1.016553   124A      1.031340   125A      1.041777  
     126A      1.051392   127A      1.069000   128A      1.080657  
     129A      1.089155   130A      1.110352   131A      1.126445  
     132A      1.127954   133A      1.133083   134A      1.146147  
     135A      1.157855   136A      1.173988   137A      1.185708  
     138A      1.190009   139A      1.225248   140A      1.235996  
     141A      1.246607   142A      1.268170   143A      1.287184  
     144A      1.299701   145A      1.304595   146A      1.308691  
     147A      1.317012   148A      1.328723   149A      1.348851  
     150A      1.357408   151A      1.363684   152A      1.368113  
     153A      1.371898   154A      1.382593   155A      1.389344  
     156A      1.405194   157A      1.409498   158A      1.424823  
     159A      1.426974   160A      1.439609   161A      1.446323  
     162A      1.461175   163A      1.472561   164A      1.475568  
     165A      1.495914   166A      1.510241   167A      1.516174  
     168A      1.525768   169A      1.539967   170A      1.552262  
     171A      1.568014   172A      1.582263   173A      1.595719  
     174A      1.612060   175A      1.617166   176A      1.636209  
     177A      1.644494   178A      1.657008   179A      1.659290  
     180A      1.691645   181A      1.711992   182A      1.752462  
     183A      1.776632   184A      1.790601   185A      1.811197  
     186A      1.824421   187A      1.835194   188A      1.838440  
     189A      1.848795   190A      1.878201   191A      1.905554  
     192A      1.915307   193A      1.944439   194A      1.950583  
     195A      1.959591   196A      1.978347   197A      2.045964  
     198A      2.069476   199A      2.092010   200A      2.130094  
     201A      2.187871   202A      2.256706   203A      2.260222  
     204A      2.304195   205A      2.328906   206A      2.378437  
     207A      2.403251   208A      2.459320   209A      2.510623  
     210A      2.598219   211A      2.625785   212A      2.672628  
     213A      2.734769   214A      2.762250   215A      2.798548  
     216A      2.834476   217A      2.841415   218A      2.891961  
     219A      2.894222   220A      2.935192   221A      2.970422  
     222A      2.988388   223A      3.007130   224A      3.047864  
     225A      3.111491   226A      3.118480   227A      3.139036  
     228A      3.157579   229A      3.186530   230A      3.223757  
     231A      3.252361   232A      3.273943   233A      3.312589  
     234A      3.328031   235A      3.347903   236A      3.361530  
     237A      3.386271   238A      3.391208   239A      3.425673  
     240A      3.426072   241A      3.440573   242A      3.451564  
     243A      3.465073   244A      3.469172   245A      3.493884  
     246A      3.503098   247A      3.512737   248A      3.518966  
     249A      3.538446   250A      3.548889   251A      3.563667  
     252A      3.580373   253A      3.589202   254A      3.600781  
     255A      3.641505   256A      3.654752   257A      3.658900  
     258A      3.673780   259A      3.679714   260A      3.692403  
     261A      3.695530   262A      3.709529   263A      3.733058  
     264A      3.761342   265A      3.771859   266A      3.783665  
     267A      3.789184   268A      3.814848   269A      3.836287  
     270A      3.860225   271A      3.879721   272A      3.906768  
     273A      3.916469   274A      3.926224   275A      3.939704  
     276A      3.947010   277A      3.982707   278A      3.987148  
     279A      3.995395   280A      4.023607   281A      4.030469  
     282A      4.058179   283A      4.065253   284A      4.076364  
     285A      4.098499   286A      4.130825   287A      4.157888  
     288A      4.173537   289A      4.191418   290A      4.196619  
     291A      4.222027   292A      4.247571   293A      4.254483  
     294A      4.260210   295A      4.266582   296A      4.276090  
     297A      4.296378   298A      4.303443   299A      4.324453  
     300A      4.329167   301A      4.352368   302A      4.373319  
     303A      4.392135   304A      4.407598   305A      4.421586  
     306A      4.438435   307A      4.441800   308A      4.447753  
     309A      4.458221   310A      4.462162   311A      4.470613  
     312A      4.483234   313A      4.492169   314A      4.508759  
     315A      4.532644   316A      4.553992   317A      4.559132  
     318A      4.577795   319A      4.592473   320A      4.610099  
     321A      4.622351   322A      4.635062   323A      4.665269  
     324A      4.678296   325A      4.700538   326A      4.705023  
     327A      4.714752   328A      4.757216   329A      4.778357  
     330A      4.790950   331A      4.800405   332A      4.808525  
     333A      4.813419   334A      4.824501   335A      4.868964  
     336A      4.874973   337A      4.894448   338A      4.911151  
     339A      4.951801   340A      4.968242   341A      4.979431  
     342A      5.009482   343A      5.032753   344A      5.094036  
     345A      5.107781   346A      5.137803   347A      5.157775  
     348A      5.182369   349A      5.207390   350A      5.226184  
     351A      5.260102   352A      5.273010   353A      5.286335  
     354A      5.299945   355A      5.317757   356A      5.327756  
     357A      5.373555   358A      5.380674   359A      5.402943  
     360A      5.409086   361A      5.421464   362A      5.450207  
     363A      5.469720   364A      5.488940   365A      5.510596  
     366A      5.579276   367A      5.635816   368A      5.639385  
     369A      5.663524   370A      5.683242   371A      5.706914  
     372A      5.738232   373A      5.752019   374A      5.772434  
     375A      5.795829   376A      5.850886   377A      5.871936  
     378A      5.886789   379A      5.906526   380A      5.931593  
     381A      5.995396   382A      6.012495   383A      6.022830  
     384A      6.071900   385A      6.094985   386A      6.160039  
     387A      6.164041   388A      6.168725   389A      6.207854  
     390A      6.234913   391A      6.320958   392A      6.337406  
     393A      6.435708   394A      6.480285   395A      6.489979  
     396A      6.501519   397A      6.526923   398A      6.584641  
     399A      6.700308   400A      6.797184   401A      6.820098  
     402A      6.823348   403A      7.201830   404A      7.218836  
     405A      7.272885   406A      7.321450   407A      7.351050  
     408A      7.437486   409A      7.468299   410A      7.497272  
     411A      7.517807   412A      7.569843   413A      7.764921  
     414A      7.813803   415A      7.914262   416A      8.038867  
     417A      8.222524   418A      8.678702   419A      9.587867  
     420A     10.280098   421A     12.110480   422A     13.956455  
     423A     14.106083   424A     14.596068   425A     15.599986  
     426A     41.605735   427A     47.326796  

    Final Occupation by Irrep:
              A 
    DOCC [    20 ]

  @DF-RHF Final Energy:  -247.10995591024943

   => Energetics <=

    Nuclear Repulsion Energy =            179.1127019983771902
    One-Electron Energy =                -690.8840068044311238
    Two-Electron Energy =                 264.6613488958045082
    Total Energy =                       -247.1099559102494254

Computation Completed


Properties will be evaluated at   0.000000,   0.000000,   0.000000 [a0]

Properties computed using the SCF density matrix

  Nuclear Dipole Moment: [e a0]
     X:   -94.9547      Y:     9.5751      Z:    -0.2719

  Electronic Dipole Moment: [e a0]
     X:    94.5446      Y:    -8.0194      Z:     0.2335

  Dipole Moment: [e a0]
     X:    -0.4101      Y:     1.5558      Z:    -0.0384     Total:     1.6094

  Dipole Moment: [D]
     X:    -1.0424      Y:     3.9543      Z:    -0.0977     Total:     4.0906


*** tstop() called on r282 at Sat Sep 11 02:14:46 2021
Module time:
	user time   =      20.85 seconds =       0.35 minutes
	system time =       0.50 seconds =       0.01 minutes
	total time  =         22 seconds =       0.37 minutes
Total time:
	user time   =      56.59 seconds =       0.94 minutes
	system time =       1.39 seconds =       0.02 minutes
	total time  =         59 seconds =       0.98 minutes

  //>>>>>>>>>>>>>>>>>>>>>>>>>>>>>>>>>>>//
  //            Monomer B HF           //
  //<<<<<<<<<<<<<<<<<<<<<<<<<<<<<<<<<<<//


*** tstart() called on r282
*** at Sat Sep 11 02:14:46 2021

   => Loading Basis Set <=

    Name: JUN-CC-PVTZ
    Role: ORBITAL
    Keyword: BASIS
    atoms 1-2, 7, 13, 16          entry C          line   217 file /home/r08543048/miniconda3/share/psi4/basis/jun-cc-pvtz.gbs 
    atoms 3                       entry O          line   305 file /home/r08543048/miniconda3/share/psi4/basis/jun-cc-pvtz.gbs 
    atoms 4                       entry N          line   261 file /home/r08543048/miniconda3/share/psi4/basis/jun-cc-pvtz.gbs 
    atoms 5-6, 8-12, 14-15, 17-18 entry H          line    36 file /home/r08543048/miniconda3/share/psi4/basis/jun-cc-pvtz.gbs 


         ---------------------------------------------------------
                                   SCF
               by Justin Turney, Rob Parrish, Andy Simmonett
                          and Daniel G. A. Smith
                              RHF Reference
                        1 Threads,  20980 MiB Core
         ---------------------------------------------------------

  ==> Geometry <==

    Molecular point group: c1
    Full point group: C1

    Geometry (in Angstrom), charge = 0, multiplicity = 1:

       Center              X                  Y                   Z               Mass       
    ------------   -----------------  -----------------  -----------------  -----------------
      Gh(C)          -2.178798581884     0.518820087992     0.162502835650    12.000000000000
      Gh(C)          -0.694277581884     0.235649087992     0.035337835650    12.000000000000
      Gh(O)          -0.224175581884    -0.893004912008     0.119959835650    15.994914619570
      Gh(N)           0.087491418116     1.332356087992    -0.168240164350    14.003074004430
      Gh(H)           1.089518418116     1.217729087992    -0.161323164350     1.007825032230
      Gh(H)          -0.304761581884     2.255413087992    -0.177395164350     1.007825032230
      Gh(C)          -3.021262581884    -0.710056912008    -0.137883164350    12.000000000000
      Gh(H)          -2.730932581884    -1.533605912008     0.509580835650     1.007825032230
      Gh(H)          -4.077933581884    -0.496143912008     0.013826835650     1.007825032230
      Gh(H)          -2.878277581884    -1.033296912008    -1.167550164350     1.007825032230
      Gh(H)          -2.351355581884     0.856521087992     1.187839835650     1.007825032230
      Gh(H)          -2.447142581884     1.351384087992    -0.490605164350     1.007825032230
         C            3.098751418116    -0.337961912008    -0.663945164350    12.000000000000
         H            3.929612418116    -0.000490912008    -1.268662164350     1.007825032230
         H            2.260663418116    -0.805460912008    -1.163209164350     1.007825032230
         C            3.102129418116    -0.198313912008     0.664147835650    12.000000000000
         H            2.266887418116    -0.552047912008     1.253690835650     1.007825032230
         H            3.935970418116     0.256948087992     1.181227835650     1.007825032230

  Running in c1 symmetry.

  Rotational constants: A =      0.19970  B =      0.03292  C =      0.03041 [cm^-1]
  Rotational constants: A =   5986.82023  B =    986.99781  C =    911.79356 [MHz]
  Nuclear repulsion =   33.382805176135783

  Charge       = 0
  Multiplicity = 1
  Electrons    = 16
  Nalpha       = 8
  Nbeta        = 8

  ==> Algorithm <==

  SCF Algorithm Type is DF.
  DIIS enabled.
  MOM disabled.
  Fractional occupation disabled.
  Guess Type is SAD.
  Energy threshold   = 1.00e-08
  Density threshold  = 1.00e-08
  Integral threshold = 0.00e+00

  ==> Primary Basis <==

  Basis Set: JUN-CC-PVTZ
    Blend: JUN-CC-PVTZ
    Number of shells: 157
    Number of basis function: 427
    Number of Cartesian functions: 480
    Spherical Harmonics?: true
    Max angular momentum: 3

   => Loading Basis Set <=

    Name: (JUN-CC-PVTZ AUX)
    Role: JKFIT
    Keyword: DF_BASIS_SCF
    atoms 1-2, 7, 13, 16          entry C          line   152 file /home/r08543048/miniconda3/share/psi4/basis/jun-cc-pvtz-jkfit.gbs 
    atoms 3                       entry O          line   272 file /home/r08543048/miniconda3/share/psi4/basis/jun-cc-pvtz-jkfit.gbs 
    atoms 4                       entry N          line   212 file /home/r08543048/miniconda3/share/psi4/basis/jun-cc-pvtz-jkfit.gbs 
    atoms 5-6, 8-12, 14-15, 17-18 entry H          line    70 file /home/r08543048/miniconda3/share/psi4/basis/jun-cc-pvtz-jkfit.gbs 

  ==> Pre-Iterations <==

   -------------------------------------------------------
    Irrep   Nso     Nmo     Nalpha   Nbeta   Ndocc  Nsocc
   -------------------------------------------------------
     A        427     427       0       0       0       0
   -------------------------------------------------------
    Total     427     427       8       8       8       0
   -------------------------------------------------------

  ==> Integral Setup <==

  ==> DiskDFJK: Density-Fitted J/K Matrices <==

    J tasked:                  Yes
    K tasked:                  Yes
    wK tasked:                  No
    OpenMP threads:              1
    Integrals threads:           1
    Memory [MiB]:            15735
    Algorithm:                Core
    Integral Cache:           LOAD
    Schwarz Cutoff:          1E-12
    Fitting Condition:       1E-10

   => Auxiliary Basis Set <=

  Basis Set: (JUN-CC-PVTZ AUX)
    Blend: JUN-CC-PVTZ-JKFIT
    Number of shells: 313
    Number of basis function: 995
    Number of Cartesian functions: 1197
    Spherical Harmonics?: true
    Max angular momentum: 4

  Minimum eigenvalue in the overlap matrix is 4.1863975048E-05.
  Using Symmetric Orthogonalization.

  SCF Guess: Superposition of Atomic Densities via on-the-fly atomic UHF.

  ==> Iterations <==

                           Total Energy        Delta E     RMS |[F,P]|

   @DF-RHF iter SAD:   -77.28577630805961   -7.72858e+01   0.00000e+00 
   @DF-RHF iter   1:   -77.98995706562937   -7.04181e-01   8.39834e-04 DIIS
   @DF-RHF iter   2:   -78.05294821598096   -6.29912e-02   3.41045e-04 DIIS
   @DF-RHF iter   3:   -78.06366347528208   -1.07153e-02   5.29869e-05 DIIS
   @DF-RHF iter   4:   -78.06420677792512   -5.43303e-04   5.25724e-06 DIIS
   @DF-RHF iter   5:   -78.06421282310892   -6.04518e-06   5.98968e-07 DIIS
   @DF-RHF iter   6:   -78.06421291342610   -9.03172e-08   7.42464e-08 DIIS
   @DF-RHF iter   7:   -78.06421291465412   -1.22802e-09   1.34084e-08 DIIS
   @DF-RHF iter   8:   -78.06421291470353   -4.94111e-11   3.35204e-09 DIIS
  Energy and wave function converged.


  ==> Post-Iterations <==

    Orbital Energies [Eh]
    ---------------------

    Doubly Occupied:                                                      

       1A    -11.231725     2A    -11.230030     3A     -1.034051  
       4A     -0.792335     5A     -0.645993     6A     -0.585162  
       7A     -0.509815     8A     -0.376412  

    Virtual:                                                              

       9A      0.031449    10A      0.050733    11A      0.053026  
      12A      0.056201    13A      0.069486    14A      0.071231  
      15A      0.085119    16A      0.090525    17A      0.098640  
      18A      0.103658    19A      0.106254    20A      0.109499  
      21A      0.115149    22A      0.117374    23A      0.142747  
      24A      0.150368    25A      0.152696    26A      0.157512  
      27A      0.170819    28A      0.177071    29A      0.179934  
      30A      0.184457    31A      0.186738    32A      0.193348  
      33A      0.207825    34A      0.217702    35A      0.220782  
      36A      0.224444    37A      0.240288    38A      0.252803  
      39A      0.279900    40A      0.293709    41A      0.299865  
      42A      0.306192    43A      0.311469    44A      0.317777  
      45A      0.328282    46A      0.335457    47A      0.339854  
      48A      0.343117    49A      0.346797    50A      0.359236  
      51A      0.372847    52A      0.376248    53A      0.377745  
      54A      0.386205    55A      0.397850    56A      0.403761  
      57A      0.409439    58A      0.419539    59A      0.424032  
      60A      0.431723    61A      0.440224    62A      0.440561  
      63A      0.443393    64A      0.458037    65A      0.463008  
      66A      0.478781    67A      0.479395    68A      0.482792  
      69A      0.498972    70A      0.506010    71A      0.523339  
      72A      0.530140    73A      0.551291    74A      0.552069  
      75A      0.568624    76A      0.572505    77A      0.599125  
      78A      0.603233    79A      0.622171    80A      0.639139  
      81A      0.640949    82A      0.654152    83A      0.664083  
      84A      0.671114    85A      0.687739    86A      0.695514  
      87A      0.696082    88A      0.718588    89A      0.726855  
      90A      0.751090    91A      0.760872    92A      0.761709  
      93A      0.783575    94A      0.790184    95A      0.796409  
      96A      0.811035    97A      0.820278    98A      0.828986  
      99A      0.847431   100A      0.851012   101A      0.861748  
     102A      0.877887   103A      0.904149   104A      0.922272  
     105A      0.932903   106A      0.943552   107A      0.962994  
     108A      0.973588   109A      0.989702   110A      0.991436  
     111A      1.010876   112A      1.032685   113A      1.047063  
     114A      1.052678   115A      1.055506   116A      1.074194  
     117A      1.084669   118A      1.099961   119A      1.105145  
     120A      1.129888   121A      1.143419   122A      1.150934  
     123A      1.161136   124A      1.180446   125A      1.198814  
     126A      1.210479   127A      1.213508   128A      1.236462  
     129A      1.242760   130A      1.253072   131A      1.263709  
     132A      1.275599   133A      1.284095   134A      1.288437  
     135A      1.295866   136A      1.303906   137A      1.330825  
     138A      1.345985   139A      1.352374   140A      1.371984  
     141A      1.376841   142A      1.403523   143A      1.407705  
     144A      1.436310   145A      1.445759   146A      1.470907  
     147A      1.485602   148A      1.491527   149A      1.499361  
     150A      1.512561   151A      1.519868   152A      1.531397  
     153A      1.550729   154A      1.558706   155A      1.566611  
     156A      1.595752   157A      1.600722   158A      1.617071  
     159A      1.619048   160A      1.630871   161A      1.663427  
     162A      1.668869   163A      1.678730   164A      1.684489  
     165A      1.719325   166A      1.733198   167A      1.739148  
     168A      1.764053   169A      1.772609   170A      1.788022  
     171A      1.817344   172A      1.845372   173A      1.874905  
     174A      1.885980   175A      1.919453   176A      1.922343  
     177A      1.956031   178A      1.975932   179A      1.990892  
     180A      1.998739   181A      2.016146   182A      2.032214  
     183A      2.085255   184A      2.123247   185A      2.138715  
     186A      2.175363   187A      2.203619   188A      2.274161  
     189A      2.317067   190A      2.334291   191A      2.380150  
     192A      2.407096   193A      2.421954   194A      2.459935  
     195A      2.517852   196A      2.539978   197A      2.547237  
     198A      2.597381   199A      2.612162   200A      2.643557  
     201A      2.710221   202A      2.724801   203A      2.744588  
     204A      2.752839   205A      2.774363   206A      2.787301  
     207A      2.845094   208A      2.860585   209A      2.889594  
     210A      2.902910   211A      2.933039   212A      2.958852  
     213A      2.975736   214A      3.003531   215A      3.053256  
     216A      3.068282   217A      3.102205   218A      3.131935  
     219A      3.139578   220A      3.145270   221A      3.180446  
     222A      3.238648   223A      3.244922   224A      3.250808  
     225A      3.331301   226A      3.338745   227A      3.356402  
     228A      3.432159   229A      3.457775   230A      3.471199  
     231A      3.478562   232A      3.492952   233A      3.495908  
     234A      3.526021   235A      3.539308   236A      3.548768  
     237A      3.573726   238A      3.581791   239A      3.606991  
     240A      3.610174   241A      3.626084   242A      3.642673  
     243A      3.665227   244A      3.683316   245A      3.696820  
     246A      3.753313   247A      3.760740   248A      3.771891  
     249A      3.804681   250A      3.809861   251A      3.833572  
     252A      3.854198   253A      3.874504   254A      3.879397  
     255A      3.908487   256A      3.916825   257A      3.943912  
     258A      3.991897   259A      4.017510   260A      4.026276  
     261A      4.028671   262A      4.029021   263A      4.037351  
     264A      4.052227   265A      4.070554   266A      4.073133  
     267A      4.091216   268A      4.093195   269A      4.142811  
     270A      4.184793   271A      4.207303   272A      4.215585  
     273A      4.242983   274A      4.278904   275A      4.286462  
     276A      4.299519   277A      4.312384   278A      4.320595  
     279A      4.329741   280A      4.359662   281A      4.375384  
     282A      4.379970   283A      4.397628   284A      4.427194  
     285A      4.452420   286A      4.470896   287A      4.487848  
     288A      4.490802   289A      4.502942   290A      4.540679  
     291A      4.544714   292A      4.598117   293A      4.611900  
     294A      4.628998   295A      4.637903   296A      4.651199  
     297A      4.663076   298A      4.678121   299A      4.701396  
     300A      4.725322   301A      4.735785   302A      4.753307  
     303A      4.762261   304A      4.771055   305A      4.799395  
     306A      4.803370   307A      4.813035   308A      4.817883  
     309A      4.841392   310A      4.850355   311A      4.858229  
     312A      4.866362   313A      4.870480   314A      4.881489  
     315A      4.889814   316A      4.903619   317A      4.914731  
     318A      4.930881   319A      4.935521   320A      4.941469  
     321A      4.954016   322A      4.973012   323A      4.977997  
     324A      4.997338   325A      5.017958   326A      5.025983  
     327A      5.047586   328A      5.057728   329A      5.084372  
     330A      5.093604   331A      5.105617   332A      5.134305  
     333A      5.175022   334A      5.182789   335A      5.220380  
     336A      5.243453   337A      5.258988   338A      5.297352  
     339A      5.313909   340A      5.337264   341A      5.395574  
     342A      5.422884   343A      5.432431   344A      5.453121  
     345A      5.471476   346A      5.512303   347A      5.524456  
     348A      5.597029   349A      5.637148   350A      5.685798  
     351A      5.724205   352A      5.754406   353A      5.792607  
     354A      5.836038   355A      5.859647   356A      5.912091  
     357A      5.978134   358A      6.033786   359A      6.055291  
     360A      6.086792   361A      6.111490   362A      6.198991  
     363A      6.271018   364A      6.283248   365A      6.294644  
     366A      6.320974   367A      6.368568   368A      6.405463  
     369A      6.421876   370A      6.428392   371A      6.464413  
     372A      6.491160   373A      6.508479   374A      6.563998  
     375A      6.567303   376A      6.585288   377A      6.607295  
     378A      6.689285   379A      6.790902   380A      6.850570  
     381A      6.866166   382A      6.961891   383A      6.977126  
     384A      7.101101   385A      7.298750   386A      7.329447  
     387A      7.424405   388A      7.454825   389A      7.515893  
     390A      7.542441   391A      7.623660   392A      7.672547  
     393A      7.726864   394A      7.803521   395A      7.812819  
     396A      7.871793   397A      7.907049   398A      7.978020  
     399A      8.041217   400A      8.266143   401A      8.390695  
     402A      8.434649   403A      8.818855   404A      9.097881  
     405A      9.127740   406A      9.147734   407A      9.456385  
     408A      9.618114   409A      9.841749   410A      9.901152  
     411A      9.942361   412A     10.002430   413A     10.115960  
     414A     10.498110   415A     10.910517   416A     11.423945  
     417A     11.610931   418A     11.627900   419A     12.023199  
     420A     12.789919   421A     13.830854   422A     15.468546  
     423A     42.618917   424A     44.851762   425A     45.670974  
     426A     55.071248   427A     60.955728  

    Final Occupation by Irrep:
              A 
    DOCC [     8 ]

  @DF-RHF Final Energy:   -78.06421291470353

   => Energetics <=

    Nuclear Repulsion Energy =             33.3828051761357827
    One-Electron Energy =                -170.0829883654056971
    Two-Electron Energy =                  58.6359702745663895
    Total Energy =                        -78.0642129147035320

Computation Completed


Properties will be evaluated at   0.000000,   0.000000,   0.000000 [a0]

Properties computed using the SCF density matrix

  Nuclear Dipole Moment: [e a0]
     X:    93.7274      Y:    -8.1612      Z:     0.0081

  Electronic Dipole Moment: [e a0]
     X:   -93.7238      Y:     8.1556      Z:    -0.0075

  Dipole Moment: [e a0]
     X:     0.0037      Y:    -0.0056      Z:     0.0005     Total:     0.0067

  Dipole Moment: [D]
     X:     0.0093      Y:    -0.0143      Z:     0.0013     Total:     0.0171


*** tstop() called on r282 at Sat Sep 11 02:14:59 2021
Module time:
	user time   =      12.86 seconds =       0.21 minutes
	system time =       0.30 seconds =       0.01 minutes
	total time  =         13 seconds =       0.22 minutes
Total time:
	user time   =      69.45 seconds =       1.16 minutes
	system time =       1.69 seconds =       0.03 minutes
	total time  =         72 seconds =       1.20 minutes
  Constructing Basis Sets for SAPT...

   => Loading Basis Set <=

    Name: (JUN-CC-PVTZ AUX)
    Role: RIFIT
    Keyword: DF_BASIS_SAPT
    atoms 1-2, 7, 13, 16          entry C          line   132 file /home/r08543048/miniconda3/share/psi4/basis/jun-cc-pvtz-ri.gbs 
    atoms 3                       entry O          line   244 file /home/r08543048/miniconda3/share/psi4/basis/jun-cc-pvtz-ri.gbs 
    atoms 4                       entry N          line   188 file /home/r08543048/miniconda3/share/psi4/basis/jun-cc-pvtz-ri.gbs 
    atoms 5-6, 8-12, 14-15, 17-18 entry H          line    30 file /home/r08543048/miniconda3/share/psi4/basis/jun-cc-pvtz-ri.gbs 


  //>>>>>>>>>>>>>>>>>>>>>>>>>>>>>>>>>>>//
  //               SAPT0               //
  //<<<<<<<<<<<<<<<<<<<<<<<<<<<<<<<<<<<//


*** tstart() called on r282
*** at Sat Sep 11 02:14:59 2021

        SAPT0  
    Ed Hohenstein
     6 June 2009

      Orbital Information
  --------------------------
    NSO        =       427
    NMO        =       427
    NRI        =      1009
    NOCC A     =        20
    NOCC B     =         8
    FOCC A     =         0
    FOCC B     =         0
    NVIR A     =       407
    NVIR B     =       419

    Elst10,r            =    -0.008147577239 [Eh]
    Exch10              =     0.009503463541 [Eh]
    Exch10 (S^2)        =     0.009450571794 [Eh]

    Iter     Energy [mEh]          dE [mEh]         Residual      Time [s]
       1      -0.73108743       0.731087431       3.974439847             0
       2      -0.91226593       0.181178502       1.491575920             1
       3      -0.92007616       0.007810231       0.620222528             2
       4      -0.91368756      -0.006388608       0.221963248             2
       5      -0.91342957      -0.000257988       0.094288720             3
       6      -0.91404495       0.000615380       0.032834416             3
       7      -0.91410185       0.000056906       0.008046744             4
       8      -0.91404236      -0.000059490       0.001443943             5
       9      -0.91404696       0.000004595       0.000361800             5
      10      -0.91404796       0.000001004       0.000102143             6
      11      -0.91404777      -0.000000190       0.000026962             7
      12      -0.91404769      -0.000000080       0.000007012             7
      13      -0.91404772       0.000000026       0.000002945             8
      14      -0.91404772       0.000000001       0.000001146             9
      15      -0.91404771      -0.000000004       0.000000375             9

    CHF Iterations converged


    Iter     Energy [mEh]          dE [mEh]         Residual      Time [s]
       1      -2.90572572       2.905725719       9.172382144             1
       2      -3.64425011       0.738524387       3.155385589             2
       3      -3.71551113       0.071261025       0.566628561             3
       4      -3.69401150      -0.021499635       0.108527049             3
       5      -3.69451667       0.000505177       0.036710992             4
       6      -3.69515455       0.000637876       0.009068466             4
       7      -3.69510695      -0.000047597       0.003541470             5
       8      -3.69506681      -0.000040146       0.000847416             5
       9      -3.69507539       0.000008584       0.000199094             6
      10      -3.69507513      -0.000000261       0.000050943             6
      11      -3.69507478      -0.000000347       0.000011290             7
      12      -3.69507486       0.000000082       0.000002321             7
      13      -3.69507485      -0.000000011       0.000000579             8

    CHF Iterations converged

    Ind20,r (A<-B)      =    -0.000914047715 [Eh]
    Ind20,r (B<-A)      =    -0.003695074852 [Eh]
    Ind20,r             =    -0.004609122567 [Eh]
    Exch-Ind20,r (A<-B) =     0.000768267720 [Eh]
    Exch-Ind20,r (B<-A) =     0.002361291361 [Eh]
    Exch-Ind20,r        =     0.003129559081 [Eh]
    Disp20              =    -0.006685460136 [Eh]
    Disp20 (SS)         =    -0.003342730068 [Eh]
    Disp20 (OS)         =    -0.003342730068 [Eh]
    Exch-Disp20         =     0.000930435523 [Eh]
    Exch-Disp20 (SS)    =     0.000605687150 [Eh]
    Exch-Disp20 (OS)    =     0.000324748373 [Eh]

    SAPT Results 
  --------------------------------------------------------------------------------------------------------
    Electrostatics                 -8.14757724 [mEh]      -5.11268191 [kcal/mol]     -21.39146109 [kJ/mol]
      Elst10,r                     -8.14757724 [mEh]      -5.11268191 [kcal/mol]     -21.39146109 [kJ/mol]

    Exchange                        9.50346354 [mEh]       5.96351341 [kcal/mol]      24.95134009 [kJ/mol]
      Exch10                        9.50346354 [mEh]       5.96351341 [kcal/mol]      24.95134009 [kJ/mol]
      Exch10(S^2)                   9.45057179 [mEh]       5.93032333 [kcal/mol]      24.81247283 [kJ/mol]

    Induction                      -2.53598013 [mEh]      -1.59135156 [kcal/mol]      -6.65821492 [kJ/mol]
      Ind20,r                      -4.60912257 [mEh]      -2.89226808 [kcal/mol]     -12.10124963 [kJ/mol]
      Exch-Ind20,r                  3.12955908 [mEh]       1.96382797 [kcal/mol]       8.21665624 [kJ/mol]
      delta HF,r (2)               -1.05641665 [mEh]      -0.66291145 [kcal/mol]      -2.77362153 [kJ/mol]

    Dispersion                     -5.75502461 [mEh]      -3.61133247 [kcal/mol]     -15.10981504 [kJ/mol]
      Disp20                       -6.68546014 [mEh]      -4.19518957 [kcal/mol]     -17.55267317 [kJ/mol]
      Exch-Disp20                   0.93043552 [mEh]       0.58385711 [kcal/mol]       2.44285813 [kJ/mol]
      Disp20 (SS)                  -3.34273007 [mEh]      -2.09759479 [kcal/mol]      -8.77633658 [kJ/mol]
      Disp20 (OS)                  -3.34273007 [mEh]      -2.09759479 [kcal/mol]      -8.77633658 [kJ/mol]
      Exch-Disp20 (SS)              0.60568715 [mEh]       0.38007442 [kcal/mol]       1.59023139 [kJ/mol]
      Exch-Disp20 (OS)              0.32474837 [mEh]       0.20378268 [kcal/mol]       0.85262674 [kJ/mol]

  Total HF                         -1.18009383 [mEh]      -0.74052006 [kcal/mol]      -3.09833593 [kJ/mol]
  Total SAPT0                      -6.93511844 [mEh]      -4.35185253 [kcal/mol]     -18.20815097 [kJ/mol]

  Special recipe for scaled SAPT0 (see Manual):
    Electrostatics sSAPT0          -8.14757724 [mEh]      -5.11268191 [kcal/mol]     -21.39146109 [kJ/mol]
    Exchange sSAPT0                 9.50346354 [mEh]       5.96351341 [kcal/mol]      24.95134009 [kJ/mol]
    Induction sSAPT0               -2.48314016 [mEh]      -1.55819398 [kcal/mol]      -6.51948360 [kJ/mol]
    Dispersion sSAPT0              -5.73931499 [mEh]      -3.60147453 [kcal/mol]     -15.06856944 [kJ/mol]
  Total sSAPT0                     -6.86656885 [mEh]      -4.30883701 [kcal/mol]     -18.02817404 [kJ/mol]
  --------------------------------------------------------------------------------------------------------

*** tstop() called on r282 at Sat Sep 11 02:16:07 2021
Module time:
	user time   =      56.84 seconds =       0.95 minutes
	system time =      10.93 seconds =       0.18 minutes
	total time  =         68 seconds =       1.13 minutes
Total time:
	user time   =     126.41 seconds =       2.11 minutes
	system time =      12.62 seconds =       0.21 minutes
	total time  =        140 seconds =       2.33 minutes

    Psi4 stopped on: Saturday, 11 September 2021 02:16AM
    Psi4 wall time for execution: 0:02:19.91

*** Psi4 exiting successfully. Buy a developer a beer!
