
    -----------------------------------------------------------------------
          Psi4: An Open-Source Ab Initio Electronic Structure Package
                               Psi4 1.3.2 release

                         Git: Rev {HEAD} ecbda83 


    R. M. Parrish, L. A. Burns, D. G. A. Smith, A. C. Simmonett,
    A. E. DePrince III, E. G. Hohenstein, U. Bozkaya, A. Yu. Sokolov,
    R. Di Remigio, R. M. Richard, J. F. Gonthier, A. M. James,
    H. R. McAlexander, A. Kumar, M. Saitow, X. Wang, B. P. Pritchard,
    P. Verma, H. F. Schaefer III, K. Patkowski, R. A. King, E. F. Valeev,
    F. A. Evangelista, J. M. Turney, T. D. Crawford, and C. D. Sherrill,
    J. Chem. Theory Comput. 13(7) pp 3185--3197 (2017).
    (doi: 10.1021/acs.jctc.7b00174)


                         Additional Contributions by
    P. Kraus, H. Kruse, M. H. Lechner, M. C. Schieber, R. A. Shaw,
    A. Alenaizan, R. Galvelis, Z. L. Glick, S. Lehtola, and J. P. Misiewicz

    -----------------------------------------------------------------------


    Psi4 started on: Saturday, 11 September 2021 02:42AM

    Process ID: 57532
    Host:       r282
    PSIDATADIR: /home/r08543048/miniconda3/share/psi4
    Memory:     500.0 MiB
    Threads:    1
    
  ==> Input File <==

--------------------------------------------------------------------------
# Any line starting with the # character is a comment line
#! Sample  computation

memory 22 gb

molecule Dimer {
0 1
 C  -2.887819   -0.170702    0.546978
 C  -1.489728   -0.510075    0.066944
 O  -0.975149    0.024168   -0.909179
 N  -0.834460   -1.442676    0.811556
 H   0.138546   -1.628859    0.613610
 H  -1.247280   -1.824069    1.642763
 C  -3.721891    0.486124   -0.540291
 H  -3.858381   -0.189660   -1.382697
 H  -4.702226    0.762775   -0.155803
 H  -3.223817    1.378445   -0.911336
 H  -3.370077   -1.074948    0.923513
 H  -2.776493    0.503026    1.400998
  
  
  
  
  
    
    
 --
0 1
 C   2.265231   -2.121619   -0.485966
 C   2.707250   -0.969322    0.033137
 C   2.316697    0.387521   -0.456874
 C   1.749897    1.270125    0.655973
 C   1.293566    2.620983    0.120862
 H   1.585625   -2.123094   -1.329906
 H   2.586798   -3.076985   -0.093383
 H   3.394281   -1.006209    0.875249
 H   3.195986    0.885464   -0.879187
 H   1.574518    0.290253   -1.251424
 H   0.906016    0.757460    1.122294
 H   2.507713    1.406298    1.432702
 H   2.121722    3.150352   -0.352872
 H   0.508496    2.481765   -0.622652
 H   0.901768    3.255156    0.916086




units angstrom

no_reorient
symmetry c1
}

set globals{
  basis jun-cc-pvtz
}

energy('sapt0')


--------------------------------------------------------------------------

  Memory set to  20.489 GiB by Python driver.

  //>>>>>>>>>>>>>>>>>>>>>>>>>>>>>>>>>>>//
  //              Dimer HF             //
  //<<<<<<<<<<<<<<<<<<<<<<<<<<<<<<<<<<<//


*** tstart() called on r282
*** at Sat Sep 11 02:42:30 2021

   => Loading Basis Set <=

    Name: JUN-CC-PVTZ
    Role: ORBITAL
    Keyword: BASIS
    atoms 1-2, 7, 13-17    entry C          line   217 file /home/r08543048/miniconda3/share/psi4/basis/jun-cc-pvtz.gbs 
    atoms 3                entry O          line   305 file /home/r08543048/miniconda3/share/psi4/basis/jun-cc-pvtz.gbs 
    atoms 4                entry N          line   261 file /home/r08543048/miniconda3/share/psi4/basis/jun-cc-pvtz.gbs 
    atoms 5-6, 8-12, 18-27 entry H          line    36 file /home/r08543048/miniconda3/share/psi4/basis/jun-cc-pvtz.gbs 


         ---------------------------------------------------------
                                   SCF
               by Justin Turney, Rob Parrish, Andy Simmonett
                          and Daniel G. A. Smith
                              RHF Reference
                        1 Threads,  20980 MiB Core
         ---------------------------------------------------------

  ==> Geometry <==

    Molecular point group: c1
    Full point group: C1

    Geometry (in Angstrom), charge = 0, multiplicity = 1:

       Center              X                  Y                   Z               Mass       
    ------------   -----------------  -----------------  -----------------  -----------------
         C           -2.886149926929    -0.143308517280     0.560431463966    12.000000000000
         C           -1.488058926929    -0.482681517280     0.080397463966    12.000000000000
         O           -0.973479926929     0.051561482720    -0.895725536034    15.994914619570
         N           -0.832790926929    -1.415282517280     0.825009463966    14.003074004430
         H            0.140215073071    -1.601465517280     0.627063463966     1.007825032230
         H           -1.245610926929    -1.796675517280     1.656216463966     1.007825032230
         C           -3.720221926929     0.513517482720    -0.526837536034    12.000000000000
         H           -3.856711926929    -0.162266517280    -1.369243536034     1.007825032230
         H           -4.700556926929     0.790168482720    -0.142349536034     1.007825032230
         H           -3.222147926929     1.405838482720    -0.897882536034     1.007825032230
         H           -3.368407926929    -1.047554517280     0.936966463966     1.007825032230
         H           -2.774823926929     0.530419482720     1.414451463966     1.007825032230
         C            2.266900073071    -2.094225517280    -0.472512536034    12.000000000000
         C            2.708919073071    -0.941928517280     0.046590463966    12.000000000000
         C            2.318366073071     0.414914482720    -0.443420536034    12.000000000000
         C            1.751566073071     1.297518482720     0.669426463966    12.000000000000
         C            1.295235073071     2.648376482720     0.134315463966    12.000000000000
         H            1.587294073071    -2.095700517280    -1.316452536034     1.007825032230
         H            2.588467073071    -3.049591517280    -0.079929536034     1.007825032230
         H            3.395950073071    -0.978815517280     0.888702463966     1.007825032230
         H            3.197655073071     0.912857482720    -0.865733536034     1.007825032230
         H            1.576187073071     0.317646482720    -1.237970536034     1.007825032230
         H            0.907685073071     0.784853482720     1.135747463966     1.007825032230
         H            2.509382073071     1.433691482720     1.446155463966     1.007825032230
         H            2.123391073071     3.177745482720    -0.339418536034     1.007825032230
         H            0.510165073071     2.509158482720    -0.609198536034     1.007825032230
         H            0.903437073071     3.282549482720     0.929539463966     1.007825032230

  Running in c1 symmetry.

  Rotational constants: A =      0.05297  B =      0.02211  C =      0.01750 [cm^-1]
  Rotational constants: A =   1587.91530  B =    662.98560  C =    524.60576 [MHz]
  Nuclear repulsion =  539.730852045424513

  Charge       = 0
  Multiplicity = 1
  Electrons    = 80
  Nalpha       = 40
  Nbeta        = 40

  ==> Algorithm <==

  SCF Algorithm Type is DF.
  DIIS enabled.
  MOM disabled.
  Fractional occupation disabled.
  Guess Type is SAD.
  Energy threshold   = 1.00e-08
  Density threshold  = 1.00e-08
  Integral threshold = 0.00e+00

  ==> Primary Basis <==

  Basis Set: JUN-CC-PVTZ
    Blend: JUN-CC-PVTZ
    Number of shells: 232
    Number of basis function: 628
    Number of Cartesian functions: 705
    Spherical Harmonics?: true
    Max angular momentum: 3

   => Loading Basis Set <=

    Name: (JUN-CC-PVTZ AUX)
    Role: JKFIT
    Keyword: DF_BASIS_SCF
    atoms 1-2, 7, 13-17    entry C          line   152 file /home/r08543048/miniconda3/share/psi4/basis/jun-cc-pvtz-jkfit.gbs 
    atoms 3                entry O          line   272 file /home/r08543048/miniconda3/share/psi4/basis/jun-cc-pvtz-jkfit.gbs 
    atoms 4                entry N          line   212 file /home/r08543048/miniconda3/share/psi4/basis/jun-cc-pvtz-jkfit.gbs 
    atoms 5-6, 8-12, 18-27 entry H          line    70 file /home/r08543048/miniconda3/share/psi4/basis/jun-cc-pvtz-jkfit.gbs 

  ==> Pre-Iterations <==

   -------------------------------------------------------
    Irrep   Nso     Nmo     Nalpha   Nbeta   Ndocc  Nsocc
   -------------------------------------------------------
     A        628     628       0       0       0       0
   -------------------------------------------------------
    Total     628     628      40      40      40       0
   -------------------------------------------------------

  ==> Integral Setup <==

  ==> DiskDFJK: Density-Fitted J/K Matrices <==

    J tasked:                  Yes
    K tasked:                  Yes
    wK tasked:                  No
    OpenMP threads:              1
    Integrals threads:           1
    Memory [MiB]:            15735
    Algorithm:                Core
    Integral Cache:           SAVE
    Schwarz Cutoff:          1E-12
    Fitting Condition:       1E-10

   => Auxiliary Basis Set <=

  Basis Set: (JUN-CC-PVTZ AUX)
    Blend: JUN-CC-PVTZ-JKFIT
    Number of shells: 460
    Number of basis function: 1460
    Number of Cartesian functions: 1755
    Spherical Harmonics?: true
    Max angular momentum: 4

  Minimum eigenvalue in the overlap matrix is 2.8000881792E-05.
  Using Symmetric Orthogonalization.

  SCF Guess: Superposition of Atomic Densities via on-the-fly atomic UHF.

  ==> Iterations <==

                           Total Energy        Delta E     RMS |[F,P]|

   @DF-RHF iter SAD:  -440.92735193489540   -4.40927e+02   0.00000e+00 
   @DF-RHF iter   1:  -441.89945129078751   -9.72099e-01   1.38412e-03 DIIS
   @DF-RHF iter   2:  -442.23161895060753   -3.32168e-01   7.16164e-04 DIIS
   @DF-RHF iter   3:  -442.31510233686674   -8.34834e-02   1.56678e-04 DIIS
   @DF-RHF iter   4:  -442.32067146538560   -5.56913e-03   7.18986e-05 DIIS
   @DF-RHF iter   5:  -442.32177596258521   -1.10450e-03   1.04169e-05 DIIS
   @DF-RHF iter   6:  -442.32182465984084   -4.86973e-05   4.39941e-06 DIIS
   @DF-RHF iter   7:  -442.32183138248746   -6.72265e-06   1.58346e-06 DIIS
   @DF-RHF iter   8:  -442.32183281138589   -1.42890e-06   6.66738e-07 DIIS
   @DF-RHF iter   9:  -442.32183307407820   -2.62692e-07   2.10470e-07 DIIS
   @DF-RHF iter  10:  -442.32183310013062   -2.60524e-08   7.04487e-08 DIIS
   @DF-RHF iter  11:  -442.32183310236718   -2.23656e-09   1.85213e-08 DIIS
   @DF-RHF iter  12:  -442.32183310251975   -1.52568e-10   6.12517e-09 DIIS
  Energy and wave function converged.


  ==> Post-Iterations <==

    Orbital Energies [Eh]
    ---------------------

    Doubly Occupied:                                                      

       1A    -20.515244     2A    -15.577596     3A    -11.348650  
       4A    -11.240595     5A    -11.233022     6A    -11.216615  
       7A    -11.214946     8A    -11.209981     9A    -11.209369  
      10A    -11.198215    11A     -1.374664    12A     -1.207199  
      13A     -1.083710    14A     -1.051449    15A     -1.016957  
      16A     -0.914620    17A     -0.892439    18A     -0.802219  
      19A     -0.779958    20A     -0.754395    21A     -0.716345  
      22A     -0.672251    23A     -0.645705    24A     -0.634982  
      25A     -0.611141    26A     -0.598070    27A     -0.586368  
      28A     -0.556999    29A     -0.552562    30A     -0.529027  
      31A     -0.524701    32A     -0.515827    33A     -0.503423  
      34A     -0.493788    35A     -0.471739    36A     -0.465689  
      37A     -0.460441    38A     -0.421512    39A     -0.410692  
      40A     -0.357696  

    Virtual:                                                              

      41A      0.040880    42A      0.051096    43A      0.055382  
      44A      0.056220    45A      0.064552    46A      0.071118  
      47A      0.076709    48A      0.081741    49A      0.085721  
      50A      0.096136    51A      0.098306    52A      0.106866  
      53A      0.108516    54A      0.109220    55A      0.118371  
      56A      0.122976    57A      0.129676    58A      0.136131  
      59A      0.144373    60A      0.145823    61A      0.150329  
      62A      0.159257    63A      0.162738    64A      0.168893  
      65A      0.177811    66A      0.181879    67A      0.185989  
      68A      0.194504    69A      0.200557    70A      0.203444  
      71A      0.204153    72A      0.205850    73A      0.214492  
      74A      0.219198    75A      0.222339    76A      0.228695  
      77A      0.236831    78A      0.249197    79A      0.260880  
      80A      0.273347    81A      0.273404    82A      0.284737  
      83A      0.289828    84A      0.297467    85A      0.300236  
      86A      0.301486    87A      0.307439    88A      0.315909  
      89A      0.322202    90A      0.324236    91A      0.327769  
      92A      0.330172    93A      0.331748    94A      0.340291  
      95A      0.343486    96A      0.347090    97A      0.349533  
      98A      0.355848    99A      0.363367   100A      0.365548  
     101A      0.369717   102A      0.382379   103A      0.382802  
     104A      0.387073   105A      0.397884   106A      0.398919  
     107A      0.403902   108A      0.407491   109A      0.413414  
     110A      0.418656   111A      0.425320   112A      0.432170  
     113A      0.443055   114A      0.444913   115A      0.448806  
     116A      0.452527   117A      0.456584   118A      0.464436  
     119A      0.474554   120A      0.477836   121A      0.486317  
     122A      0.495264   123A      0.497299   124A      0.500710  
     125A      0.512470   126A      0.524050   127A      0.529091  
     128A      0.532665   129A      0.537207   130A      0.544334  
     131A      0.550353   132A      0.554127   133A      0.562827  
     134A      0.569568   135A      0.570390   136A      0.582698  
     137A      0.585487   138A      0.592404   139A      0.603774  
     140A      0.607470   141A      0.615008   142A      0.621740  
     143A      0.626067   144A      0.629482   145A      0.640254  
     146A      0.642083   147A      0.649549   148A      0.662409  
     149A      0.674381   150A      0.683703   151A      0.693047  
     152A      0.700305   153A      0.704450   154A      0.717433  
     155A      0.727989   156A      0.728397   157A      0.740924  
     158A      0.748177   159A      0.756221   160A      0.771575  
     161A      0.776705   162A      0.777798   163A      0.786876  
     164A      0.796455   165A      0.799782   166A      0.807164  
     167A      0.809520   168A      0.817045   169A      0.823257  
     170A      0.833248   171A      0.837288   172A      0.845201  
     173A      0.851626   174A      0.857337   175A      0.866574  
     176A      0.870847   177A      0.879203   178A      0.882108  
     179A      0.889636   180A      0.899223   181A      0.905896  
     182A      0.909073   183A      0.915299   184A      0.920399  
     185A      0.935525   186A      0.937239   187A      0.949181  
     188A      0.951787   189A      0.963656   190A      0.973241  
     191A      0.982918   192A      0.987559   193A      0.991270  
     194A      0.997715   195A      1.021870   196A      1.022404  
     197A      1.036355   198A      1.042680   199A      1.047904  
     200A      1.058253   201A      1.071705   202A      1.089108  
     203A      1.095160   204A      1.105277   205A      1.108761  
     206A      1.124144   207A      1.129835   208A      1.145248  
     209A      1.149936   210A      1.161542   211A      1.180198  
     212A      1.186285   213A      1.187414   214A      1.206205  
     215A      1.210886   216A      1.218758   217A      1.234461  
     218A      1.254443   219A      1.259980   220A      1.265711  
     221A      1.276281   222A      1.287357   223A      1.305859  
     224A      1.313489   225A      1.322967   226A      1.329621  
     227A      1.338357   228A      1.342556   229A      1.354720  
     230A      1.358754   231A      1.370591   232A      1.380863  
     233A      1.387350   234A      1.391635   235A      1.403183  
     236A      1.411164   237A      1.417422   238A      1.424968  
     239A      1.429219   240A      1.442950   241A      1.445126  
     242A      1.453067   243A      1.461415   244A      1.465903  
     245A      1.475465   246A      1.484599   247A      1.495359  
     248A      1.501857   249A      1.507749   250A      1.509857  
     251A      1.525598   252A      1.543785   253A      1.548164  
     254A      1.563678   255A      1.568954   256A      1.575608  
     257A      1.582127   258A      1.592779   259A      1.600190  
     260A      1.607255   261A      1.618466   262A      1.624118  
     263A      1.628889   264A      1.637377   265A      1.642831  
     266A      1.655713   267A      1.665796   268A      1.670159  
     269A      1.674104   270A      1.686421   271A      1.696961  
     272A      1.704379   273A      1.719698   274A      1.733469  
     275A      1.753233   276A      1.762982   277A      1.764580  
     278A      1.773717   279A      1.786029   280A      1.790201  
     281A      1.806293   282A      1.815627   283A      1.824140  
     284A      1.843053   285A      1.858939   286A      1.872354  
     287A      1.882164   288A      1.899598   289A      1.905031  
     290A      1.919997   291A      1.936172   292A      1.950446  
     293A      1.969749   294A      1.976821   295A      1.980367  
     296A      1.989022   297A      1.999683   298A      2.016817  
     299A      2.033006   300A      2.054519   301A      2.090784  
     302A      2.095067   303A      2.124488   304A      2.169505  
     305A      2.197390   306A      2.211010   307A      2.283535  
     308A      2.302670   309A      2.321131   310A      2.444951  
     311A      2.482118   312A      2.523044   313A      2.636434  
     314A      2.695949   315A      2.739543   316A      2.754061  
     317A      2.777378   318A      2.782026   319A      2.798767  
     320A      2.813872   321A      2.842471   322A      2.844903  
     323A      2.851647   324A      2.857253   325A      2.868678  
     326A      2.885860   327A      2.889347   328A      2.903387  
     329A      2.918131   330A      2.928559   331A      2.936766  
     332A      2.953126   333A      2.970388   334A      2.972481  
     335A      2.981547   336A      2.997856   337A      3.005303  
     338A      3.027661   339A      3.039643   340A      3.048396  
     341A      3.060898   342A      3.077609   343A      3.093625  
     344A      3.103253   345A      3.113979   346A      3.119203  
     347A      3.130192   348A      3.137717   349A      3.150662  
     350A      3.155833   351A      3.173586   352A      3.182927  
     353A      3.191872   354A      3.201526   355A      3.204680  
     356A      3.221344   357A      3.232188   358A      3.239990  
     359A      3.245177   360A      3.260562   361A      3.264510  
     362A      3.281018   363A      3.294507   364A      3.303892  
     365A      3.312857   366A      3.325615   367A      3.344345  
     368A      3.353015   369A      3.363040   370A      3.368102  
     371A      3.375321   372A      3.380863   373A      3.390393  
     374A      3.392105   375A      3.409774   376A      3.417846  
     377A      3.421938   378A      3.426432   379A      3.435251  
     380A      3.450038   381A      3.452938   382A      3.461570  
     383A      3.465652   384A      3.475817   385A      3.487593  
     386A      3.490089   387A      3.500735   388A      3.503298  
     389A      3.514703   390A      3.518930   391A      3.532148  
     392A      3.534974   393A      3.543825   394A      3.547309  
     395A      3.557990   396A      3.563564   397A      3.571624  
     398A      3.577966   399A      3.587694   400A      3.600143  
     401A      3.606113   402A      3.609306   403A      3.613177  
     404A      3.623788   405A      3.634387   406A      3.641645  
     407A      3.661206   408A      3.676252   409A      3.680851  
     410A      3.687209   411A      3.692891   412A      3.703820  
     413A      3.713749   414A      3.731043   415A      3.747142  
     416A      3.753510   417A      3.773686   418A      3.783911  
     419A      3.792405   420A      3.800100   421A      3.811649  
     422A      3.820825   423A      3.825813   424A      3.844469  
     425A      3.854348   426A      3.860414   427A      3.863301  
     428A      3.872146   429A      3.889127   430A      3.910007  
     431A      3.921194   432A      3.927148   433A      3.938501  
     434A      3.971489   435A      3.972755   436A      3.982774  
     437A      3.994697   438A      3.996858   439A      4.000250  
     440A      4.027873   441A      4.041081   442A      4.043773  
     443A      4.051981   444A      4.061010   445A      4.086991  
     446A      4.097114   447A      4.109902   448A      4.123619  
     449A      4.165172   450A      4.167262   451A      4.178484  
     452A      4.194853   453A      4.202514   454A      4.227918  
     455A      4.233243   456A      4.238460   457A      4.251626  
     458A      4.256647   459A      4.267747   460A      4.271886  
     461A      4.282195   462A      4.286099   463A      4.293010  
     464A      4.305195   465A      4.317186   466A      4.326730  
     467A      4.330906   468A      4.340448   469A      4.350232  
     470A      4.361587   471A      4.371751   472A      4.381977  
     473A      4.391840   474A      4.400172   475A      4.402885  
     476A      4.407455   477A      4.411205   478A      4.425901  
     479A      4.443320   480A      4.449396   481A      4.458543  
     482A      4.462083   483A      4.467972   484A      4.479080  
     485A      4.482377   486A      4.498795   487A      4.502738  
     488A      4.519978   489A      4.522374   490A      4.533282  
     491A      4.538577   492A      4.545490   493A      4.561626  
     494A      4.575006   495A      4.580884   496A      4.599796  
     497A      4.616948   498A      4.618396   499A      4.631831  
     500A      4.650271   501A      4.668904   502A      4.677428  
     503A      4.690828   504A      4.694930   505A      4.706434  
     506A      4.712377   507A      4.735175   508A      4.749511  
     509A      4.762724   510A      4.770869   511A      4.780767  
     512A      4.787270   513A      4.816367   514A      4.827073  
     515A      4.853350   516A      4.858607   517A      4.876783  
     518A      4.905634   519A      4.920608   520A      4.922584  
     521A      4.936209   522A      4.968923   523A      4.982618  
     524A      5.003385   525A      5.015620   526A      5.035119  
     527A      5.054494   528A      5.059384   529A      5.079527  
     530A      5.143280   531A      5.149780   532A      5.164436  
     533A      5.184069   534A      5.203050   535A      5.207857  
     536A      5.229714   537A      5.234141   538A      5.254068  
     539A      5.266082   540A      5.271154   541A      5.275123  
     542A      5.296059   543A      5.299332   544A      5.305378  
     545A      5.316935   546A      5.318146   547A      5.331747  
     548A      5.353218   549A      5.380507   550A      5.393758  
     551A      5.396669   552A      5.405653   553A      5.440203  
     554A      5.452889   555A      5.465719   556A      5.470638  
     557A      5.475912   558A      5.495208   559A      5.521624  
     560A      5.532021   561A      5.578946   562A      5.598952  
     563A      5.633886   564A      5.645992   565A      5.658170  
     566A      5.669975   567A      5.686973   568A      5.706403  
     569A      5.725099   570A      5.741822   571A      5.754662  
     572A      5.769444   573A      5.778652   574A      5.795018  
     575A      5.802312   576A      5.815733   577A      5.843782  
     578A      5.858991   579A      5.887431   580A      5.888039  
     581A      5.910052   582A      5.943800   583A      5.948504  
     584A      5.956368   585A      5.983151   586A      6.008767  
     587A      6.018569   588A      6.035782   589A      6.049527  
     590A      6.079071   591A      6.110533   592A      6.153451  
     593A      6.210145   594A      6.239475   595A      6.252976  
     596A      6.349999   597A      6.424391   598A      6.494820  
     599A      6.501876   600A      6.509001   601A      6.533842  
     602A      6.535665   603A      6.554535   604A      6.594506  
     605A      6.614423   606A      6.644905   607A      6.711591  
     608A      6.723748   609A      6.819832   610A      6.848523  
     611A      7.238933   612A      7.341606   613A      7.417198  
     614A      7.475270   615A      7.518263   616A      7.559968  
     617A      7.792772   618A      7.833269   619A     12.402890  
     620A     12.527522   621A     13.881905   622A     14.036189  
     623A     14.240965   624A     14.471244   625A     14.631913  
     626A     14.665547   627A     15.353639   628A     15.790120  

    Final Occupation by Irrep:
              A 
    DOCC [    40 ]

  @DF-RHF Final Energy:  -442.32183310251975

   => Energetics <=

    Nuclear Repulsion Energy =            539.7308520454245127
    One-Electron Energy =               -1670.9637706180305941
    Two-Electron Energy =                 688.9110854700863911
    Total Energy =                       -442.3218331025198040

Computation Completed


Properties will be evaluated at   0.000000,   0.000000,   0.000000 [a0]

Properties computed using the SCF density matrix

  Nuclear Dipole Moment: [e a0]
     X:     0.2523      Y:     4.1413      Z:     2.0339

  Electronic Dipole Moment: [e a0]
     X:    -0.7217      Y:    -4.6620      Z:    -0.7989

  Dipole Moment: [e a0]
     X:    -0.4693      Y:    -0.5207      Z:     1.2350     Total:     1.4201

  Dipole Moment: [D]
     X:    -1.1929      Y:    -1.3235      Z:     3.1390     Total:     3.6094


*** tstop() called on r282 at Sat Sep 11 02:45:14 2021
Module time:
	user time   =     160.78 seconds =       2.68 minutes
	system time =       3.72 seconds =       0.06 minutes
	total time  =        164 seconds =       2.73 minutes
Total time:
	user time   =     160.78 seconds =       2.68 minutes
	system time =       3.72 seconds =       0.06 minutes
	total time  =        164 seconds =       2.73 minutes

  //>>>>>>>>>>>>>>>>>>>>>>>>>>>>>>>>>>>//
  //            Monomer A HF           //
  //<<<<<<<<<<<<<<<<<<<<<<<<<<<<<<<<<<<//


*** tstart() called on r282
*** at Sat Sep 11 02:45:14 2021

   => Loading Basis Set <=

    Name: JUN-CC-PVTZ
    Role: ORBITAL
    Keyword: BASIS
    atoms 1-2, 7, 13-17    entry C          line   217 file /home/r08543048/miniconda3/share/psi4/basis/jun-cc-pvtz.gbs 
    atoms 3                entry O          line   305 file /home/r08543048/miniconda3/share/psi4/basis/jun-cc-pvtz.gbs 
    atoms 4                entry N          line   261 file /home/r08543048/miniconda3/share/psi4/basis/jun-cc-pvtz.gbs 
    atoms 5-6, 8-12, 18-27 entry H          line    36 file /home/r08543048/miniconda3/share/psi4/basis/jun-cc-pvtz.gbs 


         ---------------------------------------------------------
                                   SCF
               by Justin Turney, Rob Parrish, Andy Simmonett
                          and Daniel G. A. Smith
                              RHF Reference
                        1 Threads,  20980 MiB Core
         ---------------------------------------------------------

  ==> Geometry <==

    Molecular point group: c1
    Full point group: C1

    Geometry (in Angstrom), charge = 0, multiplicity = 1:

       Center              X                  Y                   Z               Mass       
    ------------   -----------------  -----------------  -----------------  -----------------
         C           -2.886149926929    -0.143308517280     0.560431463966    12.000000000000
         C           -1.488058926929    -0.482681517280     0.080397463966    12.000000000000
         O           -0.973479926929     0.051561482720    -0.895725536034    15.994914619570
         N           -0.832790926929    -1.415282517280     0.825009463966    14.003074004430
         H            0.140215073071    -1.601465517280     0.627063463966     1.007825032230
         H           -1.245610926929    -1.796675517280     1.656216463966     1.007825032230
         C           -3.720221926929     0.513517482720    -0.526837536034    12.000000000000
         H           -3.856711926929    -0.162266517280    -1.369243536034     1.007825032230
         H           -4.700556926929     0.790168482720    -0.142349536034     1.007825032230
         H           -3.222147926929     1.405838482720    -0.897882536034     1.007825032230
         H           -3.368407926929    -1.047554517280     0.936966463966     1.007825032230
         H           -2.774823926929     0.530419482720     1.414451463966     1.007825032230
      Gh(C)           2.266900073071    -2.094225517280    -0.472512536034    12.000000000000
      Gh(C)           2.708919073071    -0.941928517280     0.046590463966    12.000000000000
      Gh(C)           2.318366073071     0.414914482720    -0.443420536034    12.000000000000
      Gh(C)           1.751566073071     1.297518482720     0.669426463966    12.000000000000
      Gh(C)           1.295235073071     2.648376482720     0.134315463966    12.000000000000
      Gh(H)           1.587294073071    -2.095700517280    -1.316452536034     1.007825032230
      Gh(H)           2.588467073071    -3.049591517280    -0.079929536034     1.007825032230
      Gh(H)           3.395950073071    -0.978815517280     0.888702463966     1.007825032230
      Gh(H)           3.197655073071     0.912857482720    -0.865733536034     1.007825032230
      Gh(H)           1.576187073071     0.317646482720    -1.237970536034     1.007825032230
      Gh(H)           0.907685073071     0.784853482720     1.135747463966     1.007825032230
      Gh(H)           2.509382073071     1.433691482720     1.446155463966     1.007825032230
      Gh(H)           2.123391073071     3.177745482720    -0.339418536034     1.007825032230
      Gh(H)           0.510165073071     2.509158482720    -0.609198536034     1.007825032230
      Gh(H)           0.903437073071     3.282549482720     0.929539463966     1.007825032230

  Running in c1 symmetry.

  Rotational constants: A =      0.05297  B =      0.02211  C =      0.01750 [cm^-1]
  Rotational constants: A =   1587.91530  B =    662.98560  C =    524.60576 [MHz]
  Nuclear repulsion =  179.104883656047406

  Charge       = 0
  Multiplicity = 1
  Electrons    = 40
  Nalpha       = 20
  Nbeta        = 20

  ==> Algorithm <==

  SCF Algorithm Type is DF.
  DIIS enabled.
  MOM disabled.
  Fractional occupation disabled.
  Guess Type is SAD.
  Energy threshold   = 1.00e-08
  Density threshold  = 1.00e-08
  Integral threshold = 0.00e+00

  ==> Primary Basis <==

  Basis Set: JUN-CC-PVTZ
    Blend: JUN-CC-PVTZ
    Number of shells: 232
    Number of basis function: 628
    Number of Cartesian functions: 705
    Spherical Harmonics?: true
    Max angular momentum: 3

   => Loading Basis Set <=

    Name: (JUN-CC-PVTZ AUX)
    Role: JKFIT
    Keyword: DF_BASIS_SCF
    atoms 1-2, 7, 13-17    entry C          line   152 file /home/r08543048/miniconda3/share/psi4/basis/jun-cc-pvtz-jkfit.gbs 
    atoms 3                entry O          line   272 file /home/r08543048/miniconda3/share/psi4/basis/jun-cc-pvtz-jkfit.gbs 
    atoms 4                entry N          line   212 file /home/r08543048/miniconda3/share/psi4/basis/jun-cc-pvtz-jkfit.gbs 
    atoms 5-6, 8-12, 18-27 entry H          line    70 file /home/r08543048/miniconda3/share/psi4/basis/jun-cc-pvtz-jkfit.gbs 

  ==> Pre-Iterations <==

   -------------------------------------------------------
    Irrep   Nso     Nmo     Nalpha   Nbeta   Ndocc  Nsocc
   -------------------------------------------------------
     A        628     628       0       0       0       0
   -------------------------------------------------------
    Total     628     628      20      20      20       0
   -------------------------------------------------------

  ==> Integral Setup <==

  ==> DiskDFJK: Density-Fitted J/K Matrices <==

    J tasked:                  Yes
    K tasked:                  Yes
    wK tasked:                  No
    OpenMP threads:              1
    Integrals threads:           1
    Memory [MiB]:            15735
    Algorithm:                Core
    Integral Cache:           LOAD
    Schwarz Cutoff:          1E-12
    Fitting Condition:       1E-10

   => Auxiliary Basis Set <=

  Basis Set: (JUN-CC-PVTZ AUX)
    Blend: JUN-CC-PVTZ-JKFIT
    Number of shells: 460
    Number of basis function: 1460
    Number of Cartesian functions: 1755
    Spherical Harmonics?: true
    Max angular momentum: 4

  Minimum eigenvalue in the overlap matrix is 2.8000881792E-05.
  Using Symmetric Orthogonalization.

  SCF Guess: Superposition of Atomic Densities via on-the-fly atomic UHF.

  ==> Iterations <==

                           Total Energy        Delta E     RMS |[F,P]|

   @DF-RHF iter SAD:  -246.29912290276067   -2.46299e+02   0.00000e+00 
   @DF-RHF iter   1:  -246.89388942786559   -5.94767e-01   1.04319e-03 DIIS
   @DF-RHF iter   2:  -247.05578467653527   -1.61895e-01   6.00617e-04 DIIS
   @DF-RHF iter   3:  -247.10626323400365   -5.04786e-02   1.17070e-04 DIIS
   @DF-RHF iter   4:  -247.10927462832385   -3.01139e-03   5.14480e-05 DIIS
   @DF-RHF iter   5:  -247.10991812488021   -6.43497e-04   8.17589e-06 DIIS
   @DF-RHF iter   6:  -247.10995580236329   -3.76775e-05   3.33490e-06 DIIS
   @DF-RHF iter   7:  -247.10996069329900   -4.89094e-06   1.45777e-06 DIIS
   @DF-RHF iter   8:  -247.10996180791923   -1.11462e-06   5.59635e-07 DIIS
   @DF-RHF iter   9:  -247.10996200085918   -1.92940e-07   1.23150e-07 DIIS
   @DF-RHF iter  10:  -247.10996201071333   -9.85415e-09   2.88174e-08 DIIS
   @DF-RHF iter  11:  -247.10996201108611   -3.72779e-10   8.38633e-09 DIIS
  Energy and wave function converged.


  ==> Post-Iterations <==

    Orbital Energies [Eh]
    ---------------------

    Doubly Occupied:                                                      

       1A    -20.516336     2A    -15.585737     3A    -11.350021  
       4A    -11.241826     5A    -11.215025     6A     -1.374483  
       7A     -1.211915     8A     -1.052317     9A     -0.893721  
      10A     -0.783219    11A     -0.720719    12A     -0.672211  
      13A     -0.635887    14A     -0.598814    15A     -0.554507  
      16A     -0.525332    17A     -0.516122    18A     -0.494175  
      19A     -0.422116    20A     -0.414125  

    Virtual:                                                              

      21A      0.028870    22A      0.042534    23A      0.044753  
      24A      0.052345    25A      0.061430    26A      0.065262  
      27A      0.073403    28A      0.078057    29A      0.082466  
      30A      0.093048    31A      0.100022    32A      0.100631  
      33A      0.106620    34A      0.107899    35A      0.114143  
      36A      0.114804    37A      0.123160    38A      0.133963  
      39A      0.136701    40A      0.138521    41A      0.143551  
      42A      0.149093    43A      0.153657    44A      0.161485  
      45A      0.164029    46A      0.168869    47A      0.174941  
      48A      0.177724    49A      0.182442    50A      0.187855  
      51A      0.197623    52A      0.200886    53A      0.204986  
      54A      0.212797    55A      0.219461    56A      0.222186  
      57A      0.227864    58A      0.248862    59A      0.259104  
      60A      0.264531    61A      0.272952    62A      0.279088  
      63A      0.284825    64A      0.288106    65A      0.301754  
      66A      0.305553    67A      0.310162    68A      0.313386  
      69A      0.318649    70A      0.319611    71A      0.325585  
      72A      0.332174    73A      0.335484    74A      0.341278  
      75A      0.342496    76A      0.346727    77A      0.355413  
      78A      0.357028    79A      0.363557    80A      0.369062  
      81A      0.372848    82A      0.377799    83A      0.391679  
      84A      0.393670    85A      0.400835    86A      0.405194  
      87A      0.406668    88A      0.409611    89A      0.416181  
      90A      0.417781    91A      0.427449    92A      0.432748  
      93A      0.438873    94A      0.443724    95A      0.445019  
      96A      0.459732    97A      0.465051    98A      0.475479  
      99A      0.479293   100A      0.488811   101A      0.490888  
     102A      0.494910   103A      0.507241   104A      0.511688  
     105A      0.527234   106A      0.531685   107A      0.540281  
     108A      0.543526   109A      0.551729   110A      0.557752  
     111A      0.560264   112A      0.565644   113A      0.573489  
     114A      0.577951   115A      0.587782   116A      0.589759  
     117A      0.596948   118A      0.600300   119A      0.607378  
     120A      0.620257   121A      0.627334   122A      0.631219  
     123A      0.633434   124A      0.645720   125A      0.649796  
     126A      0.655846   127A      0.663052   128A      0.663819  
     129A      0.670606   130A      0.676464   131A      0.690673  
     132A      0.696678   133A      0.698016   134A      0.703927  
     135A      0.707426   136A      0.714480   137A      0.728936  
     138A      0.733403   139A      0.741268   140A      0.749111  
     141A      0.751474   142A      0.760686   143A      0.768786  
     144A      0.781392   145A      0.787958   146A      0.789751  
     147A      0.804234   148A      0.812942   149A      0.817359  
     150A      0.823272   151A      0.829498   152A      0.839252  
     153A      0.850384   154A      0.856345   155A      0.867016  
     156A      0.881069   157A      0.893126   158A      0.904359  
     159A      0.922961   160A      0.935014   161A      0.946402  
     162A      0.953040   163A      0.957475   164A      0.974611  
     165A      0.984477   166A      0.997230   167A      1.015276  
     168A      1.045490   169A      1.052399   170A      1.062508  
     171A      1.080709   172A      1.097044   173A      1.106775  
     174A      1.115816   175A      1.128349   176A      1.136014  
     177A      1.140865   178A      1.149827   179A      1.152966  
     180A      1.168387   181A      1.177699   182A      1.181139  
     183A      1.188944   184A      1.203188   185A      1.212163  
     186A      1.220901   187A      1.232864   188A      1.242513  
     189A      1.254685   190A      1.257633   191A      1.263925  
     192A      1.272182   193A      1.284193   194A      1.291150  
     195A      1.298717   196A      1.301419   197A      1.315930  
     198A      1.321495   199A      1.328598   200A      1.336002  
     201A      1.339824   202A      1.347149   203A      1.355060  
     204A      1.363994   205A      1.365041   206A      1.373742  
     207A      1.381201   208A      1.388429   209A      1.398282  
     210A      1.403670   211A      1.406297   212A      1.418472  
     213A      1.421123   214A      1.425628   215A      1.430836  
     216A      1.442716   217A      1.447067   218A      1.460131  
     219A      1.462851   220A      1.465255   221A      1.470865  
     222A      1.476355   223A      1.485149   224A      1.497220  
     225A      1.501832   226A      1.504822   227A      1.520166  
     228A      1.526889   229A      1.544537   230A      1.553190  
     231A      1.556518   232A      1.562093   233A      1.565749  
     234A      1.573381   235A      1.583831   236A      1.593504  
     237A      1.605932   238A      1.610456   239A      1.615332  
     240A      1.626074   241A      1.633423   242A      1.634945  
     243A      1.650104   244A      1.654432   245A      1.663295  
     246A      1.676068   247A      1.683488   248A      1.692934  
     249A      1.699595   250A      1.713811   251A      1.722263  
     252A      1.736293   253A      1.745908   254A      1.752586  
     255A      1.759017   256A      1.779973   257A      1.795603  
     258A      1.809805   259A      1.813925   260A      1.829296  
     261A      1.838591   262A      1.855077   263A      1.867488  
     264A      1.878397   265A      1.888656   266A      1.894312  
     267A      1.906430   268A      1.927330   269A      1.951171  
     270A      1.955059   271A      1.975367   272A      1.980694  
     273A      1.996489   274A      2.004353   275A      2.034397  
     276A      2.041978   277A      2.076066   278A      2.100688  
     279A      2.115251   280A      2.137834   281A      2.151651  
     282A      2.176443   283A      2.188916   284A      2.203758  
     285A      2.241691   286A      2.258028   287A      2.263012  
     288A      2.283065   289A      2.309257   290A      2.317292  
     291A      2.370666   292A      2.380216   293A      2.411350  
     294A      2.439591   295A      2.449746   296A      2.462553  
     297A      2.479248   298A      2.498028   299A      2.516269  
     300A      2.544312   301A      2.564808   302A      2.590215  
     303A      2.621403   304A      2.658159   305A      2.681196  
     306A      2.696200   307A      2.715825   308A      2.780151  
     309A      2.792369   310A      2.817677   311A      2.853900  
     312A      2.892174   313A      2.904663   314A      2.921104  
     315A      2.953689   316A      2.963764   317A      2.987008  
     318A      3.004974   319A      3.041363   320A      3.075122  
     321A      3.118217   322A      3.126658   323A      3.145992  
     324A      3.170781   325A      3.194080   326A      3.247759  
     327A      3.268501   328A      3.296805   329A      3.338442  
     330A      3.352748   331A      3.364140   332A      3.392761  
     333A      3.399286   334A      3.430391   335A      3.443580  
     336A      3.448575   337A      3.452860   338A      3.467706  
     339A      3.475337   340A      3.494449   341A      3.504786  
     342A      3.512757   343A      3.523877   344A      3.525809  
     345A      3.544828   346A      3.552615   347A      3.564512  
     348A      3.576876   349A      3.587062   350A      3.594702  
     351A      3.596208   352A      3.610844   353A      3.617033  
     354A      3.628343   355A      3.644794   356A      3.652249  
     357A      3.662892   358A      3.667383   359A      3.674795  
     360A      3.684840   361A      3.693764   362A      3.702201  
     363A      3.715574   364A      3.731434   365A      3.743159  
     366A      3.755859   367A      3.775912   368A      3.789511  
     369A      3.801317   370A      3.802666   371A      3.819756  
     372A      3.827330   373A      3.840642   374A      3.848583  
     375A      3.858148   376A      3.865644   377A      3.876115  
     378A      3.882870   379A      3.892480   380A      3.902703  
     381A      3.913951   382A      3.917840   383A      3.928780  
     384A      3.931818   385A      3.944099   386A      3.958410  
     387A      3.971757   388A      3.987699   389A      3.988959  
     390A      4.002286   391A      4.029546   392A      4.032274  
     393A      4.054701   394A      4.056973   395A      4.068975  
     396A      4.077343   397A      4.098132   398A      4.119664  
     399A      4.130144   400A      4.140369   401A      4.156397  
     402A      4.178414   403A      4.188782   404A      4.196011  
     405A      4.203634   406A      4.213876   407A      4.222304  
     408A      4.229184   409A      4.235058   410A      4.243601  
     411A      4.262791   412A      4.269237   413A      4.276407  
     414A      4.293562   415A      4.296673   416A      4.306237  
     417A      4.312595   418A      4.331700   419A      4.345216  
     420A      4.358303   421A      4.359342   422A      4.385704  
     423A      4.391593   424A      4.396316   425A      4.411618  
     426A      4.426859   427A      4.430328   428A      4.441999  
     429A      4.447271   430A      4.454723   431A      4.463845  
     432A      4.474536   433A      4.478885   434A      4.487354  
     435A      4.499529   436A      4.503893   437A      4.519873  
     438A      4.529450   439A      4.539534   440A      4.552877  
     441A      4.569040   442A      4.577566   443A      4.600589  
     444A      4.609738   445A      4.613925   446A      4.619721  
     447A      4.629129   448A      4.633888   449A      4.640070  
     450A      4.649357   451A      4.655715   452A      4.662468  
     453A      4.677542   454A      4.683492   455A      4.686680  
     456A      4.703301   457A      4.707549   458A      4.715593  
     459A      4.728826   460A      4.741399   461A      4.743293  
     462A      4.759425   463A      4.763272   464A      4.780216  
     465A      4.798855   466A      4.799837   467A      4.809500  
     468A      4.815270   469A      4.834008   470A      4.840953  
     471A      4.851111   472A      4.860844   473A      4.874949  
     474A      4.882636   475A      4.892915   476A      4.896238  
     477A      4.904289   478A      4.915945   479A      4.921065  
     480A      4.940032   481A      4.948330   482A      4.954992  
     483A      4.961102   484A      4.971306   485A      4.977115  
     486A      4.993584   487A      4.999056   488A      5.007213  
     489A      5.015671   490A      5.034660   491A      5.039061  
     492A      5.059325   493A      5.063520   494A      5.089505  
     495A      5.107616   496A      5.112626   497A      5.147251  
     498A      5.149145   499A      5.167416   500A      5.172629  
     501A      5.189486   502A      5.196506   503A      5.213160  
     504A      5.228208   505A      5.233033   506A      5.257234  
     507A      5.269434   508A      5.274401   509A      5.278628  
     510A      5.302706   511A      5.306054   512A      5.330058  
     513A      5.332012   514A      5.342413   515A      5.362994  
     516A      5.392444   517A      5.396805   518A      5.413533  
     519A      5.436537   520A      5.455351   521A      5.468032  
     522A      5.471682   523A      5.482617   524A      5.503274  
     525A      5.527668   526A      5.572486   527A      5.589390  
     528A      5.609696   529A      5.653859   530A      5.668294  
     531A      5.671431   532A      5.681755   533A      5.697673  
     534A      5.707071   535A      5.721452   536A      5.742604  
     537A      5.747383   538A      5.756735   539A      5.782738  
     540A      5.790868   541A      5.801817   542A      5.851210  
     543A      5.858883   544A      5.887658   545A      5.891066  
     546A      5.908756   547A      5.951641   548A      5.974345  
     549A      6.004731   550A      6.015317   551A      6.020950  
     552A      6.044099   553A      6.067055   554A      6.073998  
     555A      6.079854   556A      6.086936   557A      6.107115  
     558A      6.129470   559A      6.204076   560A      6.213742  
     561A      6.240626   562A      6.264643   563A      6.301523  
     564A      6.342401   565A      6.347930   566A      6.370643  
     567A      6.408255   568A      6.422646   569A      6.467241  
     570A      6.494654   571A      6.497254   572A      6.509685  
     573A      6.531989   574A      6.543717   575A      6.589068  
     576A      6.662773   577A      6.702633   578A      6.717958  
     579A      6.757722   580A      6.806777   581A      6.816844  
     582A      6.831243   583A      6.856214   584A      6.955741  
     585A      7.049332   586A      7.126891   587A      7.239467  
     588A      7.333284   589A      7.342747   590A      7.413703  
     591A      7.416537   592A      7.469310   593A      7.483065  
     594A      7.517264   595A      7.552689   596A      7.566240  
     597A      7.608288   598A      7.662620   599A      7.699508  
     600A      7.718206   601A      7.760110   602A      7.800690  
     603A      7.833909   604A      7.842329   605A      7.897583  
     606A      7.924518   607A      7.976886   608A      8.067477  
     609A      8.170042   610A      8.305360   611A      8.400255  
     612A      8.633115   613A      8.874021   614A      9.464957  
     615A      9.671072   616A      9.799422   617A      9.939565  
     618A     10.218071   619A     12.541698   620A     14.013185  
     621A     14.238146   622A     14.650075   623A     15.749550  
     624A     41.294025   625A     44.221376   626A     45.630646  
     627A     46.028597   628A     47.203950  

    Final Occupation by Irrep:
              A 
    DOCC [    20 ]

  @DF-RHF Final Energy:  -247.10996201108611

   => Energetics <=

    Nuclear Repulsion Energy =            179.1048836560474058
    One-Electron Energy =                -690.8724678077571753
    Two-Electron Energy =                 264.6576221406236868
    Total Energy =                       -247.1099620110861110

Computation Completed


Properties will be evaluated at   0.000000,   0.000000,   0.000000 [a0]

Properties computed using the SCF density matrix

  Nuclear Dipole Moment: [e a0]
     X:  -153.4684      Y:   -22.7728      Z:     2.8694

  Electronic Dipole Moment: [e a0]
     X:   153.0131      Y:    22.0464      Z:    -1.5039

  Dipole Moment: [e a0]
     X:    -0.4553      Y:    -0.7264      Z:     1.3655     Total:     1.6123

  Dipole Moment: [D]
     X:    -1.1573      Y:    -1.8464      Z:     3.4708     Total:     4.0981


*** tstop() called on r282 at Sat Sep 11 02:46:46 2021
Module time:
	user time   =      90.12 seconds =       1.50 minutes
	system time =       1.22 seconds =       0.02 minutes
	total time  =         92 seconds =       1.53 minutes
Total time:
	user time   =     250.90 seconds =       4.18 minutes
	system time =       4.94 seconds =       0.08 minutes
	total time  =        256 seconds =       4.27 minutes

  //>>>>>>>>>>>>>>>>>>>>>>>>>>>>>>>>>>>//
  //            Monomer B HF           //
  //<<<<<<<<<<<<<<<<<<<<<<<<<<<<<<<<<<<//


*** tstart() called on r282
*** at Sat Sep 11 02:46:46 2021

   => Loading Basis Set <=

    Name: JUN-CC-PVTZ
    Role: ORBITAL
    Keyword: BASIS
    atoms 1-2, 7, 13-17    entry C          line   217 file /home/r08543048/miniconda3/share/psi4/basis/jun-cc-pvtz.gbs 
    atoms 3                entry O          line   305 file /home/r08543048/miniconda3/share/psi4/basis/jun-cc-pvtz.gbs 
    atoms 4                entry N          line   261 file /home/r08543048/miniconda3/share/psi4/basis/jun-cc-pvtz.gbs 
    atoms 5-6, 8-12, 18-27 entry H          line    36 file /home/r08543048/miniconda3/share/psi4/basis/jun-cc-pvtz.gbs 


         ---------------------------------------------------------
                                   SCF
               by Justin Turney, Rob Parrish, Andy Simmonett
                          and Daniel G. A. Smith
                              RHF Reference
                        1 Threads,  20980 MiB Core
         ---------------------------------------------------------

  ==> Geometry <==

    Molecular point group: c1
    Full point group: C1

    Geometry (in Angstrom), charge = 0, multiplicity = 1:

       Center              X                  Y                   Z               Mass       
    ------------   -----------------  -----------------  -----------------  -----------------
      Gh(C)          -2.886149926929    -0.143308517280     0.560431463966    12.000000000000
      Gh(C)          -1.488058926929    -0.482681517280     0.080397463966    12.000000000000
      Gh(O)          -0.973479926929     0.051561482720    -0.895725536034    15.994914619570
      Gh(N)          -0.832790926929    -1.415282517280     0.825009463966    14.003074004430
      Gh(H)           0.140215073071    -1.601465517280     0.627063463966     1.007825032230
      Gh(H)          -1.245610926929    -1.796675517280     1.656216463966     1.007825032230
      Gh(C)          -3.720221926929     0.513517482720    -0.526837536034    12.000000000000
      Gh(H)          -3.856711926929    -0.162266517280    -1.369243536034     1.007825032230
      Gh(H)          -4.700556926929     0.790168482720    -0.142349536034     1.007825032230
      Gh(H)          -3.222147926929     1.405838482720    -0.897882536034     1.007825032230
      Gh(H)          -3.368407926929    -1.047554517280     0.936966463966     1.007825032230
      Gh(H)          -2.774823926929     0.530419482720     1.414451463966     1.007825032230
         C            2.266900073071    -2.094225517280    -0.472512536034    12.000000000000
         C            2.708919073071    -0.941928517280     0.046590463966    12.000000000000
         C            2.318366073071     0.414914482720    -0.443420536034    12.000000000000
         C            1.751566073071     1.297518482720     0.669426463966    12.000000000000
         C            1.295235073071     2.648376482720     0.134315463966    12.000000000000
         H            1.587294073071    -2.095700517280    -1.316452536034     1.007825032230
         H            2.588467073071    -3.049591517280    -0.079929536034     1.007825032230
         H            3.395950073071    -0.978815517280     0.888702463966     1.007825032230
         H            3.197655073071     0.912857482720    -0.865733536034     1.007825032230
         H            1.576187073071     0.317646482720    -1.237970536034     1.007825032230
         H            0.907685073071     0.784853482720     1.135747463966     1.007825032230
         H            2.509382073071     1.433691482720     1.446155463966     1.007825032230
         H            2.123391073071     3.177745482720    -0.339418536034     1.007825032230
         H            0.510165073071     2.509158482720    -0.609198536034     1.007825032230
         H            0.903437073071     3.282549482720     0.929539463966     1.007825032230

  Running in c1 symmetry.

  Rotational constants: A =      0.05297  B =      0.02211  C =      0.01750 [cm^-1]
  Rotational constants: A =   1587.91530  B =    662.98560  C =    524.60576 [MHz]
  Nuclear repulsion =  170.420580030401879

  Charge       = 0
  Multiplicity = 1
  Electrons    = 40
  Nalpha       = 20
  Nbeta        = 20

  ==> Algorithm <==

  SCF Algorithm Type is DF.
  DIIS enabled.
  MOM disabled.
  Fractional occupation disabled.
  Guess Type is SAD.
  Energy threshold   = 1.00e-08
  Density threshold  = 1.00e-08
  Integral threshold = 0.00e+00

  ==> Primary Basis <==

  Basis Set: JUN-CC-PVTZ
    Blend: JUN-CC-PVTZ
    Number of shells: 232
    Number of basis function: 628
    Number of Cartesian functions: 705
    Spherical Harmonics?: true
    Max angular momentum: 3

   => Loading Basis Set <=

    Name: (JUN-CC-PVTZ AUX)
    Role: JKFIT
    Keyword: DF_BASIS_SCF
    atoms 1-2, 7, 13-17    entry C          line   152 file /home/r08543048/miniconda3/share/psi4/basis/jun-cc-pvtz-jkfit.gbs 
    atoms 3                entry O          line   272 file /home/r08543048/miniconda3/share/psi4/basis/jun-cc-pvtz-jkfit.gbs 
    atoms 4                entry N          line   212 file /home/r08543048/miniconda3/share/psi4/basis/jun-cc-pvtz-jkfit.gbs 
    atoms 5-6, 8-12, 18-27 entry H          line    70 file /home/r08543048/miniconda3/share/psi4/basis/jun-cc-pvtz-jkfit.gbs 

  ==> Pre-Iterations <==

   -------------------------------------------------------
    Irrep   Nso     Nmo     Nalpha   Nbeta   Ndocc  Nsocc
   -------------------------------------------------------
     A        628     628       0       0       0       0
   -------------------------------------------------------
    Total     628     628      20      20      20       0
   -------------------------------------------------------

  ==> Integral Setup <==

  ==> DiskDFJK: Density-Fitted J/K Matrices <==

    J tasked:                  Yes
    K tasked:                  Yes
    wK tasked:                  No
    OpenMP threads:              1
    Integrals threads:           1
    Memory [MiB]:            15735
    Algorithm:                Core
    Integral Cache:           LOAD
    Schwarz Cutoff:          1E-12
    Fitting Condition:       1E-10

   => Auxiliary Basis Set <=

  Basis Set: (JUN-CC-PVTZ AUX)
    Blend: JUN-CC-PVTZ-JKFIT
    Number of shells: 460
    Number of basis function: 1460
    Number of Cartesian functions: 1755
    Spherical Harmonics?: true
    Max angular momentum: 4

  Minimum eigenvalue in the overlap matrix is 2.8000881792E-05.
  Using Symmetric Orthogonalization.

  SCF Guess: Superposition of Atomic Densities via on-the-fly atomic UHF.

  ==> Iterations <==

                           Total Energy        Delta E     RMS |[F,P]|

   @DF-RHF iter SAD:  -194.45412490733241   -1.94454e+02   0.00000e+00 
   @DF-RHF iter   1:  -194.99816429748046   -5.44039e-01   9.29061e-04 DIIS
   @DF-RHF iter   2:  -195.17525626684682   -1.77092e-01   4.06623e-04 DIIS
   @DF-RHF iter   3:  -195.20950538176444   -3.42491e-02   7.83273e-05 DIIS
   @DF-RHF iter   4:  -195.21184011947170   -2.33474e-03   2.60245e-05 DIIS
   @DF-RHF iter   5:  -195.21200543006637   -1.65311e-04   5.51308e-06 DIIS
   @DF-RHF iter   6:  -195.21201596048184   -1.05304e-05   1.24583e-06 DIIS
   @DF-RHF iter   7:  -195.21201646666222   -5.06180e-07   3.54000e-07 DIIS
   @DF-RHF iter   8:  -195.21201651104101   -4.43788e-08   8.18064e-08 DIIS
   @DF-RHF iter   9:  -195.21201651447979   -3.43877e-09   2.87095e-08 DIIS
   @DF-RHF iter  10:  -195.21201651497847   -4.98687e-10   9.73499e-09 DIIS
  Energy and wave function converged.


  ==> Post-Iterations <==

    Orbital Energies [Eh]
    ---------------------

    Doubly Occupied:                                                      

       1A    -11.231217     2A    -11.222012     3A    -11.219362  
       4A    -11.217395     5A    -11.211581     6A     -1.089637  
       7A     -1.022143     8A     -0.922261     9A     -0.810985  
      10A     -0.757048    11A     -0.650404    12A     -0.618083  
      13A     -0.590507    14A     -0.566231    15A     -0.538457  
      16A     -0.511154    17A     -0.481980    18A     -0.474868  
      19A     -0.469540    20A     -0.355321  

    Virtual:                                                              

      21A      0.030473    22A      0.047708    23A      0.050787  
      24A      0.051009    25A      0.062154    26A      0.068932  
      27A      0.069382    28A      0.076471    29A      0.080635  
      30A      0.091546    31A      0.094096    32A      0.102761  
      33A      0.104086    34A      0.107892    35A      0.110996  
      36A      0.116189    37A      0.118646    38A      0.129586  
      39A      0.134335    40A      0.143545    41A      0.146676  
      42A      0.148998    43A      0.155678    44A      0.158842  
      45A      0.164977    46A      0.172025    47A      0.180438  
      48A      0.183967    49A      0.191387    50A      0.196181  
      51A      0.198257    52A      0.202042    53A      0.206378  
      54A      0.211750    55A      0.213359    56A      0.225400  
      57A      0.231372    58A      0.235041    59A      0.240331  
      60A      0.243841    61A      0.251403    62A      0.271264  
      63A      0.281553    64A      0.287657    65A      0.297588  
      66A      0.305238    67A      0.309402    68A      0.314062  
      69A      0.314408    70A      0.318821    71A      0.322687  
      72A      0.331893    73A      0.334694    74A      0.343887  
      75A      0.345757    76A      0.353987    77A      0.355055  
      78A      0.358051    79A      0.363762    80A      0.365899  
      81A      0.380110    82A      0.384500    83A      0.389164  
      84A      0.393478    85A      0.399666    86A      0.404494  
      87A      0.410724    88A      0.415203    89A      0.417912  
      90A      0.421799    91A      0.426907    92A      0.432833  
      93A      0.437624    94A      0.445235    95A      0.446511  
      96A      0.455519    97A      0.459019    98A      0.461816  
      99A      0.466207   100A      0.479264   101A      0.486721  
     102A      0.488785   103A      0.491845   104A      0.499183  
     105A      0.510960   106A      0.513653   107A      0.526631  
     108A      0.533040   109A      0.534822   110A      0.540925  
     111A      0.546957   112A      0.552150   113A      0.560413  
     114A      0.562559   115A      0.570000   116A      0.578579  
     117A      0.583162   118A      0.591545   119A      0.593670  
     120A      0.596827   121A      0.607109   122A      0.619366  
     123A      0.630882   124A      0.637634   125A      0.643764  
     126A      0.648918   127A      0.655324   128A      0.657237  
     129A      0.675438   130A      0.679475   131A      0.682402  
     132A      0.698302   133A      0.705250   134A      0.716314  
     135A      0.720005   136A      0.726935   137A      0.740989  
     138A      0.747204   139A      0.765009   140A      0.770196  
     141A      0.779365   142A      0.791521   143A      0.798436  
     144A      0.801122   145A      0.810279   146A      0.811478  
     147A      0.828032   148A      0.831508   149A      0.839731  
     150A      0.847199   151A      0.850512   152A      0.861560  
     153A      0.863045   154A      0.876033   155A      0.881378  
     156A      0.893492   157A      0.899974   158A      0.907549  
     159A      0.914944   160A      0.922613   161A      0.928835  
     162A      0.932536   163A      0.937661   164A      0.963822  
     165A      0.965302   166A      0.972851   167A      0.983812  
     168A      0.991595   169A      0.999421   170A      1.016506  
     171A      1.021871   172A      1.044379   173A      1.049096  
     174A      1.053709   175A      1.065289   176A      1.070526  
     177A      1.081021   178A      1.082382   179A      1.105610  
     180A      1.116190   181A      1.123637   182A      1.128803  
     183A      1.146388   184A      1.148558   185A      1.161181  
     186A      1.168265   187A      1.172159   188A      1.189190  
     189A      1.191667   190A      1.204613   191A      1.218880  
     192A      1.228576   193A      1.245181   194A      1.251696  
     195A      1.254501   196A      1.261934   197A      1.265938  
     198A      1.280486   199A      1.286612   200A      1.291031  
     201A      1.300667   202A      1.304417   203A      1.310089  
     204A      1.330429   205A      1.338068   206A      1.347096  
     207A      1.353863   208A      1.358137   209A      1.367384  
     210A      1.371808   211A      1.382771   212A      1.397463  
     213A      1.403414   214A      1.408930   215A      1.436819  
     216A      1.440004   217A      1.442651   218A      1.453219  
     219A      1.457873   220A      1.471447   221A      1.477742  
     222A      1.494481   223A      1.498792   224A      1.504820  
     225A      1.519313   226A      1.529284   227A      1.535672  
     228A      1.541399   229A      1.547505   230A      1.560627  
     231A      1.575199   232A      1.577275   233A      1.586061  
     234A      1.590114   235A      1.595576   236A      1.601844  
     237A      1.613776   238A      1.620007   239A      1.628691  
     240A      1.629674   241A      1.638152   242A      1.651781  
     243A      1.662425   244A      1.670396   245A      1.677284  
     246A      1.688873   247A      1.694349   248A      1.705781  
     249A      1.712792   250A      1.720521   251A      1.732872  
     252A      1.746377   253A      1.760445   254A      1.766762  
     255A      1.787850   256A      1.792494   257A      1.801082  
     258A      1.807905   259A      1.828123   260A      1.831031  
     261A      1.836678   262A      1.858298   263A      1.873611  
     264A      1.883327   265A      1.900734   266A      1.911129  
     267A      1.935583   268A      1.939433   269A      1.946426  
     270A      1.970385   271A      1.971332   272A      1.984083  
     273A      1.999459   274A      2.008936   275A      2.037982  
     276A      2.053566   277A      2.077784   278A      2.087739  
     279A      2.114685   280A      2.133793   281A      2.160323  
     282A      2.167265   283A      2.193369   284A      2.214827  
     285A      2.222914   286A      2.283064   287A      2.305813  
     288A      2.334836   289A      2.351661   290A      2.390424  
     291A      2.418103   292A      2.464753   293A      2.485306  
     294A      2.530120   295A      2.570386   296A      2.598572  
     297A      2.658114   298A      2.709686   299A      2.715036  
     300A      2.746049   301A      2.752308   302A      2.779102  
     303A      2.788709   304A      2.800549   305A      2.827324  
     306A      2.844433   307A      2.850029   308A      2.860593  
     309A      2.869609   310A      2.876910   311A      2.894125  
     312A      2.930874   313A      2.944707   314A      2.948786  
     315A      2.962767   316A      2.975044   317A      2.985564  
     318A      3.018775   319A      3.027683   320A      3.052875  
     321A      3.068020   322A      3.074186   323A      3.095607  
     324A      3.108679   325A      3.114458   326A      3.134749  
     327A      3.141452   328A      3.157023   329A      3.184989  
     330A      3.189271   331A      3.201792   332A      3.210194  
     333A      3.218022   334A      3.242983   335A      3.248282  
     336A      3.270876   337A      3.283191   338A      3.299652  
     339A      3.319627   340A      3.331190   341A      3.350220  
     342A      3.357617   343A      3.372742   344A      3.382151  
     345A      3.397543   346A      3.418037   347A      3.422848  
     348A      3.437980   349A      3.446714   350A      3.469307  
     351A      3.481116   352A      3.493419   353A      3.497984  
     354A      3.514396   355A      3.522419   356A      3.526903  
     357A      3.540474   358A      3.556986   359A      3.562864  
     360A      3.567370   361A      3.573344   362A      3.587489  
     363A      3.595350   364A      3.597463   365A      3.603250  
     366A      3.614641   367A      3.621363   368A      3.629324  
     369A      3.647716   370A      3.656150   371A      3.666319  
     372A      3.677484   373A      3.690470   374A      3.701327  
     375A      3.712203   376A      3.738536   377A      3.753573  
     378A      3.757511   379A      3.769294   380A      3.774767  
     381A      3.792023   382A      3.808009   383A      3.814746  
     384A      3.828514   385A      3.832218   386A      3.843392  
     387A      3.849279   388A      3.854981   389A      3.870939  
     390A      3.877628   391A      3.893919   392A      3.906935  
     393A      3.917426   394A      3.939661   395A      3.948492  
     396A      3.963827   397A      3.968090   398A      3.979842  
     399A      3.991512   400A      4.011591   401A      4.028203  
     402A      4.037469   403A      4.043349   404A      4.061664  
     405A      4.069539   406A      4.078852   407A      4.098912  
     408A      4.100168   409A      4.108890   410A      4.146431  
     411A      4.156461   412A      4.168641   413A      4.179038  
     414A      4.188119   415A      4.212290   416A      4.215305  
     417A      4.223217   418A      4.230787   419A      4.254685  
     420A      4.259809   421A      4.269620   422A      4.281235  
     423A      4.299184   424A      4.309065   425A      4.315440  
     426A      4.334179   427A      4.340436   428A      4.348849  
     429A      4.367431   430A      4.369932   431A      4.388263  
     432A      4.395100   433A      4.405328   434A      4.416509  
     435A      4.425668   436A      4.436326   437A      4.443458  
     438A      4.455067   439A      4.474280   440A      4.475024  
     441A      4.487007   442A      4.498024   443A      4.499585  
     444A      4.507246   445A      4.515803   446A      4.518595  
     447A      4.535170   448A      4.548710   449A      4.554280  
     450A      4.563221   451A      4.589005   452A      4.598564  
     453A      4.618313   454A      4.620393   455A      4.627938  
     456A      4.640468   457A      4.647527   458A      4.673970  
     459A      4.686787   460A      4.690672   461A      4.696734  
     462A      4.706440   463A      4.734709   464A      4.739973  
     465A      4.747467   466A      4.756886   467A      4.765075  
     468A      4.768920   469A      4.781357   470A      4.788527  
     471A      4.802701   472A      4.807548   473A      4.811554  
     474A      4.826346   475A      4.830281   476A      4.850923  
     477A      4.853861   478A      4.860974   479A      4.871610  
     480A      4.877822   481A      4.884975   482A      4.896246  
     483A      4.900030   484A      4.910190   485A      4.918478  
     486A      4.934874   487A      4.949260   488A      4.952465  
     489A      4.972504   490A      4.984693   491A      5.000015  
     492A      5.006127   493A      5.012977   494A      5.026222  
     495A      5.028369   496A      5.038265   497A      5.046342  
     498A      5.065396   499A      5.076499   500A      5.087615  
     501A      5.103251   502A      5.123696   503A      5.148505  
     504A      5.161291   505A      5.164866   506A      5.192825  
     507A      5.199340   508A      5.212530   509A      5.231618  
     510A      5.253457   511A      5.265856   512A      5.274196  
     513A      5.285574   514A      5.297245   515A      5.304284  
     516A      5.308101   517A      5.333656   518A      5.348589  
     519A      5.382124   520A      5.390247   521A      5.413345  
     522A      5.443969   523A      5.448448   524A      5.467556  
     525A      5.482721   526A      5.489396   527A      5.520809  
     528A      5.552145   529A      5.580417   530A      5.604350  
     531A      5.625911   532A      5.643281   533A      5.654380  
     534A      5.683077   535A      5.717429   536A      5.732188  
     537A      5.753497   538A      5.767461   539A      5.786042  
     540A      5.805559   541A      5.825441   542A      5.847416  
     543A      5.859826   544A      5.880345   545A      5.910201  
     546A      5.943477   547A      5.944760   548A      5.960884  
     549A      5.985502   550A      6.004996   551A      6.024210  
     552A      6.053513   553A      6.100748   554A      6.120823  
     555A      6.141243   556A      6.211017   557A      6.236151  
     558A      6.282939   559A      6.304252   560A      6.332707  
     561A      6.373092   562A      6.408728   563A      6.427950  
     564A      6.443938   565A      6.477588   566A      6.492351  
     567A      6.495900   568A      6.523950   569A      6.531566  
     570A      6.545438   571A      6.567077   572A      6.596349  
     573A      6.609291   574A      6.620450   575A      6.643306  
     576A      6.708045   577A      6.742601   578A      6.799436  
     579A      6.868582   580A      6.971279   581A      6.991776  
     582A      7.113281   583A      7.324938   584A      7.338148  
     585A      7.443199   586A      7.469275   587A      7.537499  
     588A      7.544533   589A      7.634419   590A      7.677575  
     591A      7.737846   592A      7.809436   593A      7.831402  
     594A      7.894457   595A      7.934428   596A      7.999537  
     597A      8.059780   598A      8.299308   599A      8.434567  
     600A      8.461531   601A      8.827732   602A      9.126504  
     603A      9.173545   604A      9.190397   605A      9.537681  
     606A      9.647487   607A      9.876067   608A      9.934611  
     609A      9.997059   610A     10.026297   611A     10.161946  
     612A     10.539443   613A     10.961176   614A     11.454469  
     615A     11.658352   616A     11.719020   617A     12.065972  
     618A     12.456165   619A     13.849864   620A     13.907735  
     621A     14.467215   622A     14.633722   623A     15.361751  
     624A     43.373954   625A     45.009463   626A     45.776522  
     627A     55.478174   628A     61.292332  

    Final Occupation by Irrep:
              A 
    DOCC [    20 ]

  @DF-RHF Final Energy:  -195.21201651497847

   => Energetics <=

    Nuclear Repulsion Energy =            170.4205800304018794
    One-Electron Energy =                -599.3448249789651072
    Two-Electron Energy =                 233.7122284335847553
    Total Energy =                       -195.2120165149784725

Computation Completed


Properties will be evaluated at   0.000000,   0.000000,   0.000000 [a0]

Properties computed using the SCF density matrix

  Nuclear Dipole Moment: [e a0]
     X:   153.7208      Y:    26.9141      Z:    -0.8356

  Electronic Dipole Moment: [e a0]
     X:  -153.7164      Y:   -26.7353      Z:     0.8743

  Dipole Moment: [e a0]
     X:     0.0043      Y:     0.1788      Z:     0.0387     Total:     0.1830

  Dipole Moment: [D]
     X:     0.0110      Y:     0.4544      Z:     0.0984     Total:     0.4651


*** tstop() called on r282 at Sat Sep 11 02:48:10 2021
Module time:
	user time   =      83.04 seconds =       1.38 minutes
	system time =       1.16 seconds =       0.02 minutes
	total time  =         84 seconds =       1.40 minutes
Total time:
	user time   =     333.94 seconds =       5.57 minutes
	system time =       6.10 seconds =       0.10 minutes
	total time  =        340 seconds =       5.67 minutes
  Constructing Basis Sets for SAPT...

   => Loading Basis Set <=

    Name: (JUN-CC-PVTZ AUX)
    Role: RIFIT
    Keyword: DF_BASIS_SAPT
    atoms 1-2, 7, 13-17    entry C          line   132 file /home/r08543048/miniconda3/share/psi4/basis/jun-cc-pvtz-ri.gbs 
    atoms 3                entry O          line   244 file /home/r08543048/miniconda3/share/psi4/basis/jun-cc-pvtz-ri.gbs 
    atoms 4                entry N          line   188 file /home/r08543048/miniconda3/share/psi4/basis/jun-cc-pvtz-ri.gbs 
    atoms 5-6, 8-12, 18-27 entry H          line    30 file /home/r08543048/miniconda3/share/psi4/basis/jun-cc-pvtz-ri.gbs 


  //>>>>>>>>>>>>>>>>>>>>>>>>>>>>>>>>>>>//
  //               SAPT0               //
  //<<<<<<<<<<<<<<<<<<<<<<<<<<<<<<<<<<<//


*** tstart() called on r282
*** at Sat Sep 11 02:48:10 2021

        SAPT0  
    Ed Hohenstein
     6 June 2009

      Orbital Information
  --------------------------
    NSO        =       628
    NMO        =       628
    NRI        =      1480
    NOCC A     =        20
    NOCC B     =        20
    FOCC A     =         0
    FOCC B     =         0
    NVIR A     =       608
    NVIR B     =       608

    Elst10,r            =    -0.009859406538 [Eh]
    Exch10              =     0.013694264677 [Eh]
    Exch10 (S^2)        =     0.013637993937 [Eh]

    Iter     Energy [mEh]          dE [mEh]         Residual      Time [s]
       1      -0.98026648       0.980266481       4.557528876             2
       2      -1.21510984       0.234843356       1.531211178             4
       3      -1.22438376       0.009273925       0.601694769             6
       4      -1.21803333      -0.006350428       0.243670567             8
       5      -1.21723699      -0.000796346       0.100743406            10
       6      -1.21791358       0.000676595       0.037695293            12
       7      -1.21806906       0.000155480       0.009818443            14
       8      -1.21798923      -0.000079836       0.002467477            16
       9      -1.21798519      -0.000004034       0.000728214            18
      10      -1.21798974       0.000004543       0.000277044            20
      11      -1.21798964      -0.000000094       0.000112058            22
      12      -1.21798911      -0.000000534       0.000038060            24
      13      -1.21798922       0.000000115       0.000011677            26
      14      -1.21798925       0.000000027       0.000003283            28
      15      -1.21798924      -0.000000008       0.000001041            30
      16      -1.21798924      -0.000000003       0.000000263            32

    CHF Iterations converged


    Iter     Energy [mEh]          dE [mEh]         Residual      Time [s]
       1      -4.13729484       4.137294842      11.367010443             2
       2      -4.99377623       0.856481384       4.816314078             4
       3      -5.19249477       0.198718542       1.334497211             6
       4      -5.17771719      -0.014777575       0.502778586             8
       5      -5.16214010      -0.015577094       0.162655346            10
       6      -5.16384664       0.001706547       0.067924117            12
       7      -5.16534463       0.001497988       0.015951938            14
       8      -5.16506997      -0.000274664       0.004687280            16
       9      -5.16503202      -0.000037950       0.001215100            18
      10      -5.16504540       0.000013379       0.000300999            20
      11      -5.16504659       0.000001192       0.000070101            22
      12      -5.16504578      -0.000000814       0.000017569            24
      13      -5.16504577      -0.000000009       0.000005415            26
      14      -5.16504582       0.000000053       0.000001718            28
      15      -5.16504582      -0.000000006       0.000000493            30

    CHF Iterations converged

    Ind20,r (A<-B)      =    -0.001217989239 [Eh]
    Ind20,r (B<-A)      =    -0.005165045816 [Eh]
    Ind20,r             =    -0.006383035055 [Eh]
    Exch-Ind20,r (A<-B) =     0.001005021138 [Eh]
    Exch-Ind20,r (B<-A) =     0.003184059836 [Eh]
    Exch-Ind20,r        =     0.004189080974 [Eh]
    Disp20              =    -0.011596361954 [Eh]
    Disp20 (SS)         =    -0.005798180977 [Eh]
    Disp20 (OS)         =    -0.005798180977 [Eh]
    Exch-Disp20         =     0.001450857694 [Eh]
    Exch-Disp20 (SS)    =     0.000935962850 [Eh]
    Exch-Disp20 (OS)    =     0.000514894844 [Eh]

    SAPT Results 
  --------------------------------------------------------------------------------------------------------
    Electrostatics                 -9.85940654 [mEh]      -6.18687101 [kcal/mol]     -25.88586830 [kJ/mol]
      Elst10,r                     -9.85940654 [mEh]      -6.18687101 [kcal/mol]     -25.88586830 [kJ/mol]

    Exchange                       13.69426468 [mEh]       8.59328082 [kcal/mol]      35.95428696 [kJ/mol]
      Exch10                       13.69426468 [mEh]       8.59328082 [kcal/mol]      35.95428696 [kJ/mol]
      Exch10(S^2)                  13.63799394 [mEh]       8.55797040 [kcal/mol]      35.80654815 [kJ/mol]

    Induction                      -3.68943459 [mEh]      -2.31515516 [kcal/mol]      -9.68660919 [kJ/mol]
      Ind20,r                      -6.38303506 [mEh]      -4.00541497 [kcal/mol]     -16.75865623 [kJ/mol]
      Exch-Ind20,r                  4.18908097 [mEh]       2.62868800 [kcal/mol]      10.99843058 [kJ/mol]
      delta HF,r (2)               -1.49548051 [mEh]      -0.93842819 [kcal/mol]      -3.92638355 [kJ/mol]

    Dispersion                    -10.14550426 [mEh]      -6.36640004 [kcal/mol]     -26.63701776 [kJ/mol]
      Disp20                      -11.59636195 [mEh]      -7.27682699 [kcal/mol]     -30.44624411 [kJ/mol]
      Exch-Disp20                   1.45085769 [mEh]       0.91042695 [kcal/mol]       3.80922635 [kJ/mol]
      Disp20 (SS)                  -5.79818098 [mEh]      -3.63841349 [kcal/mol]     -15.22312206 [kJ/mol]
      Disp20 (OS)                  -5.79818098 [mEh]      -3.63841349 [kcal/mol]     -15.22312206 [kJ/mol]
      Exch-Disp20 (SS)              0.93596285 [mEh]       0.58732556 [kcal/mol]       2.45737012 [kJ/mol]
      Exch-Disp20 (OS)              0.51489484 [mEh]       0.32310139 [kcal/mol]       1.35185623 [kJ/mol]

  Total HF                          0.14542354 [mEh]       0.09125465 [kcal/mol]       0.38180946 [kJ/mol]
  Total SAPT0                     -10.00008071 [mEh]      -6.27514539 [kcal/mol]     -26.25520830 [kJ/mol]

  Special recipe for scaled SAPT0 (see Manual):
    Electrostatics sSAPT0          -9.85940654 [mEh]      -6.18687101 [kcal/mol]     -25.88586830 [kJ/mol]
    Exchange sSAPT0                13.69426468 [mEh]       8.59328082 [kcal/mol]      35.95428696 [kJ/mol]
    Induction sSAPT0               -3.63736756 [mEh]      -2.28248260 [kcal/mol]      -9.54990722 [kJ/mol]
    Dispersion sSAPT0             -10.12747122 [mEh]      -6.35508414 [kcal/mol]     -26.58967203 [kJ/mol]
  Total sSAPT0                     -9.92998065 [mEh]      -6.23115693 [kcal/mol]     -26.07116059 [kJ/mol]
  --------------------------------------------------------------------------------------------------------

*** tstop() called on r282 at Sat Sep 11 02:52:52 2021
Module time:
	user time   =     247.35 seconds =       4.12 minutes
	system time =      33.78 seconds =       0.56 minutes
	total time  =        282 seconds =       4.70 minutes
Total time:
	user time   =     581.47 seconds =       9.69 minutes
	system time =      39.88 seconds =       0.66 minutes
	total time  =        622 seconds =      10.37 minutes

    Psi4 stopped on: Saturday, 11 September 2021 02:52AM
    Psi4 wall time for execution: 0:10:22.09

*** Psi4 exiting successfully. Buy a developer a beer!
