
    -----------------------------------------------------------------------
          Psi4: An Open-Source Ab Initio Electronic Structure Package
                               Psi4 1.3.2 release

                         Git: Rev {HEAD} ecbda83 


    R. M. Parrish, L. A. Burns, D. G. A. Smith, A. C. Simmonett,
    A. E. DePrince III, E. G. Hohenstein, U. Bozkaya, A. Yu. Sokolov,
    R. Di Remigio, R. M. Richard, J. F. Gonthier, A. M. James,
    H. R. McAlexander, A. Kumar, M. Saitow, X. Wang, B. P. Pritchard,
    P. Verma, H. F. Schaefer III, K. Patkowski, R. A. King, E. F. Valeev,
    F. A. Evangelista, J. M. Turney, T. D. Crawford, and C. D. Sherrill,
    J. Chem. Theory Comput. 13(7) pp 3185--3197 (2017).
    (doi: 10.1021/acs.jctc.7b00174)


                         Additional Contributions by
    P. Kraus, H. Kruse, M. H. Lechner, M. C. Schieber, R. A. Shaw,
    A. Alenaizan, R. Galvelis, Z. L. Glick, S. Lehtola, and J. P. Misiewicz

    -----------------------------------------------------------------------


    Psi4 started on: Saturday, 11 September 2021 02:09AM

    Process ID: 57498
    Host:       r282
    PSIDATADIR: /home/r08543048/miniconda3/share/psi4
    Memory:     500.0 MiB
    Threads:    1
    
  ==> Input File <==

--------------------------------------------------------------------------
# Any line starting with the # character is a comment line
#! Sample  computation

memory 22 gb

molecule Dimer {
0 1
 C  -2.677011   -1.035658   -0.029165
 O  -1.782439   -1.522165    0.644486
 N  -2.670676    0.220443   -0.535443
 H  -3.452775    0.554552   -1.067974
 H  -1.893345    0.839152   -0.347564
 H  -3.587291   -1.594938   -0.292335
 
 
 
 
 
 
  
  
  
  
  
    
    
 --
0 1
 C    0.058293    2.499999    0.020651
 C    0.364711    1.284496    0.490740
 C    1.054017    0.213430   -0.288256
 C    2.377999   -0.200761    0.356111
 C    3.052202   -1.329727   -0.412655
 H    0.303173    2.781304   -0.996567
 H   -0.427191    3.239742    0.642790
 H    0.107285    1.038062    1.517348
 H    0.401348   -0.663803   -0.332271
 H    1.231321    0.554714   -1.312043
 H    3.039240    0.667278    0.408808
 H    2.187577   -0.515557    1.384930
 H    2.407138   -2.208122   -0.448171
 H    3.262019   -1.027501   -1.439500
 H    3.994483   -1.621326    0.050204




units angstrom

no_reorient
symmetry c1
}

set globals{
  basis jun-cc-pvtz
}

energy('sapt0')


--------------------------------------------------------------------------

  Memory set to  20.489 GiB by Python driver.

  //>>>>>>>>>>>>>>>>>>>>>>>>>>>>>>>>>>>//
  //              Dimer HF             //
  //<<<<<<<<<<<<<<<<<<<<<<<<<<<<<<<<<<<//


*** tstart() called on r282
*** at Sat Sep 11 02:09:37 2021

   => Loading Basis Set <=

    Name: JUN-CC-PVTZ
    Role: ORBITAL
    Keyword: BASIS
    atoms 1, 7-11    entry C          line   217 file /home/r08543048/miniconda3/share/psi4/basis/jun-cc-pvtz.gbs 
    atoms 2          entry O          line   305 file /home/r08543048/miniconda3/share/psi4/basis/jun-cc-pvtz.gbs 
    atoms 3          entry N          line   261 file /home/r08543048/miniconda3/share/psi4/basis/jun-cc-pvtz.gbs 
    atoms 4-6, 12-21 entry H          line    36 file /home/r08543048/miniconda3/share/psi4/basis/jun-cc-pvtz.gbs 


         ---------------------------------------------------------
                                   SCF
               by Justin Turney, Rob Parrish, Andy Simmonett
                          and Daniel G. A. Smith
                              RHF Reference
                        1 Threads,  20980 MiB Core
         ---------------------------------------------------------

  ==> Geometry <==

    Molecular point group: c1
    Full point group: C1

    Geometry (in Angstrom), charge = 0, multiplicity = 1:

       Center              X                  Y                   Z               Mass       
    ------------   -----------------  -----------------  -----------------  -----------------
         C           -2.611738375097    -1.018115613500    -0.048365303286    12.000000000000
         O           -1.717166375097    -1.504622613500     0.625285696714    15.994914619570
         N           -2.605403375097     0.237985386500    -0.554643303286    14.003074004430
         H           -3.387502375097     0.572094386500    -1.087174303286     1.007825032230
         H           -1.828072375097     0.856694386500    -0.366764303286     1.007825032230
         H           -3.522018375097    -1.577395613500    -0.311535303286     1.007825032230
         C            0.123565624903     2.517541386500     0.001450696714    12.000000000000
         C            0.429983624903     1.302038386500     0.471539696714    12.000000000000
         C            1.119289624903     0.230972386500    -0.307456303286    12.000000000000
         C            2.443271624903    -0.183218613500     0.336910696714    12.000000000000
         C            3.117474624903    -1.312184613500    -0.431855303286    12.000000000000
         H            0.368445624903     2.798846386500    -1.015767303286     1.007825032230
         H           -0.361918375097     3.257284386500     0.623589696714     1.007825032230
         H            0.172557624903     1.055604386500     1.498147696714     1.007825032230
         H            0.466620624903    -0.646260613500    -0.351471303286     1.007825032230
         H            1.296593624903     0.572256386500    -1.331243303286     1.007825032230
         H            3.104512624903     0.684820386500     0.389607696714     1.007825032230
         H            2.252849624903    -0.498014613500     1.365729696714     1.007825032230
         H            2.472410624903    -2.190579613500    -0.467371303286     1.007825032230
         H            3.327291624903    -1.009958613500    -1.458700303286     1.007825032230
         H            4.059755624903    -1.603783613500     0.031003696714     1.007825032230

  Running in c1 symmetry.

  Rotational constants: A =      0.07338  B =      0.03133  C =      0.02378 [cm^-1]
  Rotational constants: A =   2199.92301  B =    939.32429  C =    712.84379 [MHz]
  Nuclear repulsion =  359.545279992274970

  Charge       = 0
  Multiplicity = 1
  Electrons    = 64
  Nalpha       = 32
  Nbeta        = 32

  ==> Algorithm <==

  SCF Algorithm Type is DF.
  DIIS enabled.
  MOM disabled.
  Fractional occupation disabled.
  Guess Type is SAD.
  Energy threshold   = 1.00e-08
  Density threshold  = 1.00e-08
  Integral threshold = 0.00e+00

  ==> Primary Basis <==

  Basis Set: JUN-CC-PVTZ
    Blend: JUN-CC-PVTZ
    Number of shells: 182
    Number of basis function: 494
    Number of Cartesian functions: 555
    Spherical Harmonics?: true
    Max angular momentum: 3

   => Loading Basis Set <=

    Name: (JUN-CC-PVTZ AUX)
    Role: JKFIT
    Keyword: DF_BASIS_SCF
    atoms 1, 7-11    entry C          line   152 file /home/r08543048/miniconda3/share/psi4/basis/jun-cc-pvtz-jkfit.gbs 
    atoms 2          entry O          line   272 file /home/r08543048/miniconda3/share/psi4/basis/jun-cc-pvtz-jkfit.gbs 
    atoms 3          entry N          line   212 file /home/r08543048/miniconda3/share/psi4/basis/jun-cc-pvtz-jkfit.gbs 
    atoms 4-6, 12-21 entry H          line    70 file /home/r08543048/miniconda3/share/psi4/basis/jun-cc-pvtz-jkfit.gbs 

  ==> Pre-Iterations <==

   -------------------------------------------------------
    Irrep   Nso     Nmo     Nalpha   Nbeta   Ndocc  Nsocc
   -------------------------------------------------------
     A        494     494       0       0       0       0
   -------------------------------------------------------
    Total     494     494      32      32      32       0
   -------------------------------------------------------

  ==> Integral Setup <==

  ==> DiskDFJK: Density-Fitted J/K Matrices <==

    J tasked:                  Yes
    K tasked:                  Yes
    wK tasked:                  No
    OpenMP threads:              1
    Integrals threads:           1
    Memory [MiB]:            15735
    Algorithm:                Core
    Integral Cache:           SAVE
    Schwarz Cutoff:          1E-12
    Fitting Condition:       1E-10

   => Auxiliary Basis Set <=

  Basis Set: (JUN-CC-PVTZ AUX)
    Blend: JUN-CC-PVTZ-JKFIT
    Number of shells: 362
    Number of basis function: 1150
    Number of Cartesian functions: 1383
    Spherical Harmonics?: true
    Max angular momentum: 4

  Minimum eigenvalue in the overlap matrix is 2.7921172845E-05.
  Using Symmetric Orthogonalization.

  SCF Guess: Superposition of Atomic Densities via on-the-fly atomic UHF.

  ==> Iterations <==

                           Total Energy        Delta E     RMS |[F,P]|

   @DF-RHF iter SAD:  -362.79858981117388   -3.62799e+02   0.00000e+00 
   @DF-RHF iter   1:  -363.88980136230197   -1.09121e+00   1.58276e-03 DIIS
   @DF-RHF iter   2:  -364.13663844949650   -2.46837e-01   8.90726e-04 DIIS
   @DF-RHF iter   3:  -364.21219863674798   -7.55602e-02   1.85326e-04 DIIS
   @DF-RHF iter   4:  -364.21667856253754   -4.47993e-03   7.68658e-05 DIIS
   @DF-RHF iter   5:  -364.21750724305423   -8.28681e-04   1.27206e-05 DIIS
   @DF-RHF iter   6:  -364.21754885079122   -4.16077e-05   5.95220e-06 DIIS
   @DF-RHF iter   7:  -364.21755689317246   -8.04238e-06   2.06155e-06 DIIS
   @DF-RHF iter   8:  -364.21755857245819   -1.67929e-06   8.02226e-07 DIIS
   @DF-RHF iter   9:  -364.21755881019374   -2.37736e-07   2.85354e-07 DIIS
   @DF-RHF iter  10:  -364.21755883703389   -2.68402e-08   9.37132e-08 DIIS
   @DF-RHF iter  11:  -364.21755883949174   -2.45785e-09   2.56912e-08 DIIS
   @DF-RHF iter  12:  -364.21755883970451   -2.12765e-10   8.91970e-09 DIIS
  Energy and wave function converged.


  ==> Post-Iterations <==

    Orbital Energies [Eh]
    ---------------------

    Doubly Occupied:                                                      

       1A    -20.526286     2A    -15.588329     3A    -11.354302  
       4A    -11.235453     5A    -11.221783     6A    -11.214451  
       7A    -11.213640     8A    -11.204952     9A     -1.379358  
      10A     -1.215647    11A     -1.088273    12A     -1.021485  
      13A     -0.920127    14A     -0.848444    15A     -0.807351  
      16A     -0.757648    17A     -0.746298    18A     -0.672551  
      19A     -0.649241    20A     -0.615262    21A     -0.604878  
      22A     -0.589182    23A     -0.568998    24A     -0.561148  
      25A     -0.534496    26A     -0.507616    27A     -0.478364  
      28A     -0.470039    29A     -0.465444    30A     -0.433268  
      31A     -0.416837    32A     -0.362178  

    Virtual:                                                              

      33A      0.044476    34A      0.054921    35A      0.057094  
      36A      0.061341    37A      0.073682    38A      0.076751  
      39A      0.081705    40A      0.085425    41A      0.089769  
      42A      0.103059    43A      0.111082    44A      0.114879  
      45A      0.117385    46A      0.123097    47A      0.132414  
      48A      0.139700    49A      0.150542    50A      0.157696  
      51A      0.167385    52A      0.172773    53A      0.179151  
      54A      0.185589    55A      0.188728    56A      0.193309  
      57A      0.198863    58A      0.201341    59A      0.209150  
      60A      0.224430    61A      0.230197    62A      0.235925  
      63A      0.249263    64A      0.256416    65A      0.263488  
      66A      0.273104    67A      0.284635    68A      0.285887  
      69A      0.298044    70A      0.301108    71A      0.304987  
      72A      0.308003    73A      0.316705    74A      0.317917  
      75A      0.324857    76A      0.334142    77A      0.340451  
      78A      0.346872    79A      0.355097    80A      0.363833  
      81A      0.370844    82A      0.372062    83A      0.378050  
      84A      0.386350    85A      0.395289    86A      0.400331  
      87A      0.411130    88A      0.413100    89A      0.417923  
      90A      0.428947    91A      0.432403    92A      0.446496  
      93A      0.450285    94A      0.453895    95A      0.463070  
      96A      0.465551    97A      0.478011    98A      0.484215  
      99A      0.495345   100A      0.503140   101A      0.506362  
     102A      0.522851   103A      0.534159   104A      0.541511  
     105A      0.546908   106A      0.549439   107A      0.554326  
     108A      0.574084   109A      0.579467   110A      0.589918  
     111A      0.592580   112A      0.597574   113A      0.601506  
     114A      0.608753   115A      0.619349   116A      0.628826  
     117A      0.639343   118A      0.641280   119A      0.652419  
     120A      0.657595   121A      0.673633   122A      0.679119  
     123A      0.702197   124A      0.721452   125A      0.729000  
     126A      0.739675   127A      0.750004   128A      0.760471  
     129A      0.770327   130A      0.777788   131A      0.795344  
     132A      0.798314   133A      0.814391   134A      0.816590  
     135A      0.827461   136A      0.832186   137A      0.840760  
     138A      0.842797   139A      0.851750   140A      0.867019  
     141A      0.875901   142A      0.881748   143A      0.888658  
     144A      0.892991   145A      0.904097   146A      0.909119  
     147A      0.920101   148A      0.924354   149A      0.955723  
     150A      0.960353   151A      0.975747   152A      0.982172  
     153A      0.995762   154A      1.007302   155A      1.016532  
     156A      1.025792   157A      1.047597   158A      1.052123  
     159A      1.058635   160A      1.069391   161A      1.071631  
     162A      1.081551   163A      1.089691   164A      1.103304  
     165A      1.115362   166A      1.123546   167A      1.131199  
     168A      1.144061   169A      1.172080   170A      1.187676  
     171A      1.198151   172A      1.219625   173A      1.230064  
     174A      1.245984   175A      1.262675   176A      1.265792  
     177A      1.279560   178A      1.295010   179A      1.300618  
     180A      1.307444   181A      1.315042   182A      1.321401  
     183A      1.324907   184A      1.347773   185A      1.354523  
     186A      1.364037   187A      1.374512   188A      1.389302  
     189A      1.395703   190A      1.405438   191A      1.413538  
     192A      1.420707   193A      1.427239   194A      1.438121  
     195A      1.444836   196A      1.452089   197A      1.482810  
     198A      1.487130   199A      1.509627   200A      1.515787  
     201A      1.523501   202A      1.529194   203A      1.555998  
     204A      1.561304   205A      1.576564   206A      1.588386  
     207A      1.612039   208A      1.619036   209A      1.626419  
     210A      1.635646   211A      1.650995   212A      1.657243  
     213A      1.675008   214A      1.681732   215A      1.698558  
     216A      1.712003   217A      1.730491   218A      1.748918  
     219A      1.765920   220A      1.771005   221A      1.775030  
     222A      1.781413   223A      1.792194   224A      1.817689  
     225A      1.831545   226A      1.837288   227A      1.888201  
     228A      1.904578   229A      1.911513   230A      1.914849  
     231A      1.930044   232A      1.962964   233A      1.977943  
     234A      1.994836   235A      2.026328   236A      2.053670  
     237A      2.093407   238A      2.113356   239A      2.122992  
     240A      2.153163   241A      2.191979   242A      2.250446  
     243A      2.279445   244A      2.318040   245A      2.383805  
     246A      2.422446   247A      2.538150   248A      2.586667  
     249A      2.685953   250A      2.713981   251A      2.761903  
     252A      2.782531   253A      2.785952   254A      2.803911  
     255A      2.831085   256A      2.837218   257A      2.849781  
     258A      2.858217   259A      2.869908   260A      2.883099  
     261A      2.894163   262A      2.918219   263A      2.936953  
     264A      2.971630   265A      2.975609   266A      3.001801  
     267A      3.026706   268A      3.032026   269A      3.044555  
     270A      3.075194   271A      3.083910   272A      3.106368  
     273A      3.129164   274A      3.142007   275A      3.142618  
     276A      3.146766   277A      3.155276   278A      3.166310  
     279A      3.173277   280A      3.190610   281A      3.210071  
     282A      3.213485   283A      3.217953   284A      3.247997  
     285A      3.253927   286A      3.276037   287A      3.289627  
     288A      3.308109   289A      3.312719   290A      3.322389  
     291A      3.338303   292A      3.354300   293A      3.365471  
     294A      3.382503   295A      3.385754   296A      3.406028  
     297A      3.408624   298A      3.414783   299A      3.428140  
     300A      3.445647   301A      3.447558   302A      3.455195  
     303A      3.476828   304A      3.488025   305A      3.494893  
     306A      3.499006   307A      3.500469   308A      3.512337  
     309A      3.514270   310A      3.518723   311A      3.534596  
     312A      3.541463   313A      3.549523   314A      3.566585  
     315A      3.568599   316A      3.588387   317A      3.598931  
     318A      3.609284   319A      3.617444   320A      3.619964  
     321A      3.632378   322A      3.645782   323A      3.654696  
     324A      3.672858   325A      3.692114   326A      3.698580  
     327A      3.734945   328A      3.752214   329A      3.767717  
     330A      3.778320   331A      3.791423   332A      3.812306  
     333A      3.824506   334A      3.834971   335A      3.851300  
     336A      3.862240   337A      3.880486   338A      3.882856  
     339A      3.902087   340A      3.930161   341A      3.939308  
     342A      3.950895   343A      3.958788   344A      3.967353  
     345A      3.980133   346A      3.984469   347A      4.002941  
     348A      4.013529   349A      4.045360   350A      4.059893  
     351A      4.080584   352A      4.112959   353A      4.115272  
     354A      4.166866   355A      4.169910   356A      4.173808  
     357A      4.185775   358A      4.217536   359A      4.223190  
     360A      4.233826   361A      4.248554   362A      4.255968  
     363A      4.271407   364A      4.275124   365A      4.290196  
     366A      4.304282   367A      4.315822   368A      4.340481  
     369A      4.350420   370A      4.354521   371A      4.368309  
     372A      4.376709   373A      4.387789   374A      4.405110  
     375A      4.411365   376A      4.429876   377A      4.439702  
     378A      4.447615   379A      4.454346   380A      4.467825  
     381A      4.485758   382A      4.499501   383A      4.509602  
     384A      4.512995   385A      4.519184   386A      4.534953  
     387A      4.550393   388A      4.565609   389A      4.581192  
     390A      4.594984   391A      4.618445   392A      4.622645  
     393A      4.641591   394A      4.656981   395A      4.678845  
     396A      4.685945   397A      4.695818   398A      4.713845  
     399A      4.733721   400A      4.746180   401A      4.776562  
     402A      4.793013   403A      4.808888   404A      4.833146  
     405A      4.857086   406A      4.882685   407A      4.901281  
     408A      4.923926   409A      4.959223   410A      4.986982  
     411A      5.005548   412A      5.016625   413A      5.034150  
     414A      5.058708   415A      5.077454   416A      5.129156  
     417A      5.148886   418A      5.186256   419A      5.192701  
     420A      5.198076   421A      5.203565   422A      5.218210  
     423A      5.248649   424A      5.258465   425A      5.272987  
     426A      5.283810   427A      5.293499   428A      5.297668  
     429A      5.299854   430A      5.350610   431A      5.364344  
     432A      5.391407   433A      5.423197   434A      5.432517  
     435A      5.450878   436A      5.471859   437A      5.483842  
     438A      5.506759   439A      5.516945   440A      5.538461  
     441A      5.575497   442A      5.622057   443A      5.653556  
     444A      5.659778   445A      5.713889   446A      5.720598  
     447A      5.733265   448A      5.764525   449A      5.777612  
     450A      5.797392   451A      5.851619   452A      5.876042  
     453A      5.890776   454A      5.926228   455A      5.939966  
     456A      5.945725   457A      5.963212   458A      5.971577  
     459A      5.990933   460A      6.026590   461A      6.053405  
     462A      6.072023   463A      6.139778   464A      6.171519  
     465A      6.246240   466A      6.269774   467A      6.359013  
     468A      6.387089   469A      6.490105   470A      6.513395  
     471A      6.528360   472A      6.561877   473A      6.588505  
     474A      6.637492   475A      6.680374   476A      6.716445  
     477A      6.791265   478A      6.934934   479A      7.156373  
     480A      7.261073   481A      7.282876   482A      7.407891  
     483A      7.465995   484A      7.609089   485A      7.723471  
     486A      7.831882   487A     12.595220   488A     12.709361  
     489A     13.827002   490A     14.183630   491A     14.471124  
     492A     14.529181   493A     15.378386   494A     15.732792  

    Final Occupation by Irrep:
              A 
    DOCC [    32 ]

  @DF-RHF Final Energy:  -364.21755883970451

   => Energetics <=

    Nuclear Repulsion Energy =            359.5452799922749705
    One-Electron Energy =               -1206.9790229844302303
    Two-Electron Energy =                 483.2161841524506940
    Total Energy =                       -364.2175588397045090

Computation Completed


Properties will be evaluated at   0.000000,   0.000000,   0.000000 [a0]

Properties computed using the SCF density matrix

  Nuclear Dipole Moment: [e a0]
     X:     7.8942      Y:     2.1216      Z:    -2.3221

  Electronic Dipole Moment: [e a0]
     X:    -8.6938      Y:    -1.3286      Z:     1.5140

  Dipole Moment: [e a0]
     X:    -0.7995      Y:     0.7930      Z:    -0.8082     Total:     1.3861

  Dipole Moment: [D]
     X:    -2.0322      Y:     2.0156      Z:    -2.0542     Total:     3.5231


*** tstop() called on r282 at Sat Sep 11 02:10:43 2021
Module time:
	user time   =      64.48 seconds =       1.07 minutes
	system time =       1.38 seconds =       0.02 minutes
	total time  =         66 seconds =       1.10 minutes
Total time:
	user time   =      64.48 seconds =       1.07 minutes
	system time =       1.38 seconds =       0.02 minutes
	total time  =         66 seconds =       1.10 minutes

  //>>>>>>>>>>>>>>>>>>>>>>>>>>>>>>>>>>>//
  //            Monomer A HF           //
  //<<<<<<<<<<<<<<<<<<<<<<<<<<<<<<<<<<<//


*** tstart() called on r282
*** at Sat Sep 11 02:10:43 2021

   => Loading Basis Set <=

    Name: JUN-CC-PVTZ
    Role: ORBITAL
    Keyword: BASIS
    atoms 1, 7-11    entry C          line   217 file /home/r08543048/miniconda3/share/psi4/basis/jun-cc-pvtz.gbs 
    atoms 2          entry O          line   305 file /home/r08543048/miniconda3/share/psi4/basis/jun-cc-pvtz.gbs 
    atoms 3          entry N          line   261 file /home/r08543048/miniconda3/share/psi4/basis/jun-cc-pvtz.gbs 
    atoms 4-6, 12-21 entry H          line    36 file /home/r08543048/miniconda3/share/psi4/basis/jun-cc-pvtz.gbs 


         ---------------------------------------------------------
                                   SCF
               by Justin Turney, Rob Parrish, Andy Simmonett
                          and Daniel G. A. Smith
                              RHF Reference
                        1 Threads,  20980 MiB Core
         ---------------------------------------------------------

  ==> Geometry <==

    Molecular point group: c1
    Full point group: C1

    Geometry (in Angstrom), charge = 0, multiplicity = 1:

       Center              X                  Y                   Z               Mass       
    ------------   -----------------  -----------------  -----------------  -----------------
         C           -2.611738375097    -1.018115613500    -0.048365303286    12.000000000000
         O           -1.717166375097    -1.504622613500     0.625285696714    15.994914619570
         N           -2.605403375097     0.237985386500    -0.554643303286    14.003074004430
         H           -3.387502375097     0.572094386500    -1.087174303286     1.007825032230
         H           -1.828072375097     0.856694386500    -0.366764303286     1.007825032230
         H           -3.522018375097    -1.577395613500    -0.311535303286     1.007825032230
      Gh(C)           0.123565624903     2.517541386500     0.001450696714    12.000000000000
      Gh(C)           0.429983624903     1.302038386500     0.471539696714    12.000000000000
      Gh(C)           1.119289624903     0.230972386500    -0.307456303286    12.000000000000
      Gh(C)           2.443271624903    -0.183218613500     0.336910696714    12.000000000000
      Gh(C)           3.117474624903    -1.312184613500    -0.431855303286    12.000000000000
      Gh(H)           0.368445624903     2.798846386500    -1.015767303286     1.007825032230
      Gh(H)          -0.361918375097     3.257284386500     0.623589696714     1.007825032230
      Gh(H)           0.172557624903     1.055604386500     1.498147696714     1.007825032230
      Gh(H)           0.466620624903    -0.646260613500    -0.351471303286     1.007825032230
      Gh(H)           1.296593624903     0.572256386500    -1.331243303286     1.007825032230
      Gh(H)           3.104512624903     0.684820386500     0.389607696714     1.007825032230
      Gh(H)           2.252849624903    -0.498014613500     1.365729696714     1.007825032230
      Gh(H)           2.472410624903    -2.190579613500    -0.467371303286     1.007825032230
      Gh(H)           3.327291624903    -1.009958613500    -1.458700303286     1.007825032230
      Gh(H)           4.059755624903    -1.603783613500     0.031003696714     1.007825032230

  Running in c1 symmetry.

  Rotational constants: A =      0.07338  B =      0.03133  C =      0.02378 [cm^-1]
  Rotational constants: A =   2199.92301  B =    939.32429  C =    712.84379 [MHz]
  Nuclear repulsion =   71.109793233261044

  Charge       = 0
  Multiplicity = 1
  Electrons    = 24
  Nalpha       = 12
  Nbeta        = 12

  ==> Algorithm <==

  SCF Algorithm Type is DF.
  DIIS enabled.
  MOM disabled.
  Fractional occupation disabled.
  Guess Type is SAD.
  Energy threshold   = 1.00e-08
  Density threshold  = 1.00e-08
  Integral threshold = 0.00e+00

  ==> Primary Basis <==

  Basis Set: JUN-CC-PVTZ
    Blend: JUN-CC-PVTZ
    Number of shells: 182
    Number of basis function: 494
    Number of Cartesian functions: 555
    Spherical Harmonics?: true
    Max angular momentum: 3

   => Loading Basis Set <=

    Name: (JUN-CC-PVTZ AUX)
    Role: JKFIT
    Keyword: DF_BASIS_SCF
    atoms 1, 7-11    entry C          line   152 file /home/r08543048/miniconda3/share/psi4/basis/jun-cc-pvtz-jkfit.gbs 
    atoms 2          entry O          line   272 file /home/r08543048/miniconda3/share/psi4/basis/jun-cc-pvtz-jkfit.gbs 
    atoms 3          entry N          line   212 file /home/r08543048/miniconda3/share/psi4/basis/jun-cc-pvtz-jkfit.gbs 
    atoms 4-6, 12-21 entry H          line    70 file /home/r08543048/miniconda3/share/psi4/basis/jun-cc-pvtz-jkfit.gbs 

  ==> Pre-Iterations <==

   -------------------------------------------------------
    Irrep   Nso     Nmo     Nalpha   Nbeta   Ndocc  Nsocc
   -------------------------------------------------------
     A        494     494       0       0       0       0
   -------------------------------------------------------
    Total     494     494      12      12      12       0
   -------------------------------------------------------

  ==> Integral Setup <==

  ==> DiskDFJK: Density-Fitted J/K Matrices <==

    J tasked:                  Yes
    K tasked:                  Yes
    wK tasked:                  No
    OpenMP threads:              1
    Integrals threads:           1
    Memory [MiB]:            15735
    Algorithm:                Core
    Integral Cache:           LOAD
    Schwarz Cutoff:          1E-12
    Fitting Condition:       1E-10

   => Auxiliary Basis Set <=

  Basis Set: (JUN-CC-PVTZ AUX)
    Blend: JUN-CC-PVTZ-JKFIT
    Number of shells: 362
    Number of basis function: 1150
    Number of Cartesian functions: 1383
    Spherical Harmonics?: true
    Max angular momentum: 4

  Minimum eigenvalue in the overlap matrix is 2.7921172845E-05.
  Using Symmetric Orthogonalization.

  SCF Guess: Superposition of Atomic Densities via on-the-fly atomic UHF.

  ==> Iterations <==

                           Total Energy        Delta E     RMS |[F,P]|

   @DF-RHF iter SAD:  -168.21538120647028   -1.68215e+02   0.00000e+00 
   @DF-RHF iter   1:  -168.88097344274604   -6.65592e-01   1.08159e-03 DIIS
   @DF-RHF iter   2:  -168.95736750668451   -7.63941e-02   7.46977e-04 DIIS
   @DF-RHF iter   3:  -169.00184913473376   -4.44816e-02   1.04520e-04 DIIS
   @DF-RHF iter   4:  -169.00326974616428   -1.42061e-03   4.51863e-05 DIIS
   @DF-RHF iter   5:  -169.00356675602583   -2.97010e-04   9.29676e-06 DIIS
   @DF-RHF iter   6:  -169.00359805016529   -3.12941e-05   4.48444e-06 DIIS
   @DF-RHF iter   7:  -169.00360471960030   -6.66944e-06   1.81049e-06 DIIS
   @DF-RHF iter   8:  -169.00360587110308   -1.15150e-06   5.25096e-07 DIIS
   @DF-RHF iter   9:  -169.00360596995807   -9.88550e-08   1.41611e-07 DIIS
   @DF-RHF iter  10:  -169.00360597732342   -7.36534e-09   3.50296e-08 DIIS
   @DF-RHF iter  11:  -169.00360597769733   -3.73916e-10   6.26825e-09 DIIS
  Energy and wave function converged.


  ==> Post-Iterations <==

    Orbital Energies [Eh]
    ---------------------

    Doubly Occupied:                                                      

       1A    -20.529962     2A    -15.599202     3A    -11.358182  
       4A     -1.381799     5A     -1.223405     6A     -0.854611  
       7A     -0.753362     8A     -0.676827     9A     -0.607690  
      10A     -0.571593    11A     -0.437313    12A     -0.422744  

    Virtual:                                                              

      13A      0.027191    14A      0.042037    15A      0.050003  
      16A      0.057313    17A      0.066953    18A      0.072632  
      19A      0.073720    20A      0.081947    21A      0.086444  
      22A      0.101620    23A      0.104595    24A      0.106908  
      25A      0.115711    26A      0.121076    27A      0.123436  
      28A      0.133925    29A      0.137661    30A      0.139707  
      31A      0.157107    32A      0.162246    33A      0.167078  
      34A      0.171172    35A      0.174275    36A      0.176879  
      37A      0.185724    38A      0.192950    39A      0.194325  
      40A      0.209125    41A      0.221436    42A      0.237007  
      43A      0.240995    44A      0.256136    45A      0.260490  
      46A      0.265362    47A      0.277336    48A      0.282232  
      49A      0.289646    50A      0.297698    51A      0.302020  
      52A      0.310406    53A      0.317332    54A      0.323178  
      55A      0.330517    56A      0.333186    57A      0.337773  
      58A      0.346946    59A      0.355044    60A      0.367880  
      61A      0.371571    62A      0.379336    63A      0.384649  
      64A      0.388863    65A      0.401458    66A      0.405161  
      67A      0.409821    68A      0.426122    69A      0.427635  
      70A      0.433081    71A      0.438691    72A      0.445994  
      73A      0.449276    74A      0.460820    75A      0.462558  
      76A      0.476647    77A      0.490518    78A      0.494913  
      79A      0.504787    80A      0.510417    81A      0.515653  
      82A      0.527144    83A      0.546155    84A      0.549279  
      85A      0.556885    86A      0.568039    87A      0.572684  
      88A      0.577381    89A      0.581342    90A      0.591532  
      91A      0.591847    92A      0.605292    93A      0.614614  
      94A      0.618056    95A      0.626091    96A      0.631729  
      97A      0.637970    98A      0.648606    99A      0.655634  
     100A      0.665162   101A      0.669198   102A      0.680008  
     103A      0.686175   104A      0.689036   105A      0.697419  
     106A      0.717988   107A      0.721868   108A      0.738459  
     109A      0.747962   110A      0.754424   111A      0.758583  
     112A      0.780331   113A      0.789454   114A      0.804550  
     115A      0.820742   116A      0.828271   117A      0.851876  
     118A      0.865281   119A      0.884652   120A      0.892303  
     121A      0.904455   122A      0.940693   123A      0.954145  
     124A      0.963087   125A      1.014291   126A      1.025301  
     127A      1.045578   128A      1.051972   129A      1.060605  
     130A      1.068474   131A      1.079035   132A      1.087977  
     133A      1.096153   134A      1.108674   135A      1.133470  
     136A      1.145533   137A      1.158553   138A      1.160989  
     139A      1.172361   140A      1.178107   141A      1.199254  
     142A      1.205036   143A      1.217679   144A      1.234239  
     145A      1.241400   146A      1.248376   147A      1.253180  
     148A      1.263325   149A      1.268112   150A      1.278425  
     151A      1.291985   152A      1.292226   153A      1.300760  
     154A      1.311125   155A      1.316298   156A      1.319022  
     157A      1.331404   158A      1.343697   159A      1.349695  
     160A      1.355185   161A      1.368554   162A      1.377744  
     163A      1.380364   164A      1.385387   165A      1.398782  
     166A      1.406723   167A      1.414661   168A      1.424123  
     169A      1.435797   170A      1.445383   171A      1.466951  
     172A      1.469518   173A      1.480076   174A      1.491573  
     175A      1.502789   176A      1.509023   177A      1.513253  
     178A      1.523710   179A      1.541801   180A      1.553654  
     181A      1.562631   182A      1.576520   183A      1.582589  
     184A      1.590118   185A      1.604493   186A      1.610374  
     187A      1.618207   188A      1.624224   189A      1.640910  
     190A      1.658380   191A      1.669565   192A      1.685202  
     193A      1.701519   194A      1.706220   195A      1.715954  
     196A      1.730186   197A      1.746622   198A      1.767945  
     199A      1.769141   200A      1.786380   201A      1.800715  
     202A      1.811271   203A      1.850391   204A      1.867468  
     205A      1.895249   206A      1.907353   207A      1.928382  
     208A      1.939383   209A      1.974347   210A      1.982651  
     211A      2.013191   212A      2.026494   213A      2.070506  
     214A      2.098051   215A      2.109733   216A      2.126903  
     217A      2.138999   218A      2.165199   219A      2.197164  
     220A      2.202487   221A      2.225087   222A      2.257902  
     223A      2.266567   224A      2.281303   225A      2.325754  
     226A      2.337555   227A      2.364923   228A      2.384170  
     229A      2.401691   230A      2.405542   231A      2.424799  
     232A      2.446169   233A      2.483623   234A      2.495629  
     235A      2.524871   236A      2.554921   237A      2.573933  
     238A      2.600156   239A      2.615859   240A      2.663578  
     241A      2.682377   242A      2.713871   243A      2.743580  
     244A      2.776828   245A      2.872002   246A      2.953123  
     247A      3.026425   248A      3.136925   249A      3.164255  
     250A      3.174943   251A      3.263754   252A      3.356068  
     253A      3.401261   254A      3.425166   255A      3.449393  
     256A      3.465104   257A      3.470709   258A      3.488883  
     259A      3.508501   260A      3.515304   261A      3.526900  
     262A      3.535412   263A      3.555683   264A      3.568541  
     265A      3.577604   266A      3.591293   267A      3.600161  
     268A      3.611883   269A      3.615239   270A      3.620285  
     271A      3.643722   272A      3.654522   273A      3.676171  
     274A      3.690410   275A      3.692636   276A      3.705991  
     277A      3.748813   278A      3.761289   279A      3.776568  
     280A      3.785226   281A      3.796994   282A      3.815641  
     283A      3.828059   284A      3.834834   285A      3.850320  
     286A      3.857568   287A      3.862413   288A      3.876764  
     289A      3.891619   290A      3.894084   291A      3.905293  
     292A      3.919273   293A      3.944361   294A      3.957252  
     295A      3.962598   296A      3.970726   297A      3.979171  
     298A      4.017915   299A      4.038933   300A      4.047204  
     301A      4.061056   302A      4.078375   303A      4.100482  
     304A      4.110259   305A      4.123474   306A      4.147385  
     307A      4.161372   308A      4.178455   309A      4.187315  
     310A      4.194029   311A      4.216678   312A      4.234177  
     313A      4.239558   314A      4.250210   315A      4.257863  
     316A      4.265214   317A      4.289602   318A      4.301653  
     319A      4.320189   320A      4.327278   321A      4.364062  
     322A      4.389638   323A      4.400245   324A      4.414197  
     325A      4.430384   326A      4.442442   327A      4.457037  
     328A      4.469462   329A      4.489513   330A      4.502028  
     331A      4.509289   332A      4.513250   333A      4.532537  
     334A      4.538024   335A      4.553552   336A      4.568349  
     337A      4.573586   338A      4.589026   339A      4.594705  
     340A      4.605394   341A      4.618896   342A      4.623323  
     343A      4.632783   344A      4.648026   345A      4.654676  
     346A      4.656057   347A      4.683302   348A      4.695916  
     349A      4.706379   350A      4.716070   351A      4.728917  
     352A      4.744327   353A      4.753084   354A      4.760843  
     355A      4.767566   356A      4.790189   357A      4.805048  
     358A      4.808806   359A      4.817080   360A      4.821232  
     361A      4.844481   362A      4.856374   363A      4.866970  
     364A      4.872086   365A      4.886168   366A      4.887408  
     367A      4.906989   368A      4.920965   369A      4.921969  
     370A      4.948184   371A      4.959118   372A      4.978645  
     373A      4.985060   374A      4.987290   375A      4.999520  
     376A      5.010546   377A      5.021632   378A      5.024360  
     379A      5.042972   380A      5.055220   381A      5.086476  
     382A      5.098904   383A      5.127525   384A      5.144957  
     385A      5.172778   386A      5.175373   387A      5.186265  
     388A      5.203806   389A      5.210269   390A      5.236375  
     391A      5.248044   392A      5.257442   393A      5.272884  
     394A      5.289655   395A      5.302361   396A      5.334005  
     397A      5.353540   398A      5.387934   399A      5.427462  
     400A      5.450713   401A      5.464030   402A      5.477064  
     403A      5.492040   404A      5.508781   405A      5.524339  
     406A      5.555601   407A      5.584282   408A      5.648739  
     409A      5.669404   410A      5.679020   411A      5.698852  
     412A      5.718021   413A      5.727325   414A      5.742724  
     415A      5.788410   416A      5.850963   417A      5.869550  
     418A      5.891501   419A      5.939952   420A      5.954020  
     421A      5.980874   422A      5.990575   423A      6.003538  
     424A      6.034208   425A      6.050139   426A      6.055420  
     427A      6.070743   428A      6.075951   429A      6.121723  
     430A      6.158039   431A      6.224461   432A      6.228633  
     433A      6.260910   434A      6.276546   435A      6.337291  
     436A      6.351211   437A      6.361052   438A      6.396100  
     439A      6.420973   440A      6.446588   441A      6.458531  
     442A      6.530975   443A      6.555990   444A      6.667615  
     445A      6.673571   446A      6.699559   447A      6.755222  
     448A      6.787859   449A      6.791270   450A      6.821661  
     451A      6.928904   452A      6.952328   453A      7.025513  
     454A      7.108430   455A      7.149685   456A      7.259362  
     457A      7.279000   458A      7.350205   459A      7.390527  
     460A      7.407597   461A      7.459542   462A      7.471059  
     463A      7.539744   464A      7.576156   465A      7.605385  
     466A      7.650038   467A      7.689205   468A      7.709634  
     469A      7.723396   470A      7.739518   471A      7.827222  
     472A      7.830785   473A      7.888927   474A      7.916008  
     475A      7.977141   476A      8.055138   477A      8.159155  
     478A      8.329082   479A      8.381025   480A      8.641694  
     481A      8.869364   482A      9.481037   483A      9.648921  
     484A      9.799354   485A      9.880498   486A     10.216381  
     487A     12.709429   488A     14.178479   489A     15.700740  
     490A     41.708428   491A     44.119166   492A     45.520314  
     493A     45.869313   494A     47.261080  

    Final Occupation by Irrep:
              A 
    DOCC [    12 ]

  @DF-RHF Final Energy:  -169.00360597769733

   => Energetics <=

    Nuclear Repulsion Energy =             71.1097932332610441
    One-Electron Energy =                -371.3934127401713567
    Two-Electron Energy =                 131.2800135292129937
    Total Energy =                       -169.0036059776973332

Computation Completed


Properties will be evaluated at   0.000000,   0.000000,   0.000000 [a0]

Properties computed using the SCF density matrix

  Nuclear Dipole Moment: [e a0]
     X:  -106.5488      Y:   -31.4231      Z:    -1.7686

  Electronic Dipole Moment: [e a0]
     X:   105.5555      Y:    32.4681      Z:     0.8436

  Dipole Moment: [e a0]
     X:    -0.9932      Y:     1.0451      Z:    -0.9250     Total:     1.7130

  Dipole Moment: [D]
     X:    -2.5246      Y:     2.6563      Z:    -2.3510     Total:     4.3539


*** tstop() called on r282 at Sat Sep 11 02:11:16 2021
Module time:
	user time   =      32.26 seconds =       0.54 minutes
	system time =       0.62 seconds =       0.01 minutes
	total time  =         33 seconds =       0.55 minutes
Total time:
	user time   =      96.74 seconds =       1.61 minutes
	system time =       2.00 seconds =       0.03 minutes
	total time  =         99 seconds =       1.65 minutes

  //>>>>>>>>>>>>>>>>>>>>>>>>>>>>>>>>>>>//
  //            Monomer B HF           //
  //<<<<<<<<<<<<<<<<<<<<<<<<<<<<<<<<<<<//


*** tstart() called on r282
*** at Sat Sep 11 02:11:16 2021

   => Loading Basis Set <=

    Name: JUN-CC-PVTZ
    Role: ORBITAL
    Keyword: BASIS
    atoms 1, 7-11    entry C          line   217 file /home/r08543048/miniconda3/share/psi4/basis/jun-cc-pvtz.gbs 
    atoms 2          entry O          line   305 file /home/r08543048/miniconda3/share/psi4/basis/jun-cc-pvtz.gbs 
    atoms 3          entry N          line   261 file /home/r08543048/miniconda3/share/psi4/basis/jun-cc-pvtz.gbs 
    atoms 4-6, 12-21 entry H          line    36 file /home/r08543048/miniconda3/share/psi4/basis/jun-cc-pvtz.gbs 


         ---------------------------------------------------------
                                   SCF
               by Justin Turney, Rob Parrish, Andy Simmonett
                          and Daniel G. A. Smith
                              RHF Reference
                        1 Threads,  20980 MiB Core
         ---------------------------------------------------------

  ==> Geometry <==

    Molecular point group: c1
    Full point group: C1

    Geometry (in Angstrom), charge = 0, multiplicity = 1:

       Center              X                  Y                   Z               Mass       
    ------------   -----------------  -----------------  -----------------  -----------------
      Gh(C)          -2.611738375097    -1.018115613500    -0.048365303286    12.000000000000
      Gh(O)          -1.717166375097    -1.504622613500     0.625285696714    15.994914619570
      Gh(N)          -2.605403375097     0.237985386500    -0.554643303286    14.003074004430
      Gh(H)          -3.387502375097     0.572094386500    -1.087174303286     1.007825032230
      Gh(H)          -1.828072375097     0.856694386500    -0.366764303286     1.007825032230
      Gh(H)          -3.522018375097    -1.577395613500    -0.311535303286     1.007825032230
         C            0.123565624903     2.517541386500     0.001450696714    12.000000000000
         C            0.429983624903     1.302038386500     0.471539696714    12.000000000000
         C            1.119289624903     0.230972386500    -0.307456303286    12.000000000000
         C            2.443271624903    -0.183218613500     0.336910696714    12.000000000000
         C            3.117474624903    -1.312184613500    -0.431855303286    12.000000000000
         H            0.368445624903     2.798846386500    -1.015767303286     1.007825032230
         H           -0.361918375097     3.257284386500     0.623589696714     1.007825032230
         H            0.172557624903     1.055604386500     1.498147696714     1.007825032230
         H            0.466620624903    -0.646260613500    -0.351471303286     1.007825032230
         H            1.296593624903     0.572256386500    -1.331243303286     1.007825032230
         H            3.104512624903     0.684820386500     0.389607696714     1.007825032230
         H            2.252849624903    -0.498014613500     1.365729696714     1.007825032230
         H            2.472410624903    -2.190579613500    -0.467371303286     1.007825032230
         H            3.327291624903    -1.009958613500    -1.458700303286     1.007825032230
         H            4.059755624903    -1.603783613500     0.031003696714     1.007825032230

  Running in c1 symmetry.

  Rotational constants: A =      0.07338  B =      0.03133  C =      0.02378 [cm^-1]
  Rotational constants: A =   2199.92301  B =    939.32429  C =    712.84379 [MHz]
  Nuclear repulsion =  170.506012973407849

  Charge       = 0
  Multiplicity = 1
  Electrons    = 40
  Nalpha       = 20
  Nbeta        = 20

  ==> Algorithm <==

  SCF Algorithm Type is DF.
  DIIS enabled.
  MOM disabled.
  Fractional occupation disabled.
  Guess Type is SAD.
  Energy threshold   = 1.00e-08
  Density threshold  = 1.00e-08
  Integral threshold = 0.00e+00

  ==> Primary Basis <==

  Basis Set: JUN-CC-PVTZ
    Blend: JUN-CC-PVTZ
    Number of shells: 182
    Number of basis function: 494
    Number of Cartesian functions: 555
    Spherical Harmonics?: true
    Max angular momentum: 3

   => Loading Basis Set <=

    Name: (JUN-CC-PVTZ AUX)
    Role: JKFIT
    Keyword: DF_BASIS_SCF
    atoms 1, 7-11    entry C          line   152 file /home/r08543048/miniconda3/share/psi4/basis/jun-cc-pvtz-jkfit.gbs 
    atoms 2          entry O          line   272 file /home/r08543048/miniconda3/share/psi4/basis/jun-cc-pvtz-jkfit.gbs 
    atoms 3          entry N          line   212 file /home/r08543048/miniconda3/share/psi4/basis/jun-cc-pvtz-jkfit.gbs 
    atoms 4-6, 12-21 entry H          line    70 file /home/r08543048/miniconda3/share/psi4/basis/jun-cc-pvtz-jkfit.gbs 

  ==> Pre-Iterations <==

   -------------------------------------------------------
    Irrep   Nso     Nmo     Nalpha   Nbeta   Ndocc  Nsocc
   -------------------------------------------------------
     A        494     494       0       0       0       0
   -------------------------------------------------------
    Total     494     494      20      20      20       0
   -------------------------------------------------------

  ==> Integral Setup <==

  ==> DiskDFJK: Density-Fitted J/K Matrices <==

    J tasked:                  Yes
    K tasked:                  Yes
    wK tasked:                  No
    OpenMP threads:              1
    Integrals threads:           1
    Memory [MiB]:            15735
    Algorithm:                Core
    Integral Cache:           LOAD
    Schwarz Cutoff:          1E-12
    Fitting Condition:       1E-10

   => Auxiliary Basis Set <=

  Basis Set: (JUN-CC-PVTZ AUX)
    Blend: JUN-CC-PVTZ-JKFIT
    Number of shells: 362
    Number of basis function: 1150
    Number of Cartesian functions: 1383
    Spherical Harmonics?: true
    Max angular momentum: 4

  Minimum eigenvalue in the overlap matrix is 2.7921172845E-05.
  Using Symmetric Orthogonalization.

  SCF Guess: Superposition of Atomic Densities via on-the-fly atomic UHF.

  ==> Iterations <==

                           Total Energy        Delta E     RMS |[F,P]|

   @DF-RHF iter SAD:  -194.45425538341084   -1.94454e+02   0.00000e+00 
   @DF-RHF iter   1:  -194.99839074567231   -5.44135e-01   1.18103e-03 DIIS
   @DF-RHF iter   2:  -195.17526962421553   -1.76879e-01   5.18089e-04 DIIS
   @DF-RHF iter   3:  -195.20967169545443   -3.44021e-02   1.00005e-04 DIIS
   @DF-RHF iter   4:  -195.21201256239337   -2.34087e-03   3.36824e-05 DIIS
   @DF-RHF iter   5:  -195.21218325296530   -1.70691e-04   6.95403e-06 DIIS
   @DF-RHF iter   6:  -195.21219376409488   -1.05111e-05   1.59675e-06 DIIS
   @DF-RHF iter   7:  -195.21219426742255   -5.03328e-07   4.42913e-07 DIIS
   @DF-RHF iter   8:  -195.21219431081019   -4.33876e-08   9.91320e-08 DIIS
   @DF-RHF iter   9:  -195.21219431390182   -3.09163e-09   3.28424e-08 DIIS
   @DF-RHF iter  10:  -195.21219431430575   -4.03929e-10   1.11234e-08 DIIS
   @DF-RHF iter  11:  -195.21219431435290   -4.71516e-11   3.65173e-09 DIIS
  Energy and wave function converged.


  ==> Post-Iterations <==

    Orbital Energies [Eh]
    ---------------------

    Doubly Occupied:                                                      

       1A    -11.230991     2A    -11.222031     3A    -11.219580  
       4A    -11.217378     5A    -11.211471     6A     -1.089851  
       7A     -1.021672     8A     -0.922690     9A     -0.811862  
      10A     -0.756507    11A     -0.651464    12A     -0.616869  
      13A     -0.589605    14A     -0.566960    15A     -0.538811  
      16A     -0.510600    17A     -0.483673    18A     -0.473735  
      19A     -0.469781    20A     -0.355227  

    Virtual:                                                              

      21A      0.040726    22A      0.050783    23A      0.053344  
      24A      0.055161    25A      0.070950    26A      0.073906  
      27A      0.077831    28A      0.081822    29A      0.087089  
      30A      0.103188    31A      0.104712    32A      0.110092  
      33A      0.116619    34A      0.121285    35A      0.128114  
      36A      0.141190    37A      0.146129    38A      0.152574  
      39A      0.159846    40A      0.168335    41A      0.175829  
      42A      0.179578    43A      0.183921    44A      0.190521  
      45A      0.194246    46A      0.199831    47A      0.205532  
      48A      0.207548    49A      0.215255    50A      0.227077  
      51A      0.234244    52A      0.242358    53A      0.262524  
      54A      0.267094    55A      0.276975    56A      0.283541  
      57A      0.297682    58A      0.305182    59A      0.308144  
      60A      0.314087    61A      0.322215    62A      0.326493  
      63A      0.334581    64A      0.340865    65A      0.341840  
      66A      0.355766    67A      0.362492    68A      0.367514  
      69A      0.370954    70A      0.376567    71A      0.378572  
      72A      0.384413    73A      0.392215    74A      0.398846  
      75A      0.407777    76A      0.410118    77A      0.412926  
      78A      0.427564    79A      0.437119    80A      0.446087  
      81A      0.447817    82A      0.454030    83A      0.456722  
      84A      0.466819    85A      0.478068    86A      0.482258  
      87A      0.488880    88A      0.495362    89A      0.502955  
      90A      0.512565    91A      0.520467    92A      0.528750  
      93A      0.537441    94A      0.542576    95A      0.550682  
      96A      0.562069    97A      0.571387    98A      0.577407  
      99A      0.587040   100A      0.595650   101A      0.603519  
     102A      0.614935   103A      0.621808   104A      0.637566  
     105A      0.661363   106A      0.665226   107A      0.676538  
     108A      0.688828   109A      0.699946   110A      0.719677  
     111A      0.734213   112A      0.740060   113A      0.745792  
     114A      0.749304   115A      0.763584   116A      0.768938  
     117A      0.775586   118A      0.784539   119A      0.801350  
     120A      0.811256   121A      0.814227   122A      0.818036  
     123A      0.825270   124A      0.832570   125A      0.844070  
     126A      0.848612   127A      0.852463   128A      0.861183  
     129A      0.868897   130A      0.881325   131A      0.891215  
     132A      0.898055   133A      0.906423   134A      0.913250  
     135A      0.932127   136A      0.935917   137A      0.960944  
     138A      0.969992   139A      0.982271   140A      0.986456  
     141A      0.992001   142A      0.996525   143A      1.009003  
     144A      1.030936   145A      1.034231   146A      1.046968  
     147A      1.055550   148A      1.065533   149A      1.069044  
     150A      1.080332   151A      1.099980   152A      1.119946  
     153A      1.125989   154A      1.144173   155A      1.160053  
     156A      1.171155   157A      1.182934   158A      1.198277  
     159A      1.226865   160A      1.235975   161A      1.256077  
     162A      1.270978   163A      1.273084   164A      1.280744  
     165A      1.304187   166A      1.310015   167A      1.322588  
     168A      1.328173   169A      1.345029   170A      1.353007  
     171A      1.357461   172A      1.374703   173A      1.392029  
     174A      1.396558   175A      1.405658   176A      1.423819  
     177A      1.429723   178A      1.437195   179A      1.445092  
     180A      1.455994   181A      1.460561   182A      1.482512  
     183A      1.511666   184A      1.515942   185A      1.519670  
     186A      1.531476   187A      1.535149   188A      1.556796  
     189A      1.561679   190A      1.575801   191A      1.592314  
     192A      1.597089   193A      1.606975   194A      1.618036  
     195A      1.637877   196A      1.639175   197A      1.656019  
     198A      1.665599   199A      1.676472   200A      1.678429  
     201A      1.706419   202A      1.717728   203A      1.731238  
     204A      1.734149   205A      1.744477   206A      1.759411  
     207A      1.770751   208A      1.782489   209A      1.802882  
     210A      1.821378   211A      1.851308   212A      1.855687  
     213A      1.867346   214A      1.880006   215A      1.893994  
     216A      1.913493   217A      1.927869   218A      1.943646  
     219A      1.961068   220A      1.975650   221A      1.996527  
     222A      2.025811   223A      2.063441   224A      2.085360  
     225A      2.108732   226A      2.137346   227A      2.164275  
     228A      2.228900   229A      2.232731   230A      2.276941  
     231A      2.330399   232A      2.430049   233A      2.539367  
     234A      2.556618   235A      2.600519   236A      2.642565  
     237A      2.695601   238A      2.744832   239A      2.760813  
     240A      2.770650   241A      2.790968   242A      2.801758  
     243A      2.817016   244A      2.823488   245A      2.833285  
     246A      2.845058   247A      2.854423   248A      2.871065  
     249A      2.880437   250A      2.889213   251A      2.907124  
     252A      2.936528   253A      2.954936   254A      2.974547  
     255A      2.982802   256A      3.002868   257A      3.013887  
     258A      3.032362   259A      3.044850   260A      3.066197  
     261A      3.091555   262A      3.095501   263A      3.127136  
     264A      3.133794   265A      3.149645   266A      3.155494  
     267A      3.167916   268A      3.182953   269A      3.208169  
     270A      3.211429   271A      3.221208   272A      3.241137  
     273A      3.266133   274A      3.280703   275A      3.290451  
     276A      3.310425   277A      3.321067   278A      3.328281  
     279A      3.344134   280A      3.358378   281A      3.382627  
     282A      3.385100   283A      3.409806   284A      3.413397  
     285A      3.425200   286A      3.444643   287A      3.454887  
     288A      3.464921   289A      3.475372   290A      3.495956  
     291A      3.499681   292A      3.514225   293A      3.519056  
     294A      3.528263   295A      3.543775   296A      3.562791  
     297A      3.578034   298A      3.591294   299A      3.598363  
     300A      3.603123   301A      3.617347   302A      3.623537  
     303A      3.642944   304A      3.672103   305A      3.682979  
     306A      3.696621   307A      3.716285   308A      3.720283  
     309A      3.747231   310A      3.773389   311A      3.777439  
     312A      3.791905   313A      3.814679   314A      3.817242  
     315A      3.840503   316A      3.855426   317A      3.870794  
     318A      3.896272   319A      3.900216   320A      3.930178  
     321A      3.941511   322A      3.963538   323A      3.974926  
     324A      3.976882   325A      3.984475   326A      4.001208  
     327A      4.020981   328A      4.027537   329A      4.042631  
     330A      4.060484   331A      4.088584   332A      4.114337  
     333A      4.159014   334A      4.169064   335A      4.176412  
     336A      4.191037   337A      4.211974   338A      4.225002  
     339A      4.249372   340A      4.258284   341A      4.266508  
     342A      4.284727   343A      4.297459   344A      4.314335  
     345A      4.334853   346A      4.345200   347A      4.352737  
     348A      4.369336   349A      4.371718   350A      4.382663  
     351A      4.387827   352A      4.396745   353A      4.405185  
     354A      4.430690   355A      4.440696   356A      4.447583  
     357A      4.458363   358A      4.468317   359A      4.484973  
     360A      4.501551   361A      4.503871   362A      4.508024  
     363A      4.523785   364A      4.533992   365A      4.541900  
     366A      4.568961   367A      4.577287   368A      4.585327  
     369A      4.615764   370A      4.636853   371A      4.644869  
     372A      4.664921   373A      4.685979   374A      4.695840  
     375A      4.719024   376A      4.731638   377A      4.743783  
     378A      4.752289   379A      4.760531   380A      4.786976  
     381A      4.801541   382A      4.805118   383A      4.823931  
     384A      4.844534   385A      4.861147   386A      4.866748  
     387A      4.877941   388A      4.899150   389A      4.902685  
     390A      4.915966   391A      4.955081   392A      4.979890  
     393A      4.982618   394A      5.012850   395A      5.030638  
     396A      5.045740   397A      5.066572   398A      5.080858  
     399A      5.093250   400A      5.113927   401A      5.135747  
     402A      5.152667   403A      5.160233   404A      5.189390  
     405A      5.200908   406A      5.220735   407A      5.265828  
     408A      5.277774   409A      5.288252   410A      5.296547  
     411A      5.349714   412A      5.363592   413A      5.389159  
     414A      5.415919   415A      5.424006   416A      5.448907  
     417A      5.461015   418A      5.475174   419A      5.521033  
     420A      5.551647   421A      5.582094   422A      5.618080  
     423A      5.652556   424A      5.658708   425A      5.688456  
     426A      5.720343   427A      5.757577   428A      5.772160  
     429A      5.791491   430A      5.821952   431A      5.844311  
     432A      5.870036   433A      5.897569   434A      5.920935  
     435A      5.937040   436A      5.952160   437A      5.965736  
     438A      6.027854   439A      6.073052   440A      6.101769  
     441A      6.137045   442A      6.173824   443A      6.249411  
     444A      6.306883   445A      6.324372   446A      6.386779  
     447A      6.445510   448A      6.486113   449A      6.502986  
     450A      6.506739   451A      6.519915   452A      6.542348  
     453A      6.564785   454A      6.581746   455A      6.593831  
     456A      6.645144   457A      6.719430   458A      6.789854  
     459A      6.845266   460A      6.963766   461A      7.106554  
     462A      7.332862   463A      7.337048   464A      7.459367  
     465A      7.491151   466A      7.778102   467A      7.848739  
     468A      8.070417   469A      8.328808   470A      8.449864  
     471A      8.827583   472A      9.049782   473A      9.101566  
     474A      9.310842   475A      9.392517   476A      9.812401  
     477A      9.862084   478A      9.908442   479A     10.100885  
     480A     10.441256   481A     10.897253   482A     11.305867  
     483A     11.566724   484A     11.675737   485A     11.908671  
     486A     12.650120   487A     13.746056   488A     13.832941  
     489A     14.455230   490A     14.522903   491A     15.384038  
     492A     44.679846   493A     54.989549   494A     60.261556  

    Final Occupation by Irrep:
              A 
    DOCC [    20 ]

  @DF-RHF Final Energy:  -195.21219431435290

   => Energetics <=

    Nuclear Repulsion Energy =            170.5060129734078487
    One-Electron Energy =                -599.5149032214776526
    Two-Electron Energy =                 233.7966959337169044
    Total Energy =                       -195.2121943143528995

Computation Completed


Properties will be evaluated at   0.000000,   0.000000,   0.000000 [a0]

Properties computed using the SCF density matrix

  Nuclear Dipole Moment: [e a0]
     X:   114.4430      Y:    33.5447      Z:    -0.5536

  Electronic Dipole Moment: [e a0]
     X:  -114.3452      Y:   -33.7014      Z:     0.5697

  Dipole Moment: [e a0]
     X:     0.0978      Y:    -0.1567      Z:     0.0162     Total:     0.1854

  Dipole Moment: [D]
     X:     0.2485      Y:    -0.3982      Z:     0.0411     Total:     0.4712


*** tstop() called on r282 at Sat Sep 11 02:11:51 2021
Module time:
	user time   =      34.67 seconds =       0.58 minutes
	system time =       0.67 seconds =       0.01 minutes
	total time  =         35 seconds =       0.58 minutes
Total time:
	user time   =     131.42 seconds =       2.19 minutes
	system time =       2.67 seconds =       0.04 minutes
	total time  =        134 seconds =       2.23 minutes
  Constructing Basis Sets for SAPT...

   => Loading Basis Set <=

    Name: (JUN-CC-PVTZ AUX)
    Role: RIFIT
    Keyword: DF_BASIS_SAPT
    atoms 1, 7-11    entry C          line   132 file /home/r08543048/miniconda3/share/psi4/basis/jun-cc-pvtz-ri.gbs 
    atoms 2          entry O          line   244 file /home/r08543048/miniconda3/share/psi4/basis/jun-cc-pvtz-ri.gbs 
    atoms 3          entry N          line   188 file /home/r08543048/miniconda3/share/psi4/basis/jun-cc-pvtz-ri.gbs 
    atoms 4-6, 12-21 entry H          line    30 file /home/r08543048/miniconda3/share/psi4/basis/jun-cc-pvtz-ri.gbs 


  //>>>>>>>>>>>>>>>>>>>>>>>>>>>>>>>>>>>//
  //               SAPT0               //
  //<<<<<<<<<<<<<<<<<<<<<<<<<<<<<<<<<<<//


*** tstart() called on r282
*** at Sat Sep 11 02:11:51 2021

        SAPT0  
    Ed Hohenstein
     6 June 2009

      Orbital Information
  --------------------------
    NSO        =       494
    NMO        =       494
    NRI        =      1166
    NOCC A     =        12
    NOCC B     =        20
    FOCC A     =         0
    FOCC B     =         0
    NVIR A     =       482
    NVIR B     =       474

    Elst10,r            =    -0.009721601172 [Eh]
    Exch10              =     0.011639660168 [Eh]
    Exch10 (S^2)        =     0.011571838061 [Eh]

    Iter     Energy [mEh]          dE [mEh]         Residual      Time [s]
       1      -0.80005725       0.800057247       4.337722091             1
       2      -0.98162544       0.181568190       1.907770028             1
       3      -0.99962523       0.017999793       0.654981515             2
       4      -0.99378509      -0.005840142       0.292178864             3
       5      -0.99248047      -0.001304620       0.111198742             4
       6      -0.99310058       0.000620109       0.041509798             5
       7      -0.99331787       0.000217294       0.008314902             6
       8      -0.99324201      -0.000075862       0.001738357             7
       9      -0.99324487       0.000002858       0.000476184             7
      10      -0.99324698       0.000002109       0.000128759             8
      11      -0.99324679      -0.000000190       0.000036322             9
      12      -0.99324663      -0.000000157       0.000010859            10
      13      -0.99324668       0.000000054       0.000004405            11
      14      -0.99324667      -0.000000008       0.000001348            12
      15      -0.99324667      -0.000000003       0.000000385            13

    CHF Iterations converged


    Iter     Energy [mEh]          dE [mEh]         Residual      Time [s]
       1      -3.82285644       3.822856439      11.640374603             0
       2      -4.61894103       0.796084591       5.590179020             1
       3      -4.87210926       0.253168226       1.452525788             2
       4      -4.86348643      -0.008622821       0.469001313             3
       5      -4.84981987      -0.013666567       0.132823710             4
       6      -4.85011936       0.000299492       0.055181179             5
       7      -4.85135260       0.001233242       0.015625238             6
       8      -4.85116039      -0.000192213       0.004548875             7
       9      -4.85111258      -0.000047804       0.001218076             8
      10      -4.85112119       0.000008608       0.000308239             9
      11      -4.85112397       0.000002777       0.000074281            10
      12      -4.85112320      -0.000000768       0.000021339            11
      13      -4.85112309      -0.000000107       0.000006075            12
      14      -4.85112315       0.000000054       0.000001787            13
      15      -4.85112315       0.000000004       0.000000518            14

    CHF Iterations converged

    Ind20,r (A<-B)      =    -0.000993246672 [Eh]
    Ind20,r (B<-A)      =    -0.004851123152 [Eh]
    Ind20,r             =    -0.005844369824 [Eh]
    Exch-Ind20,r (A<-B) =     0.000768818378 [Eh]
    Exch-Ind20,r (B<-A) =     0.002924730571 [Eh]
    Exch-Ind20,r        =     0.003693548949 [Eh]
    Disp20              =    -0.008189867503 [Eh]
    Disp20 (SS)         =    -0.004094933751 [Eh]
    Disp20 (OS)         =    -0.004094933751 [Eh]
    Exch-Disp20         =     0.001106227069 [Eh]
    Exch-Disp20 (SS)    =     0.000720758759 [Eh]
    Exch-Disp20 (OS)    =     0.000385468309 [Eh]

    SAPT Results 
  --------------------------------------------------------------------------------------------------------
    Electrostatics                 -9.72160117 [mEh]      -6.10039684 [kcal/mol]     -25.52406036 [kJ/mol]
      Elst10,r                     -9.72160117 [mEh]      -6.10039684 [kcal/mol]     -25.52406036 [kJ/mol]

    Exchange                       11.63966017 [mEh]       7.30399703 [kcal/mol]      30.55992356 [kJ/mol]
      Exch10                       11.63966017 [mEh]       7.30399703 [kcal/mol]      30.55992356 [kJ/mol]
      Exch10(S^2)                  11.57183806 [mEh]       7.26143801 [kcal/mol]      30.38185664 [kJ/mol]

    Induction                      -3.67660665 [mEh]      -2.30710550 [kcal/mol]      -9.65292943 [kJ/mol]
      Ind20,r                      -5.84436982 [mEh]      -3.66739743 [kcal/mol]     -15.34439086 [kJ/mol]
      Exch-Ind20,r                  3.69354895 [mEh]       2.31773696 [kcal/mol]       9.69741143 [kJ/mol]
      delta HF,r (2)               -1.52578578 [mEh]      -0.95744503 [kcal/mol]      -4.00595000 [kJ/mol]

    Dispersion                     -7.08364043 [mEh]      -4.44505148 [kcal/mol]     -18.59809540 [kJ/mol]
      Disp20                       -8.18986750 [mEh]      -5.13921945 [kcal/mol]     -21.50249417 [kJ/mol]
      Exch-Disp20                   1.10622707 [mEh]       0.69416797 [kcal/mol]       2.90439877 [kJ/mol]
      Disp20 (SS)                  -4.09493375 [mEh]      -2.56960972 [kcal/mol]     -10.75124708 [kJ/mol]
      Disp20 (OS)                  -4.09493375 [mEh]      -2.56960972 [kcal/mol]     -10.75124708 [kJ/mol]
      Exch-Disp20 (SS)              0.72075876 [mEh]       0.45228295 [kcal/mol]       1.89235186 [kJ/mol]
      Exch-Disp20 (OS)              0.38546831 [mEh]       0.24188502 [kcal/mol]       1.01204691 [kJ/mol]

  Total HF                         -1.75854765 [mEh]      -1.10350531 [kcal/mol]      -4.61706623 [kJ/mol]
  Total SAPT0                      -8.84218809 [mEh]      -5.54855679 [kcal/mol]     -23.21516163 [kJ/mol]

  Special recipe for scaled SAPT0 (see Manual):
    Electrostatics sSAPT0          -9.72160117 [mEh]      -6.10039684 [kcal/mol]     -25.52406036 [kJ/mol]
    Exchange sSAPT0                11.63966017 [mEh]       7.30399703 [kcal/mol]      30.55992356 [kJ/mol]
    Induction sSAPT0               -3.61128202 [mEh]      -2.26611368 [kcal/mol]      -9.48141965 [kJ/mol]
    Dispersion sSAPT0              -7.06407555 [mEh]      -4.43277433 [kcal/mol]     -18.54672779 [kJ/mol]
  Total sSAPT0                     -8.75729857 [mEh]      -5.49528782 [kcal/mol]     -22.99228423 [kJ/mol]
  --------------------------------------------------------------------------------------------------------

*** tstop() called on r282 at Sat Sep 11 02:13:47 2021
Module time:
	user time   =      96.76 seconds =       1.61 minutes
	system time =      17.28 seconds =       0.29 minutes
	total time  =        116 seconds =       1.93 minutes
Total time:
	user time   =     228.31 seconds =       3.81 minutes
	system time =      19.95 seconds =       0.33 minutes
	total time  =        250 seconds =       4.17 minutes

    Psi4 stopped on: Saturday, 11 September 2021 02:13AM
    Psi4 wall time for execution: 0:04:09.89

*** Psi4 exiting successfully. Buy a developer a beer!
