
    -----------------------------------------------------------------------
          Psi4: An Open-Source Ab Initio Electronic Structure Package
                               Psi4 1.3.2 release

                         Git: Rev {HEAD} ecbda83 


    R. M. Parrish, L. A. Burns, D. G. A. Smith, A. C. Simmonett,
    A. E. DePrince III, E. G. Hohenstein, U. Bozkaya, A. Yu. Sokolov,
    R. Di Remigio, R. M. Richard, J. F. Gonthier, A. M. James,
    H. R. McAlexander, A. Kumar, M. Saitow, X. Wang, B. P. Pritchard,
    P. Verma, H. F. Schaefer III, K. Patkowski, R. A. King, E. F. Valeev,
    F. A. Evangelista, J. M. Turney, T. D. Crawford, and C. D. Sherrill,
    J. Chem. Theory Comput. 13(7) pp 3185--3197 (2017).
    (doi: 10.1021/acs.jctc.7b00174)


                         Additional Contributions by
    P. Kraus, H. Kruse, M. H. Lechner, M. C. Schieber, R. A. Shaw,
    A. Alenaizan, R. Galvelis, Z. L. Glick, S. Lehtola, and J. P. Misiewicz

    -----------------------------------------------------------------------


    Psi4 started on: Saturday, 11 September 2021 02:20AM

    Process ID: 57511
    Host:       r282
    PSIDATADIR: /home/r08543048/miniconda3/share/psi4
    Memory:     500.0 MiB
    Threads:    1
    
  ==> Input File <==

--------------------------------------------------------------------------
# Any line starting with the # character is a comment line
#! Sample  computation

memory 22 gb

molecule Dimer {
0 1
 C  -3.669070   -0.973504   -0.169472
 C  -2.325398   -0.338410    0.100818
 O  -1.491665   -0.870964    0.824697
 N  -2.098809    0.852606   -0.515482
 H  -4.308640   -0.374646   -0.813971
 H  -3.502919   -1.945351   -0.629602
 H  -4.168197   -1.138988    0.782765
 H  -1.221769    1.328351   -0.356469
 H  -2.797839    1.285898   -1.088588
 
 
 
  
  
  
  
  
    
    
 --
0 1
 C   1.081200    2.579907   -0.000065
 C   1.083086    1.316882    0.443406
 C   1.552662    0.135699   -0.339868
 C   2.704388   -0.590208    0.357160
 C   3.147072   -1.824805   -0.417358
 H   1.431402    2.821049   -0.996528
 H   0.743254    3.396254    0.623927
 H   0.724078    1.109011    1.447472
 H   0.721357   -0.567282   -0.449672
 H   1.864021    0.451868   -1.339497
 H   3.542907    0.099479    0.478747
 H   2.382982   -0.878150    1.360840
 H   2.321028   -2.529231   -0.519960
 H   3.482061   -1.554077   -1.419545
 H   3.967617   -2.338079    0.083155




units angstrom

no_reorient
symmetry c1
}

set globals{
  basis jun-cc-pvtz
}

energy('sapt0')


--------------------------------------------------------------------------

  Memory set to  20.489 GiB by Python driver.

  //>>>>>>>>>>>>>>>>>>>>>>>>>>>>>>>>>>>//
  //              Dimer HF             //
  //<<<<<<<<<<<<<<<<<<<<<<<<<<<<<<<<<<<//


*** tstart() called on r282
*** at Sat Sep 11 02:20:24 2021

   => Loading Basis Set <=

    Name: JUN-CC-PVTZ
    Role: ORBITAL
    Keyword: BASIS
    atoms 1-2, 10-14 entry C          line   217 file /home/r08543048/miniconda3/share/psi4/basis/jun-cc-pvtz.gbs 
    atoms 3          entry O          line   305 file /home/r08543048/miniconda3/share/psi4/basis/jun-cc-pvtz.gbs 
    atoms 4          entry N          line   261 file /home/r08543048/miniconda3/share/psi4/basis/jun-cc-pvtz.gbs 
    atoms 5-9, 15-24 entry H          line    36 file /home/r08543048/miniconda3/share/psi4/basis/jun-cc-pvtz.gbs 


         ---------------------------------------------------------
                                   SCF
               by Justin Turney, Rob Parrish, Andy Simmonett
                          and Daniel G. A. Smith
                              RHF Reference
                        1 Threads,  20980 MiB Core
         ---------------------------------------------------------

  ==> Geometry <==

    Molecular point group: c1
    Full point group: C1

    Geometry (in Angstrom), charge = 0, multiplicity = 1:

       Center              X                  Y                   Z               Mass       
    ------------   -----------------  -----------------  -----------------  -----------------
         C           -3.629263235532    -0.979966614703    -0.191227369627    12.000000000000
         C           -2.285591235532    -0.344872614703     0.079062630373    12.000000000000
         O           -1.451858235532    -0.877426614703     0.802941630373    15.994914619570
         N           -2.059002235532     0.846143385297    -0.537237369627    14.003074004430
         H           -4.268833235532    -0.381108614703    -0.835726369627     1.007825032230
         H           -3.463112235532    -1.951813614703    -0.651357369627     1.007825032230
         H           -4.128390235532    -1.145450614703     0.761009630373     1.007825032230
         H           -1.181962235532     1.321888385297    -0.378224369627     1.007825032230
         H           -2.758032235532     1.279435385297    -1.110343369627     1.007825032230
         C            1.121006764468     2.573444385297    -0.021820369627    12.000000000000
         C            1.122892764468     1.310419385297     0.421650630373    12.000000000000
         C            1.592468764468     0.129236385297    -0.361623369627    12.000000000000
         C            2.744194764468    -0.596670614703     0.335404630373    12.000000000000
         C            3.186878764468    -1.831267614703    -0.439113369627    12.000000000000
         H            1.471208764468     2.814586385297    -1.018283369627     1.007825032230
         H            0.783060764468     3.389791385297     0.602171630373     1.007825032230
         H            0.763884764468     1.102548385297     1.425716630373     1.007825032230
         H            0.761163764468    -0.573744614703    -0.471427369627     1.007825032230
         H            1.903827764468     0.445405385297    -1.361252369627     1.007825032230
         H            3.582713764468     0.093016385297     0.456991630373     1.007825032230
         H            2.422788764468    -0.884612614703     1.339084630373     1.007825032230
         H            2.360834764468    -2.535693614703    -0.541715369627     1.007825032230
         H            3.521867764468    -1.560539614703    -1.441300369627     1.007825032230
         H            4.007423764468    -2.344541614703     0.061399630373     1.007825032230

  Running in c1 symmetry.

  Rotational constants: A =      0.06469  B =      0.02279  C =      0.01813 [cm^-1]
  Rotational constants: A =   1939.26786  B =    683.33804  C =    543.64722 [MHz]
  Nuclear repulsion =  438.867258227469677

  Charge       = 0
  Multiplicity = 1
  Electrons    = 72
  Nalpha       = 36
  Nbeta        = 36

  ==> Algorithm <==

  SCF Algorithm Type is DF.
  DIIS enabled.
  MOM disabled.
  Fractional occupation disabled.
  Guess Type is SAD.
  Energy threshold   = 1.00e-08
  Density threshold  = 1.00e-08
  Integral threshold = 0.00e+00

  ==> Primary Basis <==

  Basis Set: JUN-CC-PVTZ
    Blend: JUN-CC-PVTZ
    Number of shells: 207
    Number of basis function: 561
    Number of Cartesian functions: 630
    Spherical Harmonics?: true
    Max angular momentum: 3

   => Loading Basis Set <=

    Name: (JUN-CC-PVTZ AUX)
    Role: JKFIT
    Keyword: DF_BASIS_SCF
    atoms 1-2, 10-14 entry C          line   152 file /home/r08543048/miniconda3/share/psi4/basis/jun-cc-pvtz-jkfit.gbs 
    atoms 3          entry O          line   272 file /home/r08543048/miniconda3/share/psi4/basis/jun-cc-pvtz-jkfit.gbs 
    atoms 4          entry N          line   212 file /home/r08543048/miniconda3/share/psi4/basis/jun-cc-pvtz-jkfit.gbs 
    atoms 5-9, 15-24 entry H          line    70 file /home/r08543048/miniconda3/share/psi4/basis/jun-cc-pvtz-jkfit.gbs 

  ==> Pre-Iterations <==

   -------------------------------------------------------
    Irrep   Nso     Nmo     Nalpha   Nbeta   Ndocc  Nsocc
   -------------------------------------------------------
     A        561     561       0       0       0       0
   -------------------------------------------------------
    Total     561     561      36      36      36       0
   -------------------------------------------------------

  ==> Integral Setup <==

  ==> DiskDFJK: Density-Fitted J/K Matrices <==

    J tasked:                  Yes
    K tasked:                  Yes
    wK tasked:                  No
    OpenMP threads:              1
    Integrals threads:           1
    Memory [MiB]:            15735
    Algorithm:                Core
    Integral Cache:           SAVE
    Schwarz Cutoff:          1E-12
    Fitting Condition:       1E-10

   => Auxiliary Basis Set <=

  Basis Set: (JUN-CC-PVTZ AUX)
    Blend: JUN-CC-PVTZ-JKFIT
    Number of shells: 411
    Number of basis function: 1305
    Number of Cartesian functions: 1569
    Spherical Harmonics?: true
    Max angular momentum: 4

  Minimum eigenvalue in the overlap matrix is 2.6397972246E-05.
  Using Symmetric Orthogonalization.

  SCF Guess: Superposition of Atomic Densities via on-the-fly atomic UHF.

  ==> Iterations <==

                           Total Energy        Delta E     RMS |[F,P]|

   @DF-RHF iter SAD:  -401.82868704429916   -4.01829e+02   0.00000e+00 
   @DF-RHF iter   1:  -402.89620432817753   -1.06752e+00   1.48209e-03 DIIS
   @DF-RHF iter   2:  -403.19473734447479   -2.98533e-01   7.74428e-04 DIIS
   @DF-RHF iter   3:  -403.26947458342397   -7.47372e-02   1.68208e-04 DIIS
   @DF-RHF iter   4:  -403.27452834321491   -5.05376e-03   7.36898e-05 DIIS
   @DF-RHF iter   5:  -403.27550621767216   -9.77874e-04   1.15021e-05 DIIS
   @DF-RHF iter   6:  -403.27554818066932   -4.19630e-05   5.21664e-06 DIIS
   @DF-RHF iter   7:  -403.27555521335830   -7.03269e-06   1.69747e-06 DIIS
   @DF-RHF iter   8:  -403.27555653754303   -1.32418e-06   6.74259e-07 DIIS
   @DF-RHF iter   9:  -403.27555675382922   -2.16286e-07   2.40586e-07 DIIS
   @DF-RHF iter  10:  -403.27555677971088   -2.58817e-08   7.36811e-08 DIIS
   @DF-RHF iter  11:  -403.27555678171149   -2.00060e-09   1.90224e-08 DIIS
   @DF-RHF iter  12:  -403.27555678184012   -1.28637e-10   7.04350e-09 DIIS
  Energy and wave function converged.


  ==> Post-Iterations <==

    Orbital Energies [Eh]
    ---------------------

    Doubly Occupied:                                                      

       1A    -20.512822     2A    -15.580573     3A    -11.352139  
       4A    -11.236569     5A    -11.230499     6A    -11.217483  
       7A    -11.211573     8A    -11.210693     9A    -11.203207  
      10A     -1.373255    11A     -1.208461    12A     -1.084663  
      13A     -1.018222    14A     -1.004350    15A     -0.917093  
      16A     -0.804575    17A     -0.796960    18A     -0.753628  
      19A     -0.722964    20A     -0.664435    21A     -0.644864  
      22A     -0.614460    23A     -0.611336    24A     -0.585881  
      25A     -0.582970    26A     -0.562217    27A     -0.559237  
      28A     -0.533001    29A     -0.521266    30A     -0.504074  
      31A     -0.475277    32A     -0.466722    33A     -0.462384  
      34A     -0.422049    35A     -0.410763    36A     -0.357636  

    Virtual:                                                              

      37A      0.040518    38A      0.049360    39A      0.055396  
      40A      0.061613    41A      0.071117    42A      0.076572  
      43A      0.078113    44A      0.083862    45A      0.087851  
      46A      0.096304    47A      0.101834    48A      0.108634  
      49A      0.115675    50A      0.121033    51A      0.125099  
      52A      0.129360    53A      0.135783    54A      0.149765  
      55A      0.154779    56A      0.158352    57A      0.167015  
      58A      0.169380    59A      0.171457    60A      0.180326  
      61A      0.186929    62A      0.193684    63A      0.196885  
      64A      0.198323    65A      0.205484    66A      0.211559  
      67A      0.217687    68A      0.229293    69A      0.244514  
      70A      0.248272    71A      0.253211    72A      0.269692  
      73A      0.277211    74A      0.280878    75A      0.284120  
      76A      0.289021    77A      0.295140    78A      0.300990  
      79A      0.301589    80A      0.309102    81A      0.314922  
      82A      0.317994    83A      0.322371    84A      0.325103  
      85A      0.335872    86A      0.338927    87A      0.344468  
      88A      0.348263    89A      0.349506    90A      0.353876  
      91A      0.358697    92A      0.370497    93A      0.379216  
      94A      0.388602    95A      0.389802    96A      0.396936  
      97A      0.398480    98A      0.407034    99A      0.409218  
     100A      0.420985   101A      0.428024   102A      0.432610  
     103A      0.436246   104A      0.442582   105A      0.457147  
     106A      0.459315   107A      0.462354   108A      0.477038  
     109A      0.483957   110A      0.490373   111A      0.496879  
     112A      0.505909   113A      0.510409   114A      0.519556  
     115A      0.521321   116A      0.538154   117A      0.539432  
     118A      0.548748   119A      0.550616   120A      0.561003  
     121A      0.562824   122A      0.581556   123A      0.589432  
     124A      0.598284   125A      0.598824   126A      0.607887  
     127A      0.612710   128A      0.620222   129A      0.626289  
     130A      0.637027   131A      0.646227   132A      0.657269  
     133A      0.661376   134A      0.673700   135A      0.677946  
     136A      0.683323   137A      0.689379   138A      0.705571  
     139A      0.708629   140A      0.718064   141A      0.729268  
     142A      0.732875   143A      0.739709   144A      0.751668  
     145A      0.761682   146A      0.763225   147A      0.775058  
     148A      0.784253   149A      0.793942   150A      0.804335  
     151A      0.812252   152A      0.815150   153A      0.826127  
     154A      0.837963   155A      0.847090   156A      0.850334  
     157A      0.854527   158A      0.860536   159A      0.870281  
     160A      0.873808   161A      0.882847   162A      0.895524  
     163A      0.900513   164A      0.902467   165A      0.909581  
     166A      0.920242   167A      0.932736   168A      0.938243  
     169A      0.943364   170A      0.970735   171A      0.974038  
     172A      0.986866   173A      0.998505   174A      1.018673  
     175A      1.020747   176A      1.031633   177A      1.042710  
     178A      1.052073   179A      1.052431   180A      1.062205  
     181A      1.073451   182A      1.086733   183A      1.101661  
     184A      1.104101   185A      1.112169   186A      1.132603  
     187A      1.136827   188A      1.146806   189A      1.153741  
     190A      1.168485   191A      1.178997   192A      1.200219  
     193A      1.211349   194A      1.219367   195A      1.227206  
     196A      1.244475   197A      1.255775   198A      1.262635  
     199A      1.276361   200A      1.285501   201A      1.294421  
     202A      1.308206   203A      1.313294   204A      1.315470  
     205A      1.326232   206A      1.347282   207A      1.347336  
     208A      1.359480   209A      1.366240   210A      1.370674  
     211A      1.389553   212A      1.398181   213A      1.399075  
     214A      1.406096   215A      1.412944   216A      1.419250  
     217A      1.434759   218A      1.441037   219A      1.448754  
     220A      1.456270   221A      1.462258   222A      1.476374  
     223A      1.486673   224A      1.499246   225A      1.511704  
     226A      1.523182   227A      1.537752   228A      1.541548  
     229A      1.551831   230A      1.562813   231A      1.566638  
     232A      1.576117   233A      1.579658   234A      1.597346  
     235A      1.607772   236A      1.608528   237A      1.630311  
     238A      1.636333   239A      1.637940   240A      1.654705  
     241A      1.663889   242A      1.673519   243A      1.685669  
     244A      1.697865   245A      1.709773   246A      1.725684  
     247A      1.730566   248A      1.745794   249A      1.755770  
     250A      1.775915   251A      1.789616   252A      1.793083  
     253A      1.800349   254A      1.840673   255A      1.850459  
     256A      1.855753   257A      1.879690   258A      1.890842  
     259A      1.905349   260A      1.919642   261A      1.923693  
     262A      1.933462   263A      1.956776   264A      1.969406  
     265A      1.978310   266A      1.995472   267A      2.010178  
     268A      2.047390   269A      2.075462   270A      2.120040  
     271A      2.140160   272A      2.156850   273A      2.167737  
     274A      2.245708   275A      2.289342   276A      2.292988  
     277A      2.385819   278A      2.445981   279A      2.490706  
     280A      2.591917   281A      2.639420   282A      2.725061  
     283A      2.750302   284A      2.763762   285A      2.777025  
     286A      2.788088   287A      2.802885   288A      2.809593  
     289A      2.838179   290A      2.842010   291A      2.852750  
     292A      2.856119   293A      2.870952   294A      2.894221  
     295A      2.898193   296A      2.929130   297A      2.934096  
     298A      2.959270   299A      2.968445   300A      2.981340  
     301A      2.990565   302A      3.004055   303A      3.008806  
     304A      3.036159   305A      3.051561   306A      3.069872  
     307A      3.082988   308A      3.091710   309A      3.101583  
     310A      3.124133   311A      3.138669   312A      3.142779  
     313A      3.147419   314A      3.156180   315A      3.174278  
     316A      3.180241   317A      3.196174   318A      3.210934  
     319A      3.217146   320A      3.219466   321A      3.228200  
     322A      3.247576   323A      3.260104   324A      3.277381  
     325A      3.278695   326A      3.285684   327A      3.296390  
     328A      3.317163   329A      3.322593   330A      3.332910  
     331A      3.347700   332A      3.358419   333A      3.365205  
     334A      3.386400   335A      3.396889   336A      3.397199  
     337A      3.409511   338A      3.413327   339A      3.421445  
     340A      3.434867   341A      3.445124   342A      3.452161  
     343A      3.456903   344A      3.472299   345A      3.483909  
     346A      3.497881   347A      3.505382   348A      3.513184  
     349A      3.516723   350A      3.522757   351A      3.527742  
     352A      3.537396   353A      3.545083   354A      3.549885  
     355A      3.561740   356A      3.569740   357A      3.575858  
     358A      3.589406   359A      3.598050   360A      3.613430  
     361A      3.617962   362A      3.624002   363A      3.630513  
     364A      3.642387   365A      3.654219   366A      3.662915  
     367A      3.668590   368A      3.674926   369A      3.686876  
     370A      3.693997   371A      3.731496   372A      3.734684  
     373A      3.758624   374A      3.777686   375A      3.783714  
     376A      3.786590   377A      3.810334   378A      3.820665  
     379A      3.825732   380A      3.835756   381A      3.852699  
     382A      3.866442   383A      3.871478   384A      3.884791  
     385A      3.905511   386A      3.910435   387A      3.937383  
     388A      3.947949   389A      3.965974   390A      3.974416  
     391A      3.982895   392A      3.993769   393A      3.999217  
     394A      4.010849   395A      4.022045   396A      4.046883  
     397A      4.063922   398A      4.072822   399A      4.093280  
     400A      4.111309   401A      4.126196   402A      4.141466  
     403A      4.166457   404A      4.176353   405A      4.184748  
     406A      4.187723   407A      4.205324   408A      4.216115  
     409A      4.230659   410A      4.240758   411A      4.255484  
     412A      4.270801   413A      4.283459   414A      4.302016  
     415A      4.305414   416A      4.314629   417A      4.331826  
     418A      4.344320   419A      4.352875   420A      4.359462  
     421A      4.365087   422A      4.371045   423A      4.378731  
     424A      4.390481   425A      4.399860   426A      4.405298  
     427A      4.421402   428A      4.423278   429A      4.441739  
     430A      4.444875   431A      4.458599   432A      4.467577  
     433A      4.472582   434A      4.490735   435A      4.501810  
     436A      4.507153   437A      4.516442   438A      4.518758  
     439A      4.528981   440A      4.544278   441A      4.550705  
     442A      4.574778   443A      4.584729   444A      4.590168  
     445A      4.602362   446A      4.625195   447A      4.633054  
     448A      4.644722   449A      4.663481   450A      4.691593  
     451A      4.705352   452A      4.722146   453A      4.732789  
     454A      4.751013   455A      4.756175   456A      4.771720  
     457A      4.793728   458A      4.801726   459A      4.812459  
     460A      4.826831   461A      4.851467   462A      4.887398  
     463A      4.911342   464A      4.914562   465A      4.919132  
     466A      4.950093   467A      4.976838   468A      4.996202  
     469A      5.028167   470A      5.051406   471A      5.078820  
     472A      5.133177   473A      5.134696   474A      5.147294  
     475A      5.158113   476A      5.194156   477A      5.201562  
     478A      5.214491   479A      5.219626   480A      5.224363  
     481A      5.236414   482A      5.271036   483A      5.276844  
     484A      5.287607   485A      5.300209   486A      5.303044  
     487A      5.325857   488A      5.357662   489A      5.370272  
     490A      5.394275   491A      5.414995   492A      5.426701  
     493A      5.433235   494A      5.460660   495A      5.465837  
     496A      5.486593   497A      5.494028   498A      5.525362  
     499A      5.538164   500A      5.573636   501A      5.581616  
     502A      5.610425   503A      5.627376   504A      5.646542  
     505A      5.660873   506A      5.684349   507A      5.688744  
     508A      5.708808   509A      5.728320   510A      5.744833  
     511A      5.767017   512A      5.774744   513A      5.781567  
     514A      5.800145   515A      5.857918   516A      5.869335  
     517A      5.886601   518A      5.923887   519A      5.931190  
     520A      5.948486   521A      5.961270   522A      5.974567  
     523A      5.998735   524A      6.045698   525A      6.070226  
     526A      6.097566   527A      6.146563   528A      6.215416  
     529A      6.242795   530A      6.265202   531A      6.292206  
     532A      6.391735   533A      6.434860   534A      6.445451  
     535A      6.495924   536A      6.516275   537A      6.531591  
     538A      6.583380   539A      6.593315   540A      6.639987  
     541A      6.708163   542A      6.723999   543A      6.783733  
     544A      6.805797   545A      7.210250   546A      7.304170  
     547A      7.352285   548A      7.454866   549A      7.499908  
     550A      7.510564   551A      7.755214   552A      7.813628  
     553A     12.307905   554A     12.639128   555A     13.837745  
     556A     13.912354   557A     14.471963   558A     14.538294  
     559A     14.803548   560A     15.405134   561A     15.721918  

    Final Occupation by Irrep:
              A 
    DOCC [    36 ]

  @DF-RHF Final Energy:  -403.27555678184012

   => Energetics <=

    Nuclear Repulsion Energy =            438.8672582274696765
    One-Electron Energy =               -1417.4490322206131623
    Two-Electron Energy =                 575.3062172113034194
    Total Energy =                       -403.2755567818401232

Computation Completed


Properties will be evaluated at   0.000000,   0.000000,   0.000000 [a0]

Properties computed using the SCF density matrix

  Nuclear Dipole Moment: [e a0]
     X:     5.4161      Y:    -0.8793      Z:    -2.9600

  Electronic Dipole Moment: [e a0]
     X:    -6.3197      Y:     1.5204      Z:     2.0778

  Dipole Moment: [e a0]
     X:    -0.9036      Y:     0.6411      Z:    -0.8822     Total:     1.4163

  Dipole Moment: [D]
     X:    -2.2968      Y:     1.6295      Z:    -2.2424     Total:     3.5998


*** tstop() called on r282 at Sat Sep 11 02:21:52 2021
Module time:
	user time   =      85.62 seconds =       1.43 minutes
	system time =       1.92 seconds =       0.03 minutes
	total time  =         88 seconds =       1.47 minutes
Total time:
	user time   =      85.62 seconds =       1.43 minutes
	system time =       1.92 seconds =       0.03 minutes
	total time  =         88 seconds =       1.47 minutes

  //>>>>>>>>>>>>>>>>>>>>>>>>>>>>>>>>>>>//
  //            Monomer A HF           //
  //<<<<<<<<<<<<<<<<<<<<<<<<<<<<<<<<<<<//


*** tstart() called on r282
*** at Sat Sep 11 02:21:52 2021

   => Loading Basis Set <=

    Name: JUN-CC-PVTZ
    Role: ORBITAL
    Keyword: BASIS
    atoms 1-2, 10-14 entry C          line   217 file /home/r08543048/miniconda3/share/psi4/basis/jun-cc-pvtz.gbs 
    atoms 3          entry O          line   305 file /home/r08543048/miniconda3/share/psi4/basis/jun-cc-pvtz.gbs 
    atoms 4          entry N          line   261 file /home/r08543048/miniconda3/share/psi4/basis/jun-cc-pvtz.gbs 
    atoms 5-9, 15-24 entry H          line    36 file /home/r08543048/miniconda3/share/psi4/basis/jun-cc-pvtz.gbs 


         ---------------------------------------------------------
                                   SCF
               by Justin Turney, Rob Parrish, Andy Simmonett
                          and Daniel G. A. Smith
                              RHF Reference
                        1 Threads,  20980 MiB Core
         ---------------------------------------------------------

  ==> Geometry <==

    Molecular point group: c1
    Full point group: C1

    Geometry (in Angstrom), charge = 0, multiplicity = 1:

       Center              X                  Y                   Z               Mass       
    ------------   -----------------  -----------------  -----------------  -----------------
         C           -3.629263235532    -0.979966614703    -0.191227369627    12.000000000000
         C           -2.285591235532    -0.344872614703     0.079062630373    12.000000000000
         O           -1.451858235532    -0.877426614703     0.802941630373    15.994914619570
         N           -2.059002235532     0.846143385297    -0.537237369627    14.003074004430
         H           -4.268833235532    -0.381108614703    -0.835726369627     1.007825032230
         H           -3.463112235532    -1.951813614703    -0.651357369627     1.007825032230
         H           -4.128390235532    -1.145450614703     0.761009630373     1.007825032230
         H           -1.181962235532     1.321888385297    -0.378224369627     1.007825032230
         H           -2.758032235532     1.279435385297    -1.110343369627     1.007825032230
      Gh(C)           1.121006764468     2.573444385297    -0.021820369627    12.000000000000
      Gh(C)           1.122892764468     1.310419385297     0.421650630373    12.000000000000
      Gh(C)           1.592468764468     0.129236385297    -0.361623369627    12.000000000000
      Gh(C)           2.744194764468    -0.596670614703     0.335404630373    12.000000000000
      Gh(C)           3.186878764468    -1.831267614703    -0.439113369627    12.000000000000
      Gh(H)           1.471208764468     2.814586385297    -1.018283369627     1.007825032230
      Gh(H)           0.783060764468     3.389791385297     0.602171630373     1.007825032230
      Gh(H)           0.763884764468     1.102548385297     1.425716630373     1.007825032230
      Gh(H)           0.761163764468    -0.573744614703    -0.471427369627     1.007825032230
      Gh(H)           1.903827764468     0.445405385297    -1.361252369627     1.007825032230
      Gh(H)           3.582713764468     0.093016385297     0.456991630373     1.007825032230
      Gh(H)           2.422788764468    -0.884612614703     1.339084630373     1.007825032230
      Gh(H)           2.360834764468    -2.535693614703    -0.541715369627     1.007825032230
      Gh(H)           3.521867764468    -1.560539614703    -1.441300369627     1.007825032230
      Gh(H)           4.007423764468    -2.344541614703     0.061399630373     1.007825032230

  Running in c1 symmetry.

  Rotational constants: A =      0.06469  B =      0.02279  C =      0.01813 [cm^-1]
  Rotational constants: A =   1939.26786  B =    683.33804  C =    543.64722 [MHz]
  Nuclear repulsion =  121.728911305793346

  Charge       = 0
  Multiplicity = 1
  Electrons    = 32
  Nalpha       = 16
  Nbeta        = 16

  ==> Algorithm <==

  SCF Algorithm Type is DF.
  DIIS enabled.
  MOM disabled.
  Fractional occupation disabled.
  Guess Type is SAD.
  Energy threshold   = 1.00e-08
  Density threshold  = 1.00e-08
  Integral threshold = 0.00e+00

  ==> Primary Basis <==

  Basis Set: JUN-CC-PVTZ
    Blend: JUN-CC-PVTZ
    Number of shells: 207
    Number of basis function: 561
    Number of Cartesian functions: 630
    Spherical Harmonics?: true
    Max angular momentum: 3

   => Loading Basis Set <=

    Name: (JUN-CC-PVTZ AUX)
    Role: JKFIT
    Keyword: DF_BASIS_SCF
    atoms 1-2, 10-14 entry C          line   152 file /home/r08543048/miniconda3/share/psi4/basis/jun-cc-pvtz-jkfit.gbs 
    atoms 3          entry O          line   272 file /home/r08543048/miniconda3/share/psi4/basis/jun-cc-pvtz-jkfit.gbs 
    atoms 4          entry N          line   212 file /home/r08543048/miniconda3/share/psi4/basis/jun-cc-pvtz-jkfit.gbs 
    atoms 5-9, 15-24 entry H          line    70 file /home/r08543048/miniconda3/share/psi4/basis/jun-cc-pvtz-jkfit.gbs 

  ==> Pre-Iterations <==

   -------------------------------------------------------
    Irrep   Nso     Nmo     Nalpha   Nbeta   Ndocc  Nsocc
   -------------------------------------------------------
     A        561     561       0       0       0       0
   -------------------------------------------------------
    Total     561     561      16      16      16       0
   -------------------------------------------------------

  ==> Integral Setup <==

  ==> DiskDFJK: Density-Fitted J/K Matrices <==

    J tasked:                  Yes
    K tasked:                  Yes
    wK tasked:                  No
    OpenMP threads:              1
    Integrals threads:           1
    Memory [MiB]:            15735
    Algorithm:                Core
    Integral Cache:           LOAD
    Schwarz Cutoff:          1E-12
    Fitting Condition:       1E-10

   => Auxiliary Basis Set <=

  Basis Set: (JUN-CC-PVTZ AUX)
    Blend: JUN-CC-PVTZ-JKFIT
    Number of shells: 411
    Number of basis function: 1305
    Number of Cartesian functions: 1569
    Spherical Harmonics?: true
    Max angular momentum: 4

  Minimum eigenvalue in the overlap matrix is 2.6397972246E-05.
  Using Symmetric Orthogonalization.

  SCF Guess: Superposition of Atomic Densities via on-the-fly atomic UHF.

  ==> Iterations <==

                           Total Energy        Delta E     RMS |[F,P]|

   @DF-RHF iter SAD:  -207.24081425448458   -2.07241e+02   0.00000e+00 
   @DF-RHF iter   1:  -207.88830454928410   -6.47490e-01   1.07734e-03 DIIS
   @DF-RHF iter   2:  -208.01612323856153   -1.27819e-01   6.43831e-04 DIIS
   @DF-RHF iter   3:  -208.05897523344751   -4.28520e-02   1.18818e-04 DIIS
   @DF-RHF iter   4:  -208.06141463139934   -2.43940e-03   4.84724e-05 DIIS
   @DF-RHF iter   5:  -208.06191138585473   -4.96754e-04   9.06489e-06 DIIS
   @DF-RHF iter   6:  -208.06194231141401   -3.09256e-05   4.32155e-06 DIIS
   @DF-RHF iter   7:  -208.06194803981475   -5.72840e-06   1.62902e-06 DIIS
   @DF-RHF iter   8:  -208.06194927859411   -1.23878e-06   5.25439e-07 DIIS
   @DF-RHF iter   9:  -208.06194942904469   -1.50451e-07   1.34320e-07 DIIS
   @DF-RHF iter  10:  -208.06194943649353   -7.44885e-09   4.36389e-08 DIIS
   @DF-RHF iter  11:  -208.06194943716130   -6.67768e-10   1.12406e-08 DIIS
   @DF-RHF iter  12:  -208.06194943720504   -4.37410e-11   2.30493e-09 DIIS
  Energy and wave function converged.


  ==> Post-Iterations <==

    Orbital Energies [Eh]
    ---------------------

    Doubly Occupied:                                                      

       1A    -20.514758     2A    -15.589735     3A    -11.354466  
       4A    -11.238665     5A     -1.374125     6A     -1.214421  
       7A     -1.006806     8A     -0.802147     9A     -0.728877  
      10A     -0.664425    11A     -0.615763    12A     -0.584083  
      13A     -0.564062    14A     -0.524475    15A     -0.423780  
      16A     -0.414788  

    Virtual:                                                              

      17A      0.028479    18A      0.041556    19A      0.043657  
      20A      0.055350    21A      0.066290    22A      0.071880  
      23A      0.072936    24A      0.078810    25A      0.084035  
      26A      0.092880    27A      0.099715    28A      0.105777  
      29A      0.108894    30A      0.114224    31A      0.120028  
      32A      0.129217    33A      0.130633    34A      0.138364  
      35A      0.143105    36A      0.150972    37A      0.155223  
      38A      0.159832    39A      0.166026    40A      0.170158  
      41A      0.176012    42A      0.176769    43A      0.180015  
      44A      0.189442    45A      0.194343    46A      0.197763  
      47A      0.204987    48A      0.215072    49A      0.236867  
      50A      0.242918    51A      0.248552    52A      0.270139  
      53A      0.272305    54A      0.278790    55A      0.284833  
      56A      0.285466    57A      0.291280    58A      0.299795  
      59A      0.303938    60A      0.309242    61A      0.313416  
      62A      0.316165    63A      0.320867    64A      0.328108  
      65A      0.330592    66A      0.341025    67A      0.343953  
      68A      0.346585    69A      0.350229    70A      0.358634  
      71A      0.366971    72A      0.369762    73A      0.382665  
      74A      0.390129    75A      0.391312    76A      0.402553  
      77A      0.404398    78A      0.415227    79A      0.420338  
      80A      0.426419    81A      0.431729    82A      0.436903  
      83A      0.441697    84A      0.446370    85A      0.456286  
      86A      0.457715    87A      0.477561    88A      0.484779  
      89A      0.493845    90A      0.498176    91A      0.504352  
      92A      0.510720    93A      0.514333    94A      0.520984  
      95A      0.530072    96A      0.543380    97A      0.549839  
      98A      0.558467    99A      0.565686   100A      0.573664  
     101A      0.581530   102A      0.586802   103A      0.592515  
     104A      0.599769   105A      0.603265   106A      0.615647  
     107A      0.621382   108A      0.625817   109A      0.638543  
     110A      0.644951   111A      0.651458   112A      0.656208  
     113A      0.657731   114A      0.667814   115A      0.675039  
     116A      0.677962   117A      0.683679   118A      0.691442  
     119A      0.697447   120A      0.707724   121A      0.710541  
     122A      0.722729   123A      0.730446   124A      0.731579  
     125A      0.737024   126A      0.749985   127A      0.759951  
     128A      0.774559   129A      0.782739   130A      0.790848  
     131A      0.808223   132A      0.817422   133A      0.825100  
     134A      0.826408   135A      0.832797   136A      0.840941  
     137A      0.859407   138A      0.884742   139A      0.894544  
     140A      0.920289   141A      0.929436   142A      0.937914  
     143A      0.960133   144A      0.970328   145A      0.985213  
     146A      1.033191   147A      1.042842   148A      1.047033  
     149A      1.056668   150A      1.062655   151A      1.082590  
     152A      1.084120   153A      1.105558   154A      1.113859  
     155A      1.130748   156A      1.141435   157A      1.144759  
     158A      1.153333   159A      1.158809   160A      1.172225  
     161A      1.184178   162A      1.188236   163A      1.196134  
     164A      1.198644   165A      1.210177   166A      1.220911  
     167A      1.235586   168A      1.248812   169A      1.262670  
     170A      1.272947   171A      1.273983   172A      1.277052  
     173A      1.290163   174A      1.292049   175A      1.306702  
     176A      1.313283   177A      1.319517   178A      1.333904  
     179A      1.340210   180A      1.341729   181A      1.347054  
     182A      1.354497   183A      1.356682   184A      1.361961  
     185A      1.377493   186A      1.378268   187A      1.391481  
     188A      1.398435   189A      1.410989   190A      1.416673  
     191A      1.421679   192A      1.428706   193A      1.441047  
     194A      1.443017   195A      1.463943   196A      1.468962  
     197A      1.474779   198A      1.481331   199A      1.487933  
     200A      1.493441   201A      1.511422   202A      1.518782  
     203A      1.533295   204A      1.540917   205A      1.544723  
     206A      1.548464   207A      1.558644   208A      1.569863  
     209A      1.573570   210A      1.584373   211A      1.591019  
     212A      1.595864   213A      1.603879   214A      1.609814  
     215A      1.621923   216A      1.637258   217A      1.644779  
     218A      1.650780   219A      1.663580   220A      1.670283  
     221A      1.680872   222A      1.690631   223A      1.708589  
     224A      1.711923   225A      1.717639   226A      1.737187  
     227A      1.749624   228A      1.762439   229A      1.781744  
     230A      1.797053   231A      1.814264   232A      1.842578  
     233A      1.861521   234A      1.871485   235A      1.885655  
     236A      1.900829   237A      1.915486   238A      1.930239  
     239A      1.948558   240A      1.960835   241A      1.977145  
     242A      2.004565   243A      2.018362   244A      2.025460  
     245A      2.041872   246A      2.080369   247A      2.112322  
     248A      2.128471   249A      2.154528   250A      2.167985  
     251A      2.195775   252A      2.207051   253A      2.215139  
     254A      2.267554   255A      2.279957   256A      2.295975  
     257A      2.297876   258A      2.341718   259A      2.369073  
     260A      2.389042   261A      2.407340   262A      2.410175  
     263A      2.431978   264A      2.463409   265A      2.486007  
     266A      2.493480   267A      2.514151   268A      2.544508  
     269A      2.564743   270A      2.611983   271A      2.622633  
     272A      2.641060   273A      2.665332   274A      2.690586  
     275A      2.746495   276A      2.766423   277A      2.783057  
     278A      2.810783   279A      2.846109   280A      2.958353  
     281A      2.960905   282A      2.982649   283A      2.994954  
     284A      3.057877   285A      3.090540   286A      3.158012  
     287A      3.201821   288A      3.207188   289A      3.256986  
     290A      3.270561   291A      3.294853   292A      3.356925  
     293A      3.372869   294A      3.424407   295A      3.429327  
     296A      3.444737   297A      3.467316   298A      3.476425  
     299A      3.496129   300A      3.516639   301A      3.519962  
     302A      3.529202   303A      3.535883   304A      3.549226  
     305A      3.560295   306A      3.572227   307A      3.584927  
     308A      3.594914   309A      3.598998   310A      3.613945  
     311A      3.623251   312A      3.625769   313A      3.630340  
     314A      3.645093   315A      3.652908   316A      3.663895  
     317A      3.672935   318A      3.695654   319A      3.700735  
     320A      3.705748   321A      3.729663   322A      3.758051  
     323A      3.763051   324A      3.779315   325A      3.790691  
     326A      3.792194   327A      3.801324   328A      3.807428  
     329A      3.827824   330A      3.849020   331A      3.855824  
     332A      3.863015   333A      3.869020   334A      3.873180  
     335A      3.881972   336A      3.900712   337A      3.911819  
     338A      3.922791   339A      3.944545   340A      3.955715  
     341A      3.970288   342A      3.978538   343A      3.990519  
     344A      4.000051   345A      4.030174   346A      4.038567  
     347A      4.050951   348A      4.058058   349A      4.081633  
     350A      4.086886   351A      4.101885   352A      4.122565  
     353A      4.127092   354A      4.145107   355A      4.159299  
     356A      4.170242   357A      4.181641   358A      4.186863  
     359A      4.199377   360A      4.216975   361A      4.230478  
     362A      4.243458   363A      4.248201   364A      4.259652  
     365A      4.275975   366A      4.291463   367A      4.300051  
     368A      4.312321   369A      4.325326   370A      4.332182  
     371A      4.364289   372A      4.379995   373A      4.395547  
     374A      4.401423   375A      4.407032   376A      4.416775  
     377A      4.423130   378A      4.438195   379A      4.459547  
     380A      4.467038   381A      4.473554   382A      4.482928  
     383A      4.496318   384A      4.513554   385A      4.514754  
     386A      4.527965   387A      4.538635   388A      4.551804  
     389A      4.565193   390A      4.575375   391A      4.581602  
     392A      4.589562   393A      4.602949   394A      4.609224  
     395A      4.617843   396A      4.627395   397A      4.631569  
     398A      4.639047   399A      4.657423   400A      4.666859  
     401A      4.679694   402A      4.702490   403A      4.714108  
     404A      4.721913   405A      4.727329   406A      4.740967  
     407A      4.749470   408A      4.760391   409A      4.770052  
     410A      4.778237   411A      4.786288   412A      4.789415  
     413A      4.798097   414A      4.805632   415A      4.814035  
     416A      4.825377   417A      4.835027   418A      4.857307  
     419A      4.869629   420A      4.877290   421A      4.881307  
     422A      4.892143   423A      4.896330   424A      4.912409  
     425A      4.927868   426A      4.930604   427A      4.947688  
     428A      4.961064   429A      4.970836   430A      4.988672  
     431A      4.990960   432A      5.002624   433A      5.026097  
     434A      5.030808   435A      5.046396   436A      5.063746  
     437A      5.095014   438A      5.105275   439A      5.130531  
     440A      5.135651   441A      5.145673   442A      5.154706  
     443A      5.176677   444A      5.198628   445A      5.206154  
     446A      5.211271   447A      5.218968   448A      5.230045  
     449A      5.243700   450A      5.265712   451A      5.294488  
     452A      5.299926   453A      5.329913   454A      5.339689  
     455A      5.366495   456A      5.400095   457A      5.411655  
     458A      5.433433   459A      5.449389   460A      5.464836  
     461A      5.481202   462A      5.488297   463A      5.500818  
     464A      5.532335   465A      5.562316   466A      5.575542  
     467A      5.588172   468A      5.613163   469A      5.652238  
     470A      5.672756   471A      5.675766   472A      5.685947  
     473A      5.689513   474A      5.700974   475A      5.719330  
     476A      5.738168   477A      5.743895   478A      5.775828  
     479A      5.796979   480A      5.851508   481A      5.874813  
     482A      5.879167   483A      5.922512   484A      5.962577  
     485A      5.990308   486A      5.997929   487A      6.010055  
     488A      6.051890   489A      6.057318   490A      6.073410  
     491A      6.080036   492A      6.097804   493A      6.127451  
     494A      6.203838   495A      6.230175   496A      6.231828  
     497A      6.248707   498A      6.280584   499A      6.287194  
     500A      6.344874   501A      6.362137   502A      6.398103  
     503A      6.421788   504A      6.434327   505A      6.445063  
     506A      6.453518   507A      6.464592   508A      6.536721  
     509A      6.580686   510A      6.672451   511A      6.701212  
     512A      6.708363   513A      6.763763   514A      6.785997  
     515A      6.798324   516A      6.803947   517A      6.826911  
     518A      6.957679   519A      7.028709   520A      7.117484  
     521A      7.204571   522A      7.303456   523A      7.349749  
     524A      7.355442   525A      7.397260   526A      7.451746  
     527A      7.468325   528A      7.499193   529A      7.512665  
     530A      7.545361   531A      7.577830   532A      7.653017  
     533A      7.691110   534A      7.711486   535A      7.742866  
     536A      7.757155   537A      7.815656   538A      7.832157  
     539A      7.889890   540A      7.919286   541A      7.983521  
     542A      8.055341   543A      8.169007   544A      8.332323  
     545A      8.387433   546A      8.639608   547A      8.872467  
     548A      9.496183   549A      9.653955   550A      9.802012  
     551A      9.885239   552A     10.225239   553A     12.335416  
     554A     13.908864   555A     14.802746   556A     15.685912  
     557A     41.740074   558A     44.139289   559A     45.536385  
     560A     45.894656   561A     47.304594  

    Final Occupation by Irrep:
              A 
    DOCC [    16 ]

  @DF-RHF Final Energy:  -208.06194943720504

   => Energetics <=

    Nuclear Repulsion Energy =            121.7289113057933463
    One-Electron Energy =                -524.3509682099185056
    Two-Electron Energy =                 194.5601074669201012
    Total Energy =                       -208.0619494372050440

Computation Completed


Properties will be evaluated at   0.000000,   0.000000,   0.000000 [a0]

Properties computed using the SCF density matrix

  Nuclear Dipole Moment: [e a0]
     X:  -146.1086      Y:   -18.7508      Z:    -0.4247

  Electronic Dipole Moment: [e a0]
     X:   145.1104      Y:    19.6741      Z:    -0.5867

  Dipole Moment: [e a0]
     X:    -0.9982      Y:     0.9233      Z:    -1.0114     Total:     1.6947

  Dipole Moment: [D]
     X:    -2.5372      Y:     2.3468      Z:    -2.5708     Total:     4.3074


*** tstop() called on r282 at Sat Sep 11 02:22:56 2021
Module time:
	user time   =      63.08 seconds =       1.05 minutes
	system time =       0.91 seconds =       0.02 minutes
	total time  =         64 seconds =       1.07 minutes
Total time:
	user time   =     148.70 seconds =       2.48 minutes
	system time =       2.83 seconds =       0.05 minutes
	total time  =        152 seconds =       2.53 minutes

  //>>>>>>>>>>>>>>>>>>>>>>>>>>>>>>>>>>>//
  //            Monomer B HF           //
  //<<<<<<<<<<<<<<<<<<<<<<<<<<<<<<<<<<<//


*** tstart() called on r282
*** at Sat Sep 11 02:22:56 2021

   => Loading Basis Set <=

    Name: JUN-CC-PVTZ
    Role: ORBITAL
    Keyword: BASIS
    atoms 1-2, 10-14 entry C          line   217 file /home/r08543048/miniconda3/share/psi4/basis/jun-cc-pvtz.gbs 
    atoms 3          entry O          line   305 file /home/r08543048/miniconda3/share/psi4/basis/jun-cc-pvtz.gbs 
    atoms 4          entry N          line   261 file /home/r08543048/miniconda3/share/psi4/basis/jun-cc-pvtz.gbs 
    atoms 5-9, 15-24 entry H          line    36 file /home/r08543048/miniconda3/share/psi4/basis/jun-cc-pvtz.gbs 


         ---------------------------------------------------------
                                   SCF
               by Justin Turney, Rob Parrish, Andy Simmonett
                          and Daniel G. A. Smith
                              RHF Reference
                        1 Threads,  20980 MiB Core
         ---------------------------------------------------------

  ==> Geometry <==

    Molecular point group: c1
    Full point group: C1

    Geometry (in Angstrom), charge = 0, multiplicity = 1:

       Center              X                  Y                   Z               Mass       
    ------------   -----------------  -----------------  -----------------  -----------------
      Gh(C)          -3.629263235532    -0.979966614703    -0.191227369627    12.000000000000
      Gh(C)          -2.285591235532    -0.344872614703     0.079062630373    12.000000000000
      Gh(O)          -1.451858235532    -0.877426614703     0.802941630373    15.994914619570
      Gh(N)          -2.059002235532     0.846143385297    -0.537237369627    14.003074004430
      Gh(H)          -4.268833235532    -0.381108614703    -0.835726369627     1.007825032230
      Gh(H)          -3.463112235532    -1.951813614703    -0.651357369627     1.007825032230
      Gh(H)          -4.128390235532    -1.145450614703     0.761009630373     1.007825032230
      Gh(H)          -1.181962235532     1.321888385297    -0.378224369627     1.007825032230
      Gh(H)          -2.758032235532     1.279435385297    -1.110343369627     1.007825032230
         C            1.121006764468     2.573444385297    -0.021820369627    12.000000000000
         C            1.122892764468     1.310419385297     0.421650630373    12.000000000000
         C            1.592468764468     0.129236385297    -0.361623369627    12.000000000000
         C            2.744194764468    -0.596670614703     0.335404630373    12.000000000000
         C            3.186878764468    -1.831267614703    -0.439113369627    12.000000000000
         H            1.471208764468     2.814586385297    -1.018283369627     1.007825032230
         H            0.783060764468     3.389791385297     0.602171630373     1.007825032230
         H            0.763884764468     1.102548385297     1.425716630373     1.007825032230
         H            0.761163764468    -0.573744614703    -0.471427369627     1.007825032230
         H            1.903827764468     0.445405385297    -1.361252369627     1.007825032230
         H            3.582713764468     0.093016385297     0.456991630373     1.007825032230
         H            2.422788764468    -0.884612614703     1.339084630373     1.007825032230
         H            2.360834764468    -2.535693614703    -0.541715369627     1.007825032230
         H            3.521867764468    -1.560539614703    -1.441300369627     1.007825032230
         H            4.007423764468    -2.344541614703     0.061399630373     1.007825032230

  Running in c1 symmetry.

  Rotational constants: A =      0.06469  B =      0.02279  C =      0.01813 [cm^-1]
  Rotational constants: A =   1939.26786  B =    683.33804  C =    543.64722 [MHz]
  Nuclear repulsion =  170.508409779336148

  Charge       = 0
  Multiplicity = 1
  Electrons    = 40
  Nalpha       = 20
  Nbeta        = 20

  ==> Algorithm <==

  SCF Algorithm Type is DF.
  DIIS enabled.
  MOM disabled.
  Fractional occupation disabled.
  Guess Type is SAD.
  Energy threshold   = 1.00e-08
  Density threshold  = 1.00e-08
  Integral threshold = 0.00e+00

  ==> Primary Basis <==

  Basis Set: JUN-CC-PVTZ
    Blend: JUN-CC-PVTZ
    Number of shells: 207
    Number of basis function: 561
    Number of Cartesian functions: 630
    Spherical Harmonics?: true
    Max angular momentum: 3

   => Loading Basis Set <=

    Name: (JUN-CC-PVTZ AUX)
    Role: JKFIT
    Keyword: DF_BASIS_SCF
    atoms 1-2, 10-14 entry C          line   152 file /home/r08543048/miniconda3/share/psi4/basis/jun-cc-pvtz-jkfit.gbs 
    atoms 3          entry O          line   272 file /home/r08543048/miniconda3/share/psi4/basis/jun-cc-pvtz-jkfit.gbs 
    atoms 4          entry N          line   212 file /home/r08543048/miniconda3/share/psi4/basis/jun-cc-pvtz-jkfit.gbs 
    atoms 5-9, 15-24 entry H          line    70 file /home/r08543048/miniconda3/share/psi4/basis/jun-cc-pvtz-jkfit.gbs 

  ==> Pre-Iterations <==

   -------------------------------------------------------
    Irrep   Nso     Nmo     Nalpha   Nbeta   Ndocc  Nsocc
   -------------------------------------------------------
     A        561     561       0       0       0       0
   -------------------------------------------------------
    Total     561     561      20      20      20       0
   -------------------------------------------------------

  ==> Integral Setup <==

  ==> DiskDFJK: Density-Fitted J/K Matrices <==

    J tasked:                  Yes
    K tasked:                  Yes
    wK tasked:                  No
    OpenMP threads:              1
    Integrals threads:           1
    Memory [MiB]:            15735
    Algorithm:                Core
    Integral Cache:           LOAD
    Schwarz Cutoff:          1E-12
    Fitting Condition:       1E-10

   => Auxiliary Basis Set <=

  Basis Set: (JUN-CC-PVTZ AUX)
    Blend: JUN-CC-PVTZ-JKFIT
    Number of shells: 411
    Number of basis function: 1305
    Number of Cartesian functions: 1569
    Spherical Harmonics?: true
    Max angular momentum: 4

  Minimum eigenvalue in the overlap matrix is 2.6397972246E-05.
  Using Symmetric Orthogonalization.

  SCF Guess: Superposition of Atomic Densities via on-the-fly atomic UHF.

  ==> Iterations <==

                           Total Energy        Delta E     RMS |[F,P]|

   @DF-RHF iter SAD:  -194.45534660694042   -1.94455e+02   0.00000e+00 
   @DF-RHF iter   1:  -194.99831488415188   -5.42968e-01   1.04014e-03 DIIS
   @DF-RHF iter   2:  -195.17526470515588   -1.76950e-01   4.56205e-04 DIIS
   @DF-RHF iter   3:  -195.20966640091052   -3.44017e-02   8.80643e-05 DIIS
   @DF-RHF iter   4:  -195.21200779907088   -2.34140e-03   2.96604e-05 DIIS
   @DF-RHF iter   5:  -195.21217852438954   -1.70725e-04   6.12636e-06 DIIS
   @DF-RHF iter   6:  -195.21218904707118   -1.05227e-05   1.40347e-06 DIIS
   @DF-RHF iter   7:  -195.21218955018244   -5.03111e-07   3.90910e-07 DIIS
   @DF-RHF iter   8:  -195.21218959380064   -4.36182e-08   8.77948e-08 DIIS
   @DF-RHF iter   9:  -195.21218959694056   -3.13992e-09   2.92710e-08 DIIS
   @DF-RHF iter  10:  -195.21218959735032   -4.09756e-10   9.89719e-09 DIIS
  Energy and wave function converged.


  ==> Post-Iterations <==

    Orbital Energies [Eh]
    ---------------------

    Doubly Occupied:                                                      

       1A    -11.230984     2A    -11.221933     3A    -11.219509  
       4A    -11.217394     5A    -11.211486     6A     -1.089920  
       7A     -1.021689     8A     -0.922691     9A     -0.811705  
      10A     -0.756703    11A     -0.651516    12A     -0.616860  
      13A     -0.589802    14A     -0.566816    15A     -0.538888  
      16A     -0.510773    17A     -0.483383    18A     -0.473882  
      19A     -0.469704    20A     -0.355257  

    Virtual:                                                              

      21A      0.033530    22A      0.050293    23A      0.050803  
      24A      0.052640    25A      0.065264    26A      0.070087  
      27A      0.073359    28A      0.078722    29A      0.085046  
      30A      0.093025    31A      0.096197    32A      0.102575  
      33A      0.109992    34A      0.119186    35A      0.120054  
      36A      0.127480    37A      0.130896    38A      0.139956  
      39A      0.141640    40A      0.150612    41A      0.158266  
      42A      0.159783    43A      0.175070    44A      0.175635  
      45A      0.180141    46A      0.182632    47A      0.192279  
      48A      0.192969    49A      0.202211    50A      0.206077  
      51A      0.214989    52A      0.219251    53A      0.225599  
      54A      0.230678    55A      0.235751    56A      0.241906  
      57A      0.257745    58A      0.262727    59A      0.281823  
      60A      0.288019    61A      0.295142    62A      0.298641  
      63A      0.309002    64A      0.312721    65A      0.313642  
      66A      0.321022    67A      0.327456    68A      0.332969  
      69A      0.341408    70A      0.346189    71A      0.346911  
      72A      0.356992    73A      0.361841    74A      0.366139  
      75A      0.368603    76A      0.371172    77A      0.380612  
      78A      0.385317    79A      0.392494    80A      0.397057  
      81A      0.401704    82A      0.406604    83A      0.414020  
      84A      0.420261    85A      0.423700    86A      0.431603  
      87A      0.434832    88A      0.445412    89A      0.450174  
      90A      0.456897    91A      0.459964    92A      0.465155  
      93A      0.481957    94A      0.486880    95A      0.491622  
      96A      0.493446    97A      0.498674    98A      0.505968  
      99A      0.515899   100A      0.523016   101A      0.535176  
     102A      0.537160   103A      0.542557   104A      0.546013  
     105A      0.565032   106A      0.571223   107A      0.579402  
     108A      0.581465   109A      0.593915   110A      0.594690  
     111A      0.605162   112A      0.614070   113A      0.621780  
     114A      0.638802   115A      0.648619   116A      0.654104  
     117A      0.665142   118A      0.671638   119A      0.684781  
     120A      0.692031   121A      0.695864   122A      0.710817  
     123A      0.725346   124A      0.741195   125A      0.743624  
     126A      0.750155   127A      0.760904   128A      0.768643  
     129A      0.780735   130A      0.785988   131A      0.792856  
     132A      0.814710   133A      0.819411   134A      0.824469  
     135A      0.827422   136A      0.836847   137A      0.840998  
     138A      0.844415   139A      0.854564   140A      0.862421  
     141A      0.863905   142A      0.874855   143A      0.887276  
     144A      0.889096   145A      0.897569   146A      0.900458  
     147A      0.915889   148A      0.927572   149A      0.933957  
     150A      0.945523   151A      0.948383   152A      0.979590  
     153A      0.982567   154A      0.996621   155A      1.001184  
     156A      1.008828   157A      1.019365   158A      1.033190  
     159A      1.039256   160A      1.049465   161A      1.058214  
     162A      1.074562   163A      1.083840   164A      1.093765  
     165A      1.097701   166A      1.107102   167A      1.114429  
     168A      1.127550   169A      1.133237   170A      1.144322  
     171A      1.158000   172A      1.161778   173A      1.174171  
     174A      1.201424   175A      1.210038   176A      1.219417  
     177A      1.231729   178A      1.242805   179A      1.262128  
     180A      1.269228   181A      1.275143   182A      1.283498  
     183A      1.296929   184A      1.303357   185A      1.315238  
     186A      1.331509   187A      1.345891   188A      1.351576  
     189A      1.352719   190A      1.360206   191A      1.368104  
     192A      1.380009   193A      1.383831   194A      1.401796  
     195A      1.411038   196A      1.414186   197A      1.420018  
     198A      1.436192   199A      1.442770   200A      1.454322  
     201A      1.464314   202A      1.471543   203A      1.490136  
     204A      1.509254   205A      1.517548   206A      1.524311  
     207A      1.528947   208A      1.533723   209A      1.542245  
     210A      1.559116   211A      1.561580   212A      1.568009  
     213A      1.571424   214A      1.589210   215A      1.600753  
     216A      1.602270   217A      1.617002   218A      1.629213  
     219A      1.655386   220A      1.656548   221A      1.675874  
     222A      1.680425   223A      1.686117   224A      1.689555  
     225A      1.695534   226A      1.727116   227A      1.740068  
     228A      1.742696   229A      1.753161   230A      1.760227  
     231A      1.777582   232A      1.787440   233A      1.795940  
     234A      1.810443   235A      1.824796   236A      1.828128  
     237A      1.858720   238A      1.865611   239A      1.886026  
     240A      1.890626   241A      1.900203   242A      1.916308  
     243A      1.928239   244A      1.938792   245A      1.960977  
     246A      1.973664   247A      1.985986   248A      1.997309  
     249A      2.006900   250A      2.035408   251A      2.067549  
     252A      2.078096   253A      2.108690   254A      2.120306  
     255A      2.143615   256A      2.163855   257A      2.240659  
     258A      2.286871   259A      2.332655   260A      2.360374  
     261A      2.390581   262A      2.420180   263A      2.458805  
     264A      2.573346   265A      2.583495   266A      2.609947  
     267A      2.677661   268A      2.742231   269A      2.754227  
     270A      2.764937   271A      2.787741   272A      2.799014  
     273A      2.804983   274A      2.816364   275A      2.832771  
     276A      2.841119   277A      2.854945   278A      2.868458  
     279A      2.876766   280A      2.894537   281A      2.904132  
     282A      2.919702   283A      2.932776   284A      2.961838  
     285A      2.975939   286A      2.986901   287A      2.999173  
     288A      3.037448   289A      3.045900   290A      3.055218  
     291A      3.061103   292A      3.086464   293A      3.095037  
     294A      3.120764   295A      3.133756   296A      3.143285  
     297A      3.157018   298A      3.158154   299A      3.173337  
     300A      3.206050   301A      3.215425   302A      3.221612  
     303A      3.237327   304A      3.261561   305A      3.276875  
     306A      3.294651   307A      3.312462   308A      3.320239  
     309A      3.323509   310A      3.346912   311A      3.358086  
     312A      3.369627   313A      3.389285   314A      3.392982  
     315A      3.411817   316A      3.414620   317A      3.440394  
     318A      3.455677   319A      3.467964   320A      3.475565  
     321A      3.496671   322A      3.496724   323A      3.502935  
     324A      3.520540   325A      3.526507   326A      3.532064  
     327A      3.552636   328A      3.570195   329A      3.577271  
     330A      3.587251   331A      3.588106   332A      3.592771  
     333A      3.601869   334A      3.607219   335A      3.618057  
     336A      3.621910   337A      3.633126   338A      3.646867  
     339A      3.671643   340A      3.685394   341A      3.694262  
     342A      3.720873   343A      3.726047   344A      3.751170  
     345A      3.775437   346A      3.783554   347A      3.815413  
     348A      3.819110   349A      3.839694   350A      3.841192  
     351A      3.856064   352A      3.863050   353A      3.878351  
     354A      3.884920   355A      3.899604   356A      3.907280  
     357A      3.918176   358A      3.939058   359A      3.948982  
     360A      3.970423   361A      3.978596   362A      3.988078  
     363A      4.003020   364A      4.008703   365A      4.014270  
     366A      4.042549   367A      4.049537   368A      4.071877  
     369A      4.083731   370A      4.093460   371A      4.114182  
     372A      4.158419   373A      4.171377   374A      4.175840  
     375A      4.186421   376A      4.216056   377A      4.220203  
     378A      4.233353   379A      4.249962   380A      4.262022  
     381A      4.274229   382A      4.284425   383A      4.295853  
     384A      4.305825   385A      4.312231   386A      4.316209  
     387A      4.334499   388A      4.343720   389A      4.346934  
     390A      4.356356   391A      4.370759   392A      4.372548  
     393A      4.392519   394A      4.397233   395A      4.406091  
     396A      4.428872   397A      4.439603   398A      4.451029  
     399A      4.454436   400A      4.474519   401A      4.498072  
     402A      4.504088   403A      4.504769   404A      4.514913  
     405A      4.517779   406A      4.529212   407A      4.535767  
     408A      4.568614   409A      4.574745   410A      4.585171  
     411A      4.614670   412A      4.618275   413A      4.625422  
     414A      4.646990   415A      4.658597   416A      4.672265  
     417A      4.684496   418A      4.698259   419A      4.725573  
     420A      4.739480   421A      4.748172   422A      4.753939  
     423A      4.759749   424A      4.772145   425A      4.776111  
     426A      4.780437   427A      4.789215   428A      4.792198  
     429A      4.806452   430A      4.826493   431A      4.829213  
     432A      4.844378   433A      4.863738   434A      4.875985  
     435A      4.890705   436A      4.897322   437A      4.898624  
     438A      4.913510   439A      4.933270   440A      4.941194  
     441A      4.948680   442A      4.986298   443A      4.996259  
     444A      5.006081   445A      5.024389   446A      5.042081  
     447A      5.051652   448A      5.063331   449A      5.076367  
     450A      5.118668   451A      5.126847   452A      5.132637  
     453A      5.142400   454A      5.167260   455A      5.181294  
     456A      5.189818   457A      5.198301   458A      5.205092  
     459A      5.221348   460A      5.253138   461A      5.273222  
     462A      5.280053   463A      5.289627   464A      5.298089  
     465A      5.352315   466A      5.365246   467A      5.391882  
     468A      5.418966   469A      5.425001   470A      5.440525  
     471A      5.455032   472A      5.481852   473A      5.520920  
     474A      5.563143   475A      5.607604   476A      5.619978  
     477A      5.651872   478A      5.655587   479A      5.666931  
     480A      5.688949   481A      5.724413   482A      5.758776  
     483A      5.773366   484A      5.792353   485A      5.846311  
     486A      5.862511   487A      5.873404   488A      5.917863  
     489A      5.921937   490A      5.941017   491A      5.952823  
     492A      5.967843   493A      5.977124   494A      6.029317  
     495A      6.042586   496A      6.072658   497A      6.138631  
     498A      6.145441   499A      6.200109   500A      6.236570  
     501A      6.258688   502A      6.301292   503A      6.352882  
     504A      6.389500   505A      6.444579   506A      6.457533  
     507A      6.485776   508A      6.487328   509A      6.507395  
     510A      6.518163   511A      6.524112   512A      6.554790  
     513A      6.584426   514A      6.618948   515A      6.630064  
     516A      6.707012   517A      6.730423   518A      6.739000  
     519A      6.855749   520A      6.961881   521A      7.087838  
     522A      7.332726   523A      7.356731   524A      7.439029  
     525A      7.451615   526A      7.537177   527A      7.545252  
     528A      7.713370   529A      7.824115   530A      7.837120  
     531A      7.868885   532A      7.886992   533A      8.033171  
     534A      8.269051   535A      8.463154   536A      8.796983  
     537A      9.087146   538A      9.128198   539A      9.160859  
     540A      9.442711   541A      9.836207   542A      9.842873  
     543A      9.924999   544A      9.959432   545A     10.146753  
     546A     10.519350   547A     10.960542   548A     11.427194  
     549A     11.610172   550A     11.653751   551A     11.979414  
     552A     12.670364   553A     13.832024   554A     13.848992  
     555A     14.467347   556A     14.530077   557A     15.403749  
     558A     42.848655   559A     46.181489   560A     55.293397  
     561A     60.855000  

    Final Occupation by Irrep:
              A 
    DOCC [    20 ]

  @DF-RHF Final Energy:  -195.21218959735032

   => Energetics <=

    Nuclear Repulsion Energy =            170.5084097793361479
    One-Electron Energy =                -599.5194077973005733
    Two-Electron Energy =                 233.7988084206141082
    Total Energy =                       -195.2121895973503172

Computation Completed


Properties will be evaluated at   0.000000,   0.000000,   0.000000 [a0]

Properties computed using the SCF density matrix

  Nuclear Dipole Moment: [e a0]
     X:   151.5247      Y:    17.8715      Z:    -2.5353

  Electronic Dipole Moment: [e a0]
     X:  -151.4679      Y:   -18.0468      Z:     2.5502

  Dipole Moment: [e a0]
     X:     0.0568      Y:    -0.1753      Z:     0.0149     Total:     0.1849

  Dipole Moment: [D]
     X:     0.1444      Y:    -0.4456      Z:     0.0379     Total:     0.4699


*** tstop() called on r282 at Sat Sep 11 02:23:49 2021
Module time:
	user time   =      52.43 seconds =       0.87 minutes
	system time =       0.88 seconds =       0.01 minutes
	total time  =         53 seconds =       0.88 minutes
Total time:
	user time   =     201.13 seconds =       3.35 minutes
	system time =       3.71 seconds =       0.06 minutes
	total time  =        205 seconds =       3.42 minutes
  Constructing Basis Sets for SAPT...

   => Loading Basis Set <=

    Name: (JUN-CC-PVTZ AUX)
    Role: RIFIT
    Keyword: DF_BASIS_SAPT
    atoms 1-2, 10-14 entry C          line   132 file /home/r08543048/miniconda3/share/psi4/basis/jun-cc-pvtz-ri.gbs 
    atoms 3          entry O          line   244 file /home/r08543048/miniconda3/share/psi4/basis/jun-cc-pvtz-ri.gbs 
    atoms 4          entry N          line   188 file /home/r08543048/miniconda3/share/psi4/basis/jun-cc-pvtz-ri.gbs 
    atoms 5-9, 15-24 entry H          line    30 file /home/r08543048/miniconda3/share/psi4/basis/jun-cc-pvtz-ri.gbs 


  //>>>>>>>>>>>>>>>>>>>>>>>>>>>>>>>>>>>//
  //               SAPT0               //
  //<<<<<<<<<<<<<<<<<<<<<<<<<<<<<<<<<<<//


*** tstart() called on r282
*** at Sat Sep 11 02:23:49 2021

        SAPT0  
    Ed Hohenstein
     6 June 2009

      Orbital Information
  --------------------------
    NSO        =       561
    NMO        =       561
    NRI        =      1323
    NOCC A     =        16
    NOCC B     =        20
    FOCC A     =         0
    FOCC B     =         0
    NVIR A     =       545
    NVIR B     =       541

    Elst10,r            =    -0.009490300807 [Eh]
    Exch10              =     0.011576854933 [Eh]
    Exch10 (S^2)        =     0.011510568902 [Eh]

    Iter     Energy [mEh]          dE [mEh]         Residual      Time [s]
       1      -0.89705629       0.897056289       4.489686659             1
       2      -1.11465628       0.217599991       1.745182609             3
       3      -1.12749607       0.012839789       0.669241929             4
       4      -1.12076777      -0.006728299       0.274194672             5
       5      -1.11978591      -0.000981860       0.106111138             7
       6      -1.12047778       0.000691866       0.040187046             8
       7      -1.12064567       0.000167895       0.009564316             9
       8      -1.12056822      -0.000077452       0.002120922            11
       9      -1.12056771      -0.000000513       0.000526349            12
      10      -1.12057047       0.000002759       0.000152107            13
      11      -1.12057051       0.000000041       0.000050170            15
      12      -1.12057025      -0.000000262       0.000019354            16
      13      -1.12057030       0.000000055       0.000007145            17
      14      -1.12057032       0.000000018       0.000001897            19
      15      -1.12057031      -0.000000006       0.000000617            20

    CHF Iterations converged


    Iter     Energy [mEh]          dE [mEh]         Residual      Time [s]
       1      -3.63557732       3.635577315      11.472307917             2
       2      -4.31283017       0.677252856       5.613727621             3
       3      -4.58519724       0.272367074       1.432984012             4
       4      -4.57998997      -0.005207274       0.454024321             6
       5      -4.56643103      -0.013558942       0.124524308             7
       6      -4.56666471       0.000233683       0.051300396             9
       7      -4.56779969       0.001134977       0.014732117            10
       8      -4.56762424      -0.000175450       0.004360151            12
       9      -4.56758061      -0.000043634       0.001180254            13
      10      -4.56758899       0.000008382       0.000302510            14
      11      -4.56759160       0.000002612       0.000075426            16
      12      -4.56759086      -0.000000745       0.000021989            17
      13      -4.56759075      -0.000000106       0.000006452            19
      14      -4.56759080       0.000000055       0.000002060            20
      15      -4.56759081       0.000000006       0.000000602            21

    CHF Iterations converged

    Ind20,r (A<-B)      =    -0.001120570312 [Eh]
    Ind20,r (B<-A)      =    -0.004567590810 [Eh]
    Ind20,r             =    -0.005688161121 [Eh]
    Exch-Ind20,r (A<-B) =     0.000906072912 [Eh]
    Exch-Ind20,r (B<-A) =     0.002707049773 [Eh]
    Exch-Ind20,r        =     0.003613122685 [Eh]
    Disp20              =    -0.008677980062 [Eh]
    Disp20 (SS)         =    -0.004338990031 [Eh]
    Disp20 (OS)         =    -0.004338990031 [Eh]
    Exch-Disp20         =     0.001147878090 [Eh]
    Exch-Disp20 (SS)    =     0.000745066057 [Eh]
    Exch-Disp20 (OS)    =     0.000402812033 [Eh]

    SAPT Results 
  --------------------------------------------------------------------------------------------------------
    Electrostatics                 -9.49030081 [mEh]      -5.95525367 [kcal/mol]     -24.91678134 [kJ/mol]
      Elst10,r                     -9.49030081 [mEh]      -5.95525367 [kcal/mol]     -24.91678134 [kJ/mol]

    Exchange                       11.57685493 [mEh]       7.26458615 [kcal/mol]      30.39502844 [kJ/mol]
      Exch10                       11.57685493 [mEh]       7.26458615 [kcal/mol]      30.39502844 [kJ/mol]
      Exch10(S^2)                  11.51056890 [mEh]       7.22299103 [kcal/mol]      30.22099449 [kJ/mol]

    Induction                      -3.50430141 [mEh]      -2.19898233 [kcal/mol]      -9.20054208 [kJ/mol]
      Ind20,r                      -5.68816112 [mEh]      -3.56937499 [kcal/mol]     -14.93426497 [kJ/mol]
      Exch-Ind20,r                  3.61312269 [mEh]       2.26726871 [kcal/mol]       9.48625230 [kJ/mol]
      delta HF,r (2)               -1.42926297 [mEh]      -0.89687606 [kcal/mol]      -3.75252942 [kJ/mol]

    Dispersion                     -7.53010197 [mEh]      -4.72521033 [kcal/mol]     -19.77028000 [kJ/mol]
      Disp20                       -8.67798006 [mEh]      -5.44551470 [kcal/mol]     -22.78403351 [kJ/mol]
      Exch-Disp20                   1.14787809 [mEh]       0.72030438 [kcal/mol]       3.01375351 [kJ/mol]
      Disp20 (SS)                  -4.33899003 [mEh]      -2.72275735 [kcal/mol]     -11.39201676 [kJ/mol]
      Disp20 (OS)                  -4.33899003 [mEh]      -2.72275735 [kcal/mol]     -11.39201676 [kJ/mol]
      Exch-Disp20 (SS)              0.74506606 [mEh]       0.46753601 [kcal/mol]       1.95617066 [kJ/mol]
      Exch-Disp20 (OS)              0.40281203 [mEh]       0.25276837 [kcal/mol]       1.05758285 [kJ/mol]

  Total HF                         -1.41774728 [mEh]      -0.88964985 [kcal/mol]      -3.72229498 [kJ/mol]
  Total SAPT0                      -8.94784926 [mEh]      -5.61486018 [kcal/mol]     -23.49257499 [kJ/mol]

  Special recipe for scaled SAPT0 (see Manual):
    Electrostatics sSAPT0          -9.49030081 [mEh]      -5.95525367 [kcal/mol]     -24.91678134 [kJ/mol]
    Exchange sSAPT0                11.57685493 [mEh]       7.26458615 [kcal/mol]      30.39502844 [kJ/mol]
    Induction sSAPT0               -3.44152048 [mEh]      -2.15958670 [kcal/mol]      -9.03571077 [kJ/mol]
    Dispersion sSAPT0              -7.51015666 [mEh]      -4.71269445 [kcal/mol]     -19.71791360 [kJ/mol]
  Total sSAPT0                     -8.86512301 [mEh]      -5.56294868 [kcal/mol]     -23.27537726 [kJ/mol]
  --------------------------------------------------------------------------------------------------------

*** tstop() called on r282 at Sat Sep 11 02:26:56 2021
Module time:
	user time   =     161.13 seconds =       2.69 minutes
	system time =      25.55 seconds =       0.43 minutes
	total time  =        187 seconds =       3.12 minutes
Total time:
	user time   =     362.41 seconds =       6.04 minutes
	system time =      29.26 seconds =       0.49 minutes
	total time  =        392 seconds =       6.53 minutes

    Psi4 stopped on: Saturday, 11 September 2021 02:26AM
    Psi4 wall time for execution: 0:06:32.13

*** Psi4 exiting successfully. Buy a developer a beer!
