
    -----------------------------------------------------------------------
          Psi4: An Open-Source Ab Initio Electronic Structure Package
                               Psi4 1.3.2 release

                         Git: Rev {HEAD} ecbda83 


    R. M. Parrish, L. A. Burns, D. G. A. Smith, A. C. Simmonett,
    A. E. DePrince III, E. G. Hohenstein, U. Bozkaya, A. Yu. Sokolov,
    R. Di Remigio, R. M. Richard, J. F. Gonthier, A. M. James,
    H. R. McAlexander, A. Kumar, M. Saitow, X. Wang, B. P. Pritchard,
    P. Verma, H. F. Schaefer III, K. Patkowski, R. A. King, E. F. Valeev,
    F. A. Evangelista, J. M. Turney, T. D. Crawford, and C. D. Sherrill,
    J. Chem. Theory Comput. 13(7) pp 3185--3197 (2017).
    (doi: 10.1021/acs.jctc.7b00174)


                         Additional Contributions by
    P. Kraus, H. Kruse, M. H. Lechner, M. C. Schieber, R. A. Shaw,
    A. Alenaizan, R. Galvelis, Z. L. Glick, S. Lehtola, and J. P. Misiewicz

    -----------------------------------------------------------------------


    Psi4 started on: Saturday, 11 September 2021 02:26AM

    Process ID: 57516
    Host:       r282
    PSIDATADIR: /home/r08543048/miniconda3/share/psi4
    Memory:     500.0 MiB
    Threads:    1
    
  ==> Input File <==

--------------------------------------------------------------------------
# Any line starting with the # character is a comment line
#! Sample  computation

memory 22 gb

molecule Dimer {
0 1
 C  -3.051486    0.138663   -0.161433
 C  -1.574587   -0.025617    0.109032
 O  -1.046649    0.427370    1.118236
 N  -0.870872   -0.702467   -0.838393
 H  -3.603005   -0.385473    0.616771
 H  -3.298844    1.195100   -0.088677
 H  -3.356655   -0.239460   -1.134569
 H   0.110553   -0.881658   -0.679517
 H  -1.325625   -1.112669   -1.632013
  
  
  
  
  
  
  
  
    
    
 --
0 1
 C   2.174062   -1.034258    0.643759
 C   2.562495   -0.133007   -0.266203
 C   2.036297    1.265358   -0.342596
 H   2.600477   -2.028010    0.662347
 H   1.427268   -0.782992    1.387418
 H   3.314544   -0.419452   -0.995232
 H   1.634401    1.476690   -1.335266
 H   1.247921    1.424694    0.391681
 H   2.837578    1.984711   -0.165434
   
   
   
   
   
   




units angstrom

no_reorient
symmetry c1
}

set globals{
  basis jun-cc-pvtz
}

energy('sapt0')


--------------------------------------------------------------------------

  Memory set to  20.489 GiB by Python driver.

  //>>>>>>>>>>>>>>>>>>>>>>>>>>>>>>>>>>>//
  //              Dimer HF             //
  //<<<<<<<<<<<<<<<<<<<<<<<<<<<<<<<<<<<//


*** tstart() called on r282
*** at Sat Sep 11 02:26:57 2021

   => Loading Basis Set <=

    Name: JUN-CC-PVTZ
    Role: ORBITAL
    Keyword: BASIS
    atoms 1-2, 10-12 entry C          line   217 file /home/r08543048/miniconda3/share/psi4/basis/jun-cc-pvtz.gbs 
    atoms 3          entry O          line   305 file /home/r08543048/miniconda3/share/psi4/basis/jun-cc-pvtz.gbs 
    atoms 4          entry N          line   261 file /home/r08543048/miniconda3/share/psi4/basis/jun-cc-pvtz.gbs 
    atoms 5-9, 13-18 entry H          line    36 file /home/r08543048/miniconda3/share/psi4/basis/jun-cc-pvtz.gbs 


         ---------------------------------------------------------
                                   SCF
               by Justin Turney, Rob Parrish, Andy Simmonett
                          and Daniel G. A. Smith
                              RHF Reference
                        1 Threads,  20980 MiB Core
         ---------------------------------------------------------

  ==> Geometry <==

    Molecular point group: c1
    Full point group: C1

    Geometry (in Angstrom), charge = 0, multiplicity = 1:

       Center              X                  Y                   Z               Mass       
    ------------   -----------------  -----------------  -----------------  -----------------
         C           -3.035919446320     0.140977809775    -0.190527272303    12.000000000000
         C           -1.559020446320    -0.023302190225     0.079937727697    12.000000000000
         O           -1.031082446320     0.429684809775     1.089141727697    15.994914619570
         N           -0.855305446320    -0.700152190225    -0.867487272303    14.003074004430
         H           -3.587438446320    -0.383158190225     0.587676727697     1.007825032230
         H           -3.283277446320     1.197414809775    -0.117771272303     1.007825032230
         H           -3.341088446320    -0.237145190225    -1.163663272303     1.007825032230
         H            0.126119553680    -0.879343190225    -0.708611272303     1.007825032230
         H           -1.310058446320    -1.110354190225    -1.661107272303     1.007825032230
         C            2.189628553680    -1.031943190225     0.614664727697    12.000000000000
         C            2.578061553680    -0.130692190225    -0.295297272303    12.000000000000
         C            2.051863553680     1.267672809775    -0.371690272303    12.000000000000
         H            2.616043553680    -2.025695190225     0.633252727697     1.007825032230
         H            1.442834553680    -0.780677190225     1.358323727697     1.007825032230
         H            3.330110553680    -0.417137190225    -1.024326272303     1.007825032230
         H            1.649967553680     1.479004809775    -1.364360272303     1.007825032230
         H            1.263487553680     1.427008809775     0.362586727697     1.007825032230
         H            2.853144553680     1.987025809775    -0.194528272303     1.007825032230

  Running in c1 symmetry.

  Rotational constants: A =      0.15786  B =      0.03573  C =      0.03485 [cm^-1]
  Rotational constants: A =   4732.60972  B =   1071.00886  C =   1044.75389 [MHz]
  Nuclear repulsion =  292.914447533718089

  Charge       = 0
  Multiplicity = 1
  Electrons    = 56
  Nalpha       = 28
  Nbeta        = 28

  ==> Algorithm <==

  SCF Algorithm Type is DF.
  DIIS enabled.
  MOM disabled.
  Fractional occupation disabled.
  Guess Type is SAD.
  Energy threshold   = 1.00e-08
  Density threshold  = 1.00e-08
  Integral threshold = 0.00e+00

  ==> Primary Basis <==

  Basis Set: JUN-CC-PVTZ
    Blend: JUN-CC-PVTZ
    Number of shells: 157
    Number of basis function: 427
    Number of Cartesian functions: 480
    Spherical Harmonics?: true
    Max angular momentum: 3

   => Loading Basis Set <=

    Name: (JUN-CC-PVTZ AUX)
    Role: JKFIT
    Keyword: DF_BASIS_SCF
    atoms 1-2, 10-12 entry C          line   152 file /home/r08543048/miniconda3/share/psi4/basis/jun-cc-pvtz-jkfit.gbs 
    atoms 3          entry O          line   272 file /home/r08543048/miniconda3/share/psi4/basis/jun-cc-pvtz-jkfit.gbs 
    atoms 4          entry N          line   212 file /home/r08543048/miniconda3/share/psi4/basis/jun-cc-pvtz-jkfit.gbs 
    atoms 5-9, 13-18 entry H          line    70 file /home/r08543048/miniconda3/share/psi4/basis/jun-cc-pvtz-jkfit.gbs 

  ==> Pre-Iterations <==

   -------------------------------------------------------
    Irrep   Nso     Nmo     Nalpha   Nbeta   Ndocc  Nsocc
   -------------------------------------------------------
     A        427     427       0       0       0       0
   -------------------------------------------------------
    Total     427     427      28      28      28       0
   -------------------------------------------------------

  ==> Integral Setup <==

  ==> DiskDFJK: Density-Fitted J/K Matrices <==

    J tasked:                  Yes
    K tasked:                  Yes
    wK tasked:                  No
    OpenMP threads:              1
    Integrals threads:           1
    Memory [MiB]:            15735
    Algorithm:                Core
    Integral Cache:           SAVE
    Schwarz Cutoff:          1E-12
    Fitting Condition:       1E-10

   => Auxiliary Basis Set <=

  Basis Set: (JUN-CC-PVTZ AUX)
    Blend: JUN-CC-PVTZ-JKFIT
    Number of shells: 313
    Number of basis function: 995
    Number of Cartesian functions: 1197
    Spherical Harmonics?: true
    Max angular momentum: 4

  Minimum eigenvalue in the overlap matrix is 4.0070483206E-05.
  Using Symmetric Orthogonalization.

  SCF Guess: Superposition of Atomic Densities via on-the-fly atomic UHF.

  ==> Iterations <==

                           Total Energy        Delta E     RMS |[F,P]|

   @DF-RHF iter SAD:  -323.71536434569606   -3.23715e+02   0.00000e+00 
   @DF-RHF iter   1:  -324.88766519121856   -1.17230e+00   1.74667e-03 DIIS
   @DF-RHF iter   2:  -325.11657246798694   -2.28907e-01   9.28639e-04 DIIS
   @DF-RHF iter   3:  -325.17489603056271   -5.83236e-02   1.96475e-04 DIIS
   @DF-RHF iter   4:  -325.17878425826876   -3.88823e-03   8.37924e-05 DIIS
   @DF-RHF iter   5:  -325.17956081452246   -7.76556e-04   1.36096e-05 DIIS
   @DF-RHF iter   6:  -325.17959827565278   -3.74611e-05   6.39188e-06 DIIS
   @DF-RHF iter   7:  -325.17960460587801   -6.33023e-06   2.17983e-06 DIIS
   @DF-RHF iter   8:  -325.17960596842499   -1.36255e-06   8.22512e-07 DIIS
   @DF-RHF iter   9:  -325.17960616788685   -1.99462e-07   2.33533e-07 DIIS
   @DF-RHF iter  10:  -325.17960618111709   -1.32302e-08   8.06008e-08 DIIS
   @DF-RHF iter  11:  -325.17960618245098   -1.33389e-09   2.35057e-08 DIIS
   @DF-RHF iter  12:  -325.17960618254625   -9.52696e-11   8.03777e-09 DIIS
  Energy and wave function converged.


  ==> Post-Iterations <==

    Orbital Energies [Eh]
    ---------------------

    Doubly Occupied:                                                      

       1A    -20.513067     2A    -15.580667     3A    -11.352243  
       4A    -11.236569     5A    -11.233880     6A    -11.214608  
       7A    -11.210767     8A     -1.373485     9A     -1.208706  
      10A     -1.062506    11A     -1.004539    12A     -0.927665  
      13A     -0.796981    14A     -0.754859    15A     -0.723094  
      16A     -0.663875    17A     -0.636867    18A     -0.614322  
      19A     -0.583370    20A     -0.576787    21A     -0.564406  
      22A     -0.558722    23A     -0.523055    24A     -0.514404  
      25A     -0.489240    26A     -0.422460    27A     -0.411033  
      28A     -0.358290  

    Virtual:                                                              

      29A      0.040980    30A      0.055777    31A      0.058645  
      32A      0.068008    33A      0.070503    34A      0.080042  
      35A      0.086807    36A      0.100515    37A      0.103799  
      38A      0.105066    39A      0.113414    40A      0.118435  
      41A      0.137933    42A      0.140725    43A      0.144644  
      44A      0.152687    45A      0.158309    46A      0.162703  
      47A      0.182305    48A      0.185021    49A      0.185852  
      50A      0.196524    51A      0.197991    52A      0.210911  
      53A      0.216815    54A      0.233213    55A      0.246231  
      56A      0.263857    57A      0.271866    58A      0.277829  
      59A      0.281021    60A      0.287055    61A      0.294322  
      62A      0.299875    63A      0.311250    64A      0.317801  
      65A      0.326965    66A      0.329632    67A      0.334696  
      68A      0.337378    69A      0.339520    70A      0.347979  
      71A      0.355882    72A      0.360047    73A      0.372197  
      74A      0.376370    75A      0.395443    76A      0.396892  
      77A      0.402330    78A      0.408243    79A      0.417703  
      80A      0.425320    81A      0.439216    82A      0.451065  
      83A      0.452027    84A      0.459164    85A      0.475435  
      86A      0.491015    87A      0.495796    88A      0.500633  
      89A      0.526597    90A      0.533066    91A      0.534832  
      92A      0.539277    93A      0.543077    94A      0.561360  
      95A      0.574822    96A      0.588520    97A      0.602514  
      98A      0.609331    99A      0.615605   100A      0.629885  
     101A      0.635233   102A      0.645512   103A      0.662957  
     104A      0.673469   105A      0.683407   106A      0.696688  
     107A      0.703983   108A      0.722794   109A      0.727272  
     110A      0.739742   111A      0.753195   112A      0.756720  
     113A      0.769548   114A      0.781176   115A      0.787110  
     116A      0.792445   117A      0.802131   118A      0.817405  
     119A      0.823812   120A      0.837839   121A      0.842000  
     122A      0.854893   123A      0.858503   124A      0.871872  
     125A      0.886005   126A      0.908814   127A      0.911229  
     128A      0.928429   129A      0.932166   130A      0.943663  
     131A      0.951066   132A      0.964492   133A      0.968839  
     134A      0.983276   135A      1.008675   136A      1.021473  
     137A      1.032698   138A      1.051670   139A      1.055663  
     140A      1.074599   141A      1.086109   142A      1.105452  
     143A      1.109804   144A      1.110956   145A      1.137603  
     146A      1.145812   147A      1.153359   148A      1.159351  
     149A      1.184497   150A      1.186063   151A      1.214664  
     152A      1.226071   153A      1.231613   154A      1.261048  
     155A      1.269177   156A      1.285713   157A      1.310735  
     158A      1.324548   159A      1.348385   160A      1.353213  
     161A      1.355536   162A      1.365458   163A      1.381771  
     164A      1.394794   165A      1.397951   166A      1.410614  
     167A      1.426288   168A      1.433926   169A      1.448585  
     170A      1.462304   171A      1.467369   172A      1.477672  
     173A      1.497590   174A      1.505937   175A      1.514874  
     176A      1.531438   177A      1.561413   178A      1.562406  
     179A      1.579675   180A      1.586429   181A      1.600038  
     182A      1.608922   183A      1.621722   184A      1.626456  
     185A      1.651016   186A      1.657949   187A      1.676713  
     188A      1.683340   189A      1.705018   190A      1.721048  
     191A      1.737063   192A      1.761102   193A      1.788190  
     194A      1.797291   195A      1.827963   196A      1.870536  
     197A      1.881729   198A      1.892803   199A      1.912050  
     200A      1.922198   201A      1.931863   202A      1.962179  
     203A      1.992136   204A      2.043292   205A      2.084793  
     206A      2.092947   207A      2.142040   208A      2.226776  
     209A      2.237058   210A      2.284079   211A      2.365748  
     212A      2.434135   213A      2.486063   214A      2.579065  
     215A      2.637508   216A      2.696988   217A      2.713243  
     218A      2.742601   219A      2.750155   220A      2.756647  
     221A      2.795104   222A      2.809299   223A      2.835594  
     224A      2.849336   225A      2.856302   226A      2.877189  
     227A      2.925267   228A      2.943799   229A      2.961356  
     230A      2.978573   231A      2.992645   232A      3.018463  
     233A      3.031171   234A      3.060874   235A      3.067336  
     236A      3.085562   237A      3.096388   238A      3.111375  
     239A      3.125961   240A      3.162298   241A      3.173988  
     242A      3.181527   243A      3.186377   244A      3.194380  
     245A      3.218679   246A      3.235319   247A      3.256714  
     248A      3.265805   249A      3.270385   250A      3.288043  
     251A      3.302383   252A      3.318034   253A      3.322051  
     254A      3.346571   255A      3.350258   256A      3.362021  
     257A      3.393162   258A      3.403048   259A      3.419666  
     260A      3.427664   261A      3.447690   262A      3.448215  
     263A      3.454467   264A      3.470995   265A      3.486923  
     266A      3.502099   267A      3.511435   268A      3.518543  
     269A      3.526541   270A      3.531834   271A      3.551818  
     272A      3.560314   273A      3.587529   274A      3.601384  
     275A      3.616907   276A      3.628579   277A      3.639908  
     278A      3.656587   279A      3.658768   280A      3.676914  
     281A      3.690115   282A      3.708881   283A      3.723739  
     284A      3.737744   285A      3.759545   286A      3.770695  
     287A      3.773541   288A      3.788190   289A      3.805142  
     290A      3.816977   291A      3.833704   292A      3.843350  
     293A      3.868214   294A      3.879265   295A      3.892898  
     296A      3.931527   297A      3.955233   298A      3.971254  
     299A      3.990179   300A      3.999607   301A      4.031705  
     302A      4.051311   303A      4.062879   304A      4.075490  
     305A      4.092122   306A      4.127435   307A      4.144095  
     308A      4.150937   309A      4.168072   310A      4.189386  
     311A      4.214847   312A      4.237750   313A      4.243850  
     314A      4.252323   315A      4.292512   316A      4.300615  
     317A      4.310682   318A      4.315079   319A      4.327811  
     320A      4.363038   321A      4.369091   322A      4.376892  
     323A      4.388151   324A      4.404504   325A      4.407610  
     326A      4.413421   327A      4.443311   328A      4.445673  
     329A      4.463060   330A      4.475453   331A      4.483763  
     332A      4.505344   333A      4.512149   334A      4.530513  
     335A      4.543751   336A      4.567490   337A      4.588621  
     338A      4.595714   339A      4.628282   340A      4.633600  
     341A      4.635090   342A      4.680921   343A      4.702378  
     344A      4.709140   345A      4.747804   346A      4.769148  
     347A      4.784596   348A      4.790425   349A      4.810369  
     350A      4.838843   351A      4.853411   352A      4.907231  
     353A      4.927572   354A      4.933593   355A      4.941204  
     356A      5.041023   357A      5.080555   358A      5.134131  
     359A      5.138519   360A      5.187531   361A      5.202156  
     362A      5.210112   363A      5.217366   364A      5.234444  
     365A      5.250136   366A      5.271531   367A      5.309966  
     368A      5.316093   369A      5.336739   370A      5.372978  
     371A      5.398083   372A      5.415280   373A      5.445762  
     374A      5.462884   375A      5.492984   376A      5.510714  
     377A      5.536285   378A      5.573954   379A      5.584003  
     380A      5.611118   381A      5.647548   382A      5.676586  
     383A      5.683289   384A      5.695163   385A      5.701739  
     386A      5.717982   387A      5.739393   388A      5.778638  
     389A      5.781001   390A      5.809459   391A      5.861154  
     392A      5.869181   393A      5.910459   394A      5.988589  
     395A      6.008293   396A      6.053939   397A      6.101392  
     398A      6.110110   399A      6.212439   400A      6.239715  
     401A      6.303063   402A      6.410776   403A      6.435309  
     404A      6.443043   405A      6.461809   406A      6.479937  
     407A      6.523389   408A      6.578947   409A      6.699498  
     410A      6.704489   411A      6.774029   412A      6.808918  
     413A      7.207120   414A      7.299503   415A      7.343527  
     416A      7.441815   417A      7.488169   418A      7.494777  
     419A      7.742036   420A      7.810024   421A     12.218615  
     422A     12.258644   423A     13.855141   424A     14.748652  
     425A     14.796021   426A     15.303803   427A     15.695299  

    Final Occupation by Irrep:
              A 
    DOCC [    28 ]

  @DF-RHF Final Energy:  -325.17960618254625

   => Energetics <=

    Nuclear Repulsion Energy =            292.9144475337180893
    One-Electron Energy =               -1021.9671789648185722
    Two-Electron Energy =                 403.8731252485542313
    Total Energy =                       -325.1796061825462516

Computation Completed


Properties will be evaluated at   0.000000,   0.000000,   0.000000 [a0]

Properties computed using the SCF density matrix

  Nuclear Dipole Moment: [e a0]
     X:     1.6473      Y:     0.2450      Z:    -3.0789

  Electronic Dipole Moment: [e a0]
     X:    -2.1346      Y:    -0.8029      Z:     1.7215

  Dipole Moment: [e a0]
     X:    -0.4872      Y:    -0.5579      Z:    -1.3574     Total:     1.5463

  Dipole Moment: [D]
     X:    -1.2384      Y:    -1.4182      Z:    -3.4501     Total:     3.9304


*** tstop() called on r282 at Sat Sep 11 02:27:35 2021
Module time:
	user time   =      37.07 seconds =       0.62 minutes
	system time =       0.88 seconds =       0.01 minutes
	total time  =         38 seconds =       0.63 minutes
Total time:
	user time   =      37.07 seconds =       0.62 minutes
	system time =       0.88 seconds =       0.01 minutes
	total time  =         38 seconds =       0.63 minutes

  //>>>>>>>>>>>>>>>>>>>>>>>>>>>>>>>>>>>//
  //            Monomer A HF           //
  //<<<<<<<<<<<<<<<<<<<<<<<<<<<<<<<<<<<//


*** tstart() called on r282
*** at Sat Sep 11 02:27:35 2021

   => Loading Basis Set <=

    Name: JUN-CC-PVTZ
    Role: ORBITAL
    Keyword: BASIS
    atoms 1-2, 10-12 entry C          line   217 file /home/r08543048/miniconda3/share/psi4/basis/jun-cc-pvtz.gbs 
    atoms 3          entry O          line   305 file /home/r08543048/miniconda3/share/psi4/basis/jun-cc-pvtz.gbs 
    atoms 4          entry N          line   261 file /home/r08543048/miniconda3/share/psi4/basis/jun-cc-pvtz.gbs 
    atoms 5-9, 13-18 entry H          line    36 file /home/r08543048/miniconda3/share/psi4/basis/jun-cc-pvtz.gbs 


         ---------------------------------------------------------
                                   SCF
               by Justin Turney, Rob Parrish, Andy Simmonett
                          and Daniel G. A. Smith
                              RHF Reference
                        1 Threads,  20980 MiB Core
         ---------------------------------------------------------

  ==> Geometry <==

    Molecular point group: c1
    Full point group: C1

    Geometry (in Angstrom), charge = 0, multiplicity = 1:

       Center              X                  Y                   Z               Mass       
    ------------   -----------------  -----------------  -----------------  -----------------
         C           -3.035919446320     0.140977809775    -0.190527272303    12.000000000000
         C           -1.559020446320    -0.023302190225     0.079937727697    12.000000000000
         O           -1.031082446320     0.429684809775     1.089141727697    15.994914619570
         N           -0.855305446320    -0.700152190225    -0.867487272303    14.003074004430
         H           -3.587438446320    -0.383158190225     0.587676727697     1.007825032230
         H           -3.283277446320     1.197414809775    -0.117771272303     1.007825032230
         H           -3.341088446320    -0.237145190225    -1.163663272303     1.007825032230
         H            0.126119553680    -0.879343190225    -0.708611272303     1.007825032230
         H           -1.310058446320    -1.110354190225    -1.661107272303     1.007825032230
      Gh(C)           2.189628553680    -1.031943190225     0.614664727697    12.000000000000
      Gh(C)           2.578061553680    -0.130692190225    -0.295297272303    12.000000000000
      Gh(C)           2.051863553680     1.267672809775    -0.371690272303    12.000000000000
      Gh(H)           2.616043553680    -2.025695190225     0.633252727697     1.007825032230
      Gh(H)           1.442834553680    -0.780677190225     1.358323727697     1.007825032230
      Gh(H)           3.330110553680    -0.417137190225    -1.024326272303     1.007825032230
      Gh(H)           1.649967553680     1.479004809775    -1.364360272303     1.007825032230
      Gh(H)           1.263487553680     1.427008809775     0.362586727697     1.007825032230
      Gh(H)           2.853144553680     1.987025809775    -0.194528272303     1.007825032230

  Running in c1 symmetry.

  Rotational constants: A =      0.15786  B =      0.03573  C =      0.03485 [cm^-1]
  Rotational constants: A =   4732.60972  B =   1071.00886  C =   1044.75389 [MHz]
  Nuclear repulsion =  121.732722288371093

  Charge       = 0
  Multiplicity = 1
  Electrons    = 32
  Nalpha       = 16
  Nbeta        = 16

  ==> Algorithm <==

  SCF Algorithm Type is DF.
  DIIS enabled.
  MOM disabled.
  Fractional occupation disabled.
  Guess Type is SAD.
  Energy threshold   = 1.00e-08
  Density threshold  = 1.00e-08
  Integral threshold = 0.00e+00

  ==> Primary Basis <==

  Basis Set: JUN-CC-PVTZ
    Blend: JUN-CC-PVTZ
    Number of shells: 157
    Number of basis function: 427
    Number of Cartesian functions: 480
    Spherical Harmonics?: true
    Max angular momentum: 3

   => Loading Basis Set <=

    Name: (JUN-CC-PVTZ AUX)
    Role: JKFIT
    Keyword: DF_BASIS_SCF
    atoms 1-2, 10-12 entry C          line   152 file /home/r08543048/miniconda3/share/psi4/basis/jun-cc-pvtz-jkfit.gbs 
    atoms 3          entry O          line   272 file /home/r08543048/miniconda3/share/psi4/basis/jun-cc-pvtz-jkfit.gbs 
    atoms 4          entry N          line   212 file /home/r08543048/miniconda3/share/psi4/basis/jun-cc-pvtz-jkfit.gbs 
    atoms 5-9, 13-18 entry H          line    70 file /home/r08543048/miniconda3/share/psi4/basis/jun-cc-pvtz-jkfit.gbs 

  ==> Pre-Iterations <==

   -------------------------------------------------------
    Irrep   Nso     Nmo     Nalpha   Nbeta   Ndocc  Nsocc
   -------------------------------------------------------
     A        427     427       0       0       0       0
   -------------------------------------------------------
    Total     427     427      16      16      16       0
   -------------------------------------------------------

  ==> Integral Setup <==

  ==> DiskDFJK: Density-Fitted J/K Matrices <==

    J tasked:                  Yes
    K tasked:                  Yes
    wK tasked:                  No
    OpenMP threads:              1
    Integrals threads:           1
    Memory [MiB]:            15735
    Algorithm:                Core
    Integral Cache:           LOAD
    Schwarz Cutoff:          1E-12
    Fitting Condition:       1E-10

   => Auxiliary Basis Set <=

  Basis Set: (JUN-CC-PVTZ AUX)
    Blend: JUN-CC-PVTZ-JKFIT
    Number of shells: 313
    Number of basis function: 995
    Number of Cartesian functions: 1197
    Spherical Harmonics?: true
    Max angular momentum: 4

  Minimum eigenvalue in the overlap matrix is 4.0070483206E-05.
  Using Symmetric Orthogonalization.

  SCF Guess: Superposition of Atomic Densities via on-the-fly atomic UHF.

  ==> Iterations <==

                           Total Energy        Delta E     RMS |[F,P]|

   @DF-RHF iter SAD:  -207.24104250404582   -2.07241e+02   0.00000e+00 
   @DF-RHF iter   1:  -207.88834402676301   -6.47302e-01   1.41523e-03 DIIS
   @DF-RHF iter   2:  -208.01615684782865   -1.27813e-01   8.45550e-04 DIIS
   @DF-RHF iter   3:  -208.05897342197881   -4.28166e-02   1.56068e-04 DIIS
   @DF-RHF iter   4:  -208.06141497432594   -2.44155e-03   6.37357e-05 DIIS
   @DF-RHF iter   5:  -208.06191290237058   -4.97928e-04   1.19385e-05 DIIS
   @DF-RHF iter   6:  -208.06194406366731   -3.11613e-05   5.70064e-06 DIIS
   @DF-RHF iter   7:  -208.06194984698612   -5.78332e-06   2.14974e-06 DIIS
   @DF-RHF iter   8:  -208.06195109702659   -1.25004e-06   6.91258e-07 DIIS
   @DF-RHF iter   9:  -208.06195124795673   -1.50930e-07   1.76561e-07 DIIS
   @DF-RHF iter  10:  -208.06195125540791   -7.45118e-09   5.73672e-08 DIIS
   @DF-RHF iter  11:  -208.06195125608056   -6.72657e-10   1.48655e-08 DIIS
   @DF-RHF iter  12:  -208.06195125612592   -4.53610e-11   3.10352e-09 DIIS
  Energy and wave function converged.


  ==> Post-Iterations <==

    Orbital Energies [Eh]
    ---------------------

    Doubly Occupied:                                                      

       1A    -20.515003     2A    -15.589614     3A    -11.354451  
       4A    -11.238664     5A     -1.374352     6A     -1.214396  
       7A     -1.006888     8A     -0.801720     9A     -0.728925  
      10A     -0.664416    11A     -0.615859    12A     -0.584226  
      13A     -0.564046    14A     -0.524543    15A     -0.424008  
      16A     -0.414915  

    Virtual:                                                              

      17A      0.033533    18A      0.042689    19A      0.051693  
      20A      0.061901    21A      0.068109    22A      0.077964  
      23A      0.082404    24A      0.099640    25A      0.100788  
      26A      0.106039    27A      0.112226    28A      0.113978  
      29A      0.120317    30A      0.138523    31A      0.144736  
      32A      0.147301    33A      0.152066    34A      0.160629  
      35A      0.164260    36A      0.166986    37A      0.173481  
      38A      0.188347    39A      0.192578    40A      0.206589  
      41A      0.217302    42A      0.238484    43A      0.252108  
      44A      0.259983    45A      0.269748    46A      0.273683  
      47A      0.280157    48A      0.283600    49A      0.292037  
      50A      0.298520    51A      0.308579    52A      0.313206  
      53A      0.316170    54A      0.327179    55A      0.330797  
      56A      0.334346    57A      0.341126    58A      0.352963  
      59A      0.359783    60A      0.366472    61A      0.369549  
      62A      0.390283    63A      0.392175    64A      0.402045  
      65A      0.403159    66A      0.411883    67A      0.428268  
      68A      0.440822    69A      0.446106    70A      0.453506  
      71A      0.464356    72A      0.470153    73A      0.485140  
      74A      0.490018    75A      0.500632    76A      0.514652  
      77A      0.521896    78A      0.536713    79A      0.543429  
      80A      0.554028    81A      0.569490    82A      0.579870  
      83A      0.582740    84A      0.592473    85A      0.602088  
      86A      0.604714    87A      0.621933    88A      0.625693  
      89A      0.635082    90A      0.650472    91A      0.651427  
      92A      0.661656    93A      0.669799    94A      0.674677  
      95A      0.679076    96A      0.681273    97A      0.704958  
      98A      0.713281    99A      0.722627   100A      0.735445  
     101A      0.747905   102A      0.754618   103A      0.775338  
     104A      0.779671   105A      0.792784   106A      0.812701  
     107A      0.818647   108A      0.824477   109A      0.839181  
     110A      0.874446   111A      0.890568   112A      0.900764  
     113A      0.925019   114A      0.943093   115A      0.952334  
     116A      1.001501   117A      1.006917   118A      1.034207  
     119A      1.047786   120A      1.074395   121A      1.079627  
     122A      1.099616   123A      1.111864   124A      1.125043  
     125A      1.130012   126A      1.135130   127A      1.148167  
     128A      1.157183   129A      1.167856   130A      1.177119  
     131A      1.187788   132A      1.207049   133A      1.214544  
     134A      1.228527   135A      1.237085   136A      1.244545  
     137A      1.254257   138A      1.264422   139A      1.287404  
     140A      1.299483   141A      1.316027   142A      1.318433  
     143A      1.333642   144A      1.339431   145A      1.349550  
     146A      1.353372   147A      1.363912   148A      1.367582  
     149A      1.389481   150A      1.393635   151A      1.399424  
     152A      1.415359   153A      1.422006   154A      1.433198  
     155A      1.449726   156A      1.453745   157A      1.467573  
     158A      1.482363   159A      1.502416   160A      1.514074  
     161A      1.518675   162A      1.520757   163A      1.544165  
     164A      1.558464   165A      1.559484   166A      1.574265  
     167A      1.590251   168A      1.600897   169A      1.610663  
     170A      1.615245   171A      1.631724   172A      1.649679  
     173A      1.654242   174A      1.661486   175A      1.676913  
     176A      1.691059   177A      1.712527   178A      1.719760  
     179A      1.739588   180A      1.752326   181A      1.777889  
     182A      1.803684   183A      1.846642   184A      1.872584  
     185A      1.887600   186A      1.902955   187A      1.933094  
     188A      1.953139   189A      1.991971   190A      2.024606  
     191A      2.030951   192A      2.059430   193A      2.110823  
     194A      2.117320   195A      2.134732   196A      2.192055  
     197A      2.239795   198A      2.246945   199A      2.285827  
     200A      2.292862   201A      2.345114   202A      2.378732  
     203A      2.395006   204A      2.444973   205A      2.466520  
     206A      2.498176   207A      2.530304   208A      2.562572  
     209A      2.614958   210A      2.654510   211A      2.674829  
     212A      2.744146   213A      2.772069   214A      2.777106  
     215A      2.850805   216A      2.906304   217A      2.958254  
     218A      2.986580   219A      2.990719   220A      3.050409  
     221A      3.089778   222A      3.153667   223A      3.194297  
     224A      3.203663   225A      3.248282   226A      3.269212  
     227A      3.286614   228A      3.347376   229A      3.362957  
     230A      3.415011   231A      3.424262   232A      3.432504  
     233A      3.435840   234A      3.443146   235A      3.476915  
     236A      3.487025   237A      3.517974   238A      3.536698  
     239A      3.548865   240A      3.557143   241A      3.564562  
     242A      3.599231   243A      3.602714   244A      3.619536  
     245A      3.631437   246A      3.646078   247A      3.649223  
     248A      3.654154   249A      3.665870   250A      3.685463  
     251A      3.709572   252A      3.714724   253A      3.725291  
     254A      3.728251   255A      3.767513   256A      3.777168  
     257A      3.788452   258A      3.802039   259A      3.819675  
     260A      3.843155   261A      3.862654   262A      3.872744  
     263A      3.887860   264A      3.897327   265A      3.935507  
     266A      3.945061   267A      3.973741   268A      3.987965  
     269A      3.992848   270A      4.021736   271A      4.057567  
     272A      4.067596   273A      4.084734   274A      4.091210  
     275A      4.113908   276A      4.126193   277A      4.140175  
     278A      4.157908   279A      4.170730   280A      4.180765  
     281A      4.199395   282A      4.204350   283A      4.233263  
     284A      4.243774   285A      4.260191   286A      4.277328  
     287A      4.291416   288A      4.298315   289A      4.314637  
     290A      4.335219   291A      4.358088   292A      4.379015  
     293A      4.397582   294A      4.405638   295A      4.409422  
     296A      4.423898   297A      4.435166   298A      4.446590  
     299A      4.466734   300A      4.483260   301A      4.494921  
     302A      4.515626   303A      4.521030   304A      4.540334  
     305A      4.549999   306A      4.556994   307A      4.579487  
     308A      4.590389   309A      4.605428   310A      4.620289  
     311A      4.626653   312A      4.659460   313A      4.669225  
     314A      4.693838   315A      4.709540   316A      4.726320  
     317A      4.743372   318A      4.769958   319A      4.780994  
     320A      4.789308   321A      4.802458   322A      4.819459  
     323A      4.826221   324A      4.828172   325A      4.834987  
     326A      4.853589   327A      4.886853   328A      4.895123  
     329A      4.916290   330A      4.927299   331A      4.931639  
     332A      4.949691   333A      4.958560   334A      4.988269  
     335A      5.013286   336A      5.032393   337A      5.052154  
     338A      5.071652   339A      5.121572   340A      5.133489  
     341A      5.139042   342A      5.158667   343A      5.175123  
     344A      5.214055   345A      5.221571   346A      5.234952  
     347A      5.260277   348A      5.297899   349A      5.315067  
     350A      5.337796   351A      5.394773   352A      5.409779  
     353A      5.457560   354A      5.481761   355A      5.490839  
     356A      5.530245   357A      5.535607   358A      5.555714  
     359A      5.568448   360A      5.584220   361A      5.613527  
     362A      5.671153   363A      5.677096   364A      5.691985  
     365A      5.712587   366A      5.737647   367A      5.778863  
     368A      5.812685   369A      5.840502   370A      5.873248  
     371A      5.912121   372A      5.918641   373A      5.982798  
     374A      6.010997   375A      6.042793   376A      6.054781  
     377A      6.098019   378A      6.135360   379A      6.155843  
     380A      6.204642   381A      6.237143   382A      6.252650  
     383A      6.270858   384A      6.300826   385A      6.359212  
     386A      6.394867   387A      6.413783   388A      6.433870  
     389A      6.444083   390A      6.570269   391A      6.623605  
     392A      6.696641   393A      6.733097   394A      6.739413  
     395A      6.778899   396A      6.807297   397A      6.859050  
     398A      7.105257   399A      7.203450   400A      7.298030  
     401A      7.332319   402A      7.392180   403A      7.433003  
     404A      7.448294   405A      7.489149   406A      7.494078  
     407A      7.580967   408A      7.602075   409A      7.658527  
     410A      7.745037   411A      7.810949   412A      7.831080  
     413A      7.925783   414A      7.977927   415A      8.113061  
     416A      8.282919   417A      8.735234   418A      9.376947  
     419A      9.941197   420A     10.197131   421A     12.277174  
     422A     13.874505   423A     14.772471   424A     15.654565  
     425A     40.855923   426A     46.002487   427A     47.132189  

    Final Occupation by Irrep:
              A 
    DOCC [    16 ]

  @DF-RHF Final Energy:  -208.06195125612592

   => Energetics <=

    Nuclear Repulsion Energy =            121.7327222883710931
    One-Electron Energy =                -524.3572931646934876
    Two-Electron Energy =                 194.5626196201965001
    Total Energy =                       -208.0619512561259228

Computation Completed


Properties will be evaluated at   0.000000,   0.000000,   0.000000 [a0]

Properties computed using the SCF density matrix

  Nuclear Dipole Moment: [e a0]
     X:  -100.5357      Y:    -4.1009      Z:    -2.0528

  Electronic Dipole Moment: [e a0]
     X:   100.0124      Y:     3.3394      Z:     0.6351

  Dipole Moment: [e a0]
     X:    -0.5233      Y:    -0.7615      Z:    -1.4177     Total:     1.6922

  Dipole Moment: [D]
     X:    -1.3300      Y:    -1.9355      Z:    -3.6033     Total:     4.3011


*** tstop() called on r282 at Sat Sep 11 02:27:57 2021
Module time:
	user time   =      21.55 seconds =       0.36 minutes
	system time =       0.47 seconds =       0.01 minutes
	total time  =         22 seconds =       0.37 minutes
Total time:
	user time   =      58.62 seconds =       0.98 minutes
	system time =       1.35 seconds =       0.02 minutes
	total time  =         60 seconds =       1.00 minutes

  //>>>>>>>>>>>>>>>>>>>>>>>>>>>>>>>>>>>//
  //            Monomer B HF           //
  //<<<<<<<<<<<<<<<<<<<<<<<<<<<<<<<<<<<//


*** tstart() called on r282
*** at Sat Sep 11 02:27:57 2021

   => Loading Basis Set <=

    Name: JUN-CC-PVTZ
    Role: ORBITAL
    Keyword: BASIS
    atoms 1-2, 10-12 entry C          line   217 file /home/r08543048/miniconda3/share/psi4/basis/jun-cc-pvtz.gbs 
    atoms 3          entry O          line   305 file /home/r08543048/miniconda3/share/psi4/basis/jun-cc-pvtz.gbs 
    atoms 4          entry N          line   261 file /home/r08543048/miniconda3/share/psi4/basis/jun-cc-pvtz.gbs 
    atoms 5-9, 13-18 entry H          line    36 file /home/r08543048/miniconda3/share/psi4/basis/jun-cc-pvtz.gbs 


         ---------------------------------------------------------
                                   SCF
               by Justin Turney, Rob Parrish, Andy Simmonett
                          and Daniel G. A. Smith
                              RHF Reference
                        1 Threads,  20980 MiB Core
         ---------------------------------------------------------

  ==> Geometry <==

    Molecular point group: c1
    Full point group: C1

    Geometry (in Angstrom), charge = 0, multiplicity = 1:

       Center              X                  Y                   Z               Mass       
    ------------   -----------------  -----------------  -----------------  -----------------
      Gh(C)          -3.035919446320     0.140977809775    -0.190527272303    12.000000000000
      Gh(C)          -1.559020446320    -0.023302190225     0.079937727697    12.000000000000
      Gh(O)          -1.031082446320     0.429684809775     1.089141727697    15.994914619570
      Gh(N)          -0.855305446320    -0.700152190225    -0.867487272303    14.003074004430
      Gh(H)          -3.587438446320    -0.383158190225     0.587676727697     1.007825032230
      Gh(H)          -3.283277446320     1.197414809775    -0.117771272303     1.007825032230
      Gh(H)          -3.341088446320    -0.237145190225    -1.163663272303     1.007825032230
      Gh(H)           0.126119553680    -0.879343190225    -0.708611272303     1.007825032230
      Gh(H)          -1.310058446320    -1.110354190225    -1.661107272303     1.007825032230
         C            2.189628553680    -1.031943190225     0.614664727697    12.000000000000
         C            2.578061553680    -0.130692190225    -0.295297272303    12.000000000000
         C            2.051863553680     1.267672809775    -0.371690272303    12.000000000000
         H            2.616043553680    -2.025695190225     0.633252727697     1.007825032230
         H            1.442834553680    -0.780677190225     1.358323727697     1.007825032230
         H            3.330110553680    -0.417137190225    -1.024326272303     1.007825032230
         H            1.649967553680     1.479004809775    -1.364360272303     1.007825032230
         H            1.263487553680     1.427008809775     0.362586727697     1.007825032230
         H            2.853144553680     1.987025809775    -0.194528272303     1.007825032230

  Running in c1 symmetry.

  Rotational constants: A =      0.15786  B =      0.03573  C =      0.03485 [cm^-1]
  Rotational constants: A =   4732.60972  B =   1071.00886  C =   1044.75389 [MHz]
  Nuclear repulsion =   70.823557264594839

  Charge       = 0
  Multiplicity = 1
  Electrons    = 24
  Nalpha       = 12
  Nbeta        = 12

  ==> Algorithm <==

  SCF Algorithm Type is DF.
  DIIS enabled.
  MOM disabled.
  Fractional occupation disabled.
  Guess Type is SAD.
  Energy threshold   = 1.00e-08
  Density threshold  = 1.00e-08
  Integral threshold = 0.00e+00

  ==> Primary Basis <==

  Basis Set: JUN-CC-PVTZ
    Blend: JUN-CC-PVTZ
    Number of shells: 157
    Number of basis function: 427
    Number of Cartesian functions: 480
    Spherical Harmonics?: true
    Max angular momentum: 3

   => Loading Basis Set <=

    Name: (JUN-CC-PVTZ AUX)
    Role: JKFIT
    Keyword: DF_BASIS_SCF
    atoms 1-2, 10-12 entry C          line   152 file /home/r08543048/miniconda3/share/psi4/basis/jun-cc-pvtz-jkfit.gbs 
    atoms 3          entry O          line   272 file /home/r08543048/miniconda3/share/psi4/basis/jun-cc-pvtz-jkfit.gbs 
    atoms 4          entry N          line   212 file /home/r08543048/miniconda3/share/psi4/basis/jun-cc-pvtz-jkfit.gbs 
    atoms 5-9, 13-18 entry H          line    70 file /home/r08543048/miniconda3/share/psi4/basis/jun-cc-pvtz-jkfit.gbs 

  ==> Pre-Iterations <==

   -------------------------------------------------------
    Irrep   Nso     Nmo     Nalpha   Nbeta   Ndocc  Nsocc
   -------------------------------------------------------
     A        427     427       0       0       0       0
   -------------------------------------------------------
    Total     427     427      12      12      12       0
   -------------------------------------------------------

  ==> Integral Setup <==

  ==> DiskDFJK: Density-Fitted J/K Matrices <==

    J tasked:                  Yes
    K tasked:                  Yes
    wK tasked:                  No
    OpenMP threads:              1
    Integrals threads:           1
    Memory [MiB]:            15735
    Algorithm:                Core
    Integral Cache:           LOAD
    Schwarz Cutoff:          1E-12
    Fitting Condition:       1E-10

   => Auxiliary Basis Set <=

  Basis Set: (JUN-CC-PVTZ AUX)
    Blend: JUN-CC-PVTZ-JKFIT
    Number of shells: 313
    Number of basis function: 995
    Number of Cartesian functions: 1197
    Spherical Harmonics?: true
    Max angular momentum: 4

  Minimum eigenvalue in the overlap matrix is 4.0070483206E-05.
  Using Symmetric Orthogonalization.

  SCF Guess: Superposition of Atomic Densities via on-the-fly atomic UHF.

  ==> Iterations <==

                           Total Energy        Delta E     RMS |[F,P]|

   @DF-RHF iter SAD:  -116.32809349534482   -1.16328e+02   0.00000e+00 
   @DF-RHF iter   1:  -116.98801691890662   -6.59923e-01   1.07138e-03 DIIS
   @DF-RHF iter   2:  -117.09534300413470   -1.07326e-01   4.59543e-04 DIIS
   @DF-RHF iter   3:  -117.11532240252072   -1.99794e-02   8.27114e-05 DIIS
   @DF-RHF iter   4:  -117.11661445389764   -1.29205e-03   2.48509e-05 DIIS
   @DF-RHF iter   5:  -117.11668780062529   -7.33467e-05   6.72449e-06 DIIS
   @DF-RHF iter   6:  -117.11669403386433   -6.23324e-06   1.20748e-06 DIIS
   @DF-RHF iter   7:  -117.11669434239498   -3.08531e-07   4.41970e-07 DIIS
   @DF-RHF iter   8:  -117.11669438274254   -4.03476e-08   1.52932e-07 DIIS
   @DF-RHF iter   9:  -117.11669438850555   -5.76301e-09   5.59418e-08 DIIS
   @DF-RHF iter  10:  -117.11669438944949   -9.43942e-10   1.28795e-08 DIIS
   @DF-RHF iter  11:  -117.11669438949386   -4.43663e-11   2.28374e-09 DIIS
  Energy and wave function converged.


  ==> Post-Iterations <==

    Orbital Energies [Eh]
    ---------------------

    Doubly Occupied:                                                      

       1A    -11.234834     2A    -11.221023     3A    -11.217907  
       4A     -1.064354     5A     -0.932462     6A     -0.757672  
       7A     -0.639835     8A     -0.582095     9A     -0.568352  
      10A     -0.523461    11A     -0.493484    12A     -0.357301  

    Virtual:                                                              

      13A      0.033463    14A      0.054144    15A      0.054926  
      16A      0.057232    17A      0.069995    18A      0.076338  
      19A      0.077778    20A      0.091193    21A      0.101007  
      22A      0.104014    23A      0.110829    24A      0.112173  
      25A      0.130568    26A      0.134920    27A      0.138789  
      28A      0.142824    29A      0.153085    30A      0.159662  
      31A      0.166681    32A      0.175056    33A      0.180328  
      34A      0.187795    35A      0.194768    36A      0.199605  
      37A      0.215593    38A      0.220943    39A      0.229391  
      40A      0.230921    41A      0.237941    42A      0.272014  
      43A      0.277127    44A      0.280460    45A      0.292057  
      46A      0.306070    47A      0.309731    48A      0.325062  
      49A      0.327046    50A      0.332385    51A      0.350534  
      52A      0.354847    53A      0.357601    54A      0.361682  
      55A      0.365263    56A      0.375179    57A      0.380313  
      58A      0.385980    59A      0.393354    60A      0.396653  
      61A      0.404248    62A      0.412125    63A      0.412916  
      64A      0.417775    65A      0.424762    66A      0.436041  
      67A      0.452276    68A      0.467629    69A      0.481522  
      70A      0.482413    71A      0.489218    72A      0.501281  
      73A      0.504826    74A      0.515984    75A      0.529224  
      76A      0.536590    77A      0.542692    78A      0.547400  
      79A      0.555258    80A      0.572628    81A      0.586613  
      82A      0.595675    83A      0.616337    84A      0.634153  
      85A      0.644587    86A      0.655882    87A      0.681792  
      88A      0.686321    89A      0.698558    90A      0.702392  
      91A      0.711237    92A      0.728112    93A      0.754320  
      94A      0.761208    95A      0.766305    96A      0.783708  
      97A      0.786075    98A      0.795545    99A      0.808570  
     100A      0.826394   101A      0.829978   102A      0.839467  
     103A      0.848277   104A      0.860638   105A      0.867181  
     106A      0.874138   107A      0.880352   108A      0.898345  
     109A      0.924430   110A      0.938460   111A      0.945272  
     112A      0.951463   113A      0.960121   114A      0.967904  
     115A      0.986903   116A      1.007472   117A      1.021794  
     118A      1.037598   119A      1.040084   120A      1.054599  
     121A      1.062920   122A      1.086838   123A      1.091155  
     124A      1.095974   125A      1.107163   126A      1.116187  
     127A      1.130217   128A      1.144513   129A      1.153005  
     130A      1.184423   131A      1.188071   132A      1.201714  
     133A      1.204431   134A      1.216455   135A      1.252932  
     136A      1.263212   137A      1.269590   138A      1.289244  
     139A      1.314535   140A      1.318718   141A      1.331327  
     142A      1.346907   143A      1.368637   144A      1.382543  
     145A      1.389510   146A      1.405643   147A      1.408422  
     148A      1.426024   149A      1.442325   150A      1.462962  
     151A      1.471596   152A      1.491266   153A      1.498230  
     154A      1.510295   155A      1.524406   156A      1.529932  
     157A      1.542780   158A      1.562614   159A      1.575709  
     160A      1.578045   161A      1.590546   162A      1.609607  
     163A      1.615982   164A      1.626727   165A      1.629704  
     166A      1.653178   167A      1.679999   168A      1.682493  
     169A      1.714312   170A      1.733519   171A      1.751279  
     172A      1.755899   173A      1.785219   174A      1.793572  
     175A      1.813891   176A      1.823803   177A      1.845786  
     178A      1.856185   179A      1.882915   180A      1.897746  
     181A      1.916000   182A      1.929249   183A      1.936934  
     184A      1.964822   185A      2.002546   186A      2.052780  
     187A      2.058652   188A      2.074318   189A      2.090297  
     190A      2.130125   191A      2.208442   192A      2.264298  
     193A      2.317368   194A      2.350751   195A      2.375966  
     196A      2.428207   197A      2.453660   198A      2.552679  
     199A      2.577344   200A      2.617789   201A      2.647253  
     202A      2.711048   203A      2.718708   204A      2.731622  
     205A      2.759465   206A      2.785507   207A      2.798482  
     208A      2.806329   209A      2.843607   210A      2.854626  
     211A      2.863610   212A      2.894115   213A      2.929880  
     214A      2.947788   215A      2.969009   216A      3.001572  
     217A      3.029390   218A      3.046527   219A      3.052453  
     220A      3.079387   221A      3.095209   222A      3.110216  
     223A      3.138739   224A      3.169401   225A      3.179893  
     226A      3.208035   227A      3.218120   228A      3.264602  
     229A      3.269456   230A      3.304999   231A      3.315494  
     232A      3.331948   233A      3.347589   234A      3.376915  
     235A      3.387507   236A      3.391065   237A      3.412253  
     238A      3.447694   239A      3.457588   240A      3.483357  
     241A      3.496327   242A      3.509327   243A      3.531590  
     244A      3.558525   245A      3.578998   246A      3.586877  
     247A      3.596358   248A      3.600547   249A      3.613773  
     250A      3.628408   251A      3.675334   252A      3.679318  
     253A      3.693756   254A      3.703837   255A      3.726754  
     256A      3.759029   257A      3.763592   258A      3.796833  
     259A      3.807336   260A      3.823144   261A      3.841340  
     262A      3.857857   263A      3.867132   264A      3.878960  
     265A      3.908120   266A      3.915443   267A      3.921105  
     268A      3.977333   269A      3.990271   270A      4.004715  
     271A      4.020021   272A      4.033296   273A      4.067886  
     274A      4.074115   275A      4.087869   276A      4.095666  
     277A      4.148869   278A      4.161669   279A      4.167153  
     280A      4.202672   281A      4.238976   282A      4.263611  
     283A      4.278560   284A      4.292614   285A      4.308444  
     286A      4.309695   287A      4.317200   288A      4.323724  
     289A      4.351199   290A      4.361913   291A      4.382580  
     292A      4.396121   293A      4.402409   294A      4.411944  
     295A      4.425931   296A      4.452744   297A      4.473357  
     298A      4.498705   299A      4.507002   300A      4.516565  
     301A      4.530987   302A      4.542471   303A      4.559699  
     304A      4.602760   305A      4.617358   306A      4.619861  
     307A      4.632376   308A      4.673623   309A      4.675315  
     310A      4.680282   311A      4.732222   312A      4.741653  
     313A      4.745377   314A      4.766233   315A      4.771947  
     316A      4.773166   317A      4.783997   318A      4.800311  
     319A      4.812074   320A      4.834184   321A      4.845327  
     322A      4.852122   323A      4.870081   324A      4.894668  
     325A      4.899320   326A      4.906498   327A      4.929338  
     328A      4.939394   329A      4.954555   330A      4.984696  
     331A      4.997285   332A      5.035245   333A      5.049922  
     334A      5.057254   335A      5.079314   336A      5.111327  
     337A      5.121262   338A      5.140403   339A      5.168884  
     340A      5.189872   341A      5.196756   342A      5.208019  
     343A      5.236786   344A      5.250937   345A      5.303340  
     346A      5.333134   347A      5.366624   348A      5.394668  
     349A      5.424732   350A      5.446685   351A      5.489542  
     352A      5.569140   353A      5.630988   354A      5.647828  
     355A      5.656611   356A      5.681572   357A      5.689865  
     358A      5.699250   359A      5.770057   360A      5.791963  
     361A      5.852123   362A      5.854189   363A      5.906925  
     364A      5.973061   365A      5.982114   366A      6.036107  
     367A      6.067949   368A      6.096486   369A      6.135334  
     370A      6.200758   371A      6.223878   372A      6.303295  
     373A      6.350619   374A      6.404155   375A      6.429787  
     376A      6.448386   377A      6.458110   378A      6.479521  
     379A      6.484830   380A      6.520255   381A      6.522986  
     382A      6.566106   383A      6.617980   384A      6.694362  
     385A      6.706340   386A      6.740249   387A      6.855545  
     388A      6.965451   389A      7.080970   390A      7.341745  
     391A      7.347531   392A      7.435471   393A      7.460803  
     394A      7.533075   395A      7.549201   396A      7.706579  
     397A      7.825248   398A      7.834430   399A      7.868031  
     400A      7.882472   401A      8.031353   402A      8.277581  
     403A      8.438215   404A      8.786132   405A      9.093253  
     406A      9.120649   407A      9.148597   408A      9.423481  
     409A      9.827140   410A      9.838683   411A      9.923344  
     412A      9.942543   413A     10.119299   414A     10.509466  
     415A     10.934541   416A     11.414599   417A     11.599413  
     418A     11.644540   419A     11.970449   420A     12.267116  
     421A     13.842295   422A     14.740175   423A     15.313177  
     424A     42.738864   425A     46.126374   426A     55.233497  
     427A     60.768172  

    Final Occupation by Irrep:
              A 
    DOCC [    12 ]

  @DF-RHF Final Energy:  -117.11669438949386

   => Energetics <=

    Nuclear Repulsion Energy =             70.8235572645948395
    One-Electron Energy =                -296.6949453967982890
    Two-Electron Energy =                 108.7546937427095770
    Total Energy =                       -117.1166943894938584

Computation Completed


Properties will be evaluated at   0.000000,   0.000000,   0.000000 [a0]

Properties computed using the SCF density matrix

  Nuclear Dipole Moment: [e a0]
     X:   102.1830      Y:     4.3459      Z:    -1.0261

  Electronic Dipole Moment: [e a0]
     X:  -102.1681      Y:    -4.1970      Z:     0.9468

  Dipole Moment: [e a0]
     X:     0.0149      Y:     0.1489      Z:    -0.0793     Total:     0.1693

  Dipole Moment: [D]
     X:     0.0377      Y:     0.3784      Z:    -0.2016     Total:     0.4304


*** tstop() called on r282 at Sat Sep 11 02:28:16 2021
Module time:
	user time   =      18.91 seconds =       0.32 minutes
	system time =       0.42 seconds =       0.01 minutes
	total time  =         19 seconds =       0.32 minutes
Total time:
	user time   =      77.54 seconds =       1.29 minutes
	system time =       1.77 seconds =       0.03 minutes
	total time  =         79 seconds =       1.32 minutes
  Constructing Basis Sets for SAPT...

   => Loading Basis Set <=

    Name: (JUN-CC-PVTZ AUX)
    Role: RIFIT
    Keyword: DF_BASIS_SAPT
    atoms 1-2, 10-12 entry C          line   132 file /home/r08543048/miniconda3/share/psi4/basis/jun-cc-pvtz-ri.gbs 
    atoms 3          entry O          line   244 file /home/r08543048/miniconda3/share/psi4/basis/jun-cc-pvtz-ri.gbs 
    atoms 4          entry N          line   188 file /home/r08543048/miniconda3/share/psi4/basis/jun-cc-pvtz-ri.gbs 
    atoms 5-9, 13-18 entry H          line    30 file /home/r08543048/miniconda3/share/psi4/basis/jun-cc-pvtz-ri.gbs 


  //>>>>>>>>>>>>>>>>>>>>>>>>>>>>>>>>>>>//
  //               SAPT0               //
  //<<<<<<<<<<<<<<<<<<<<<<<<<<<<<<<<<<<//


*** tstart() called on r282
*** at Sat Sep 11 02:28:16 2021

        SAPT0  
    Ed Hohenstein
     6 June 2009

      Orbital Information
  --------------------------
    NSO        =       427
    NMO        =       427
    NRI        =      1009
    NOCC A     =        16
    NOCC B     =        12
    FOCC A     =         0
    FOCC B     =         0
    NVIR A     =       411
    NVIR B     =       415

    Elst10,r            =    -0.009633756909 [Eh]
    Exch10              =     0.012167108725 [Eh]
    Exch10 (S^2)        =     0.012097943160 [Eh]

    Iter     Energy [mEh]          dE [mEh]         Residual      Time [s]
       1      -0.84943314       0.849433138       4.332580046             1
       2      -1.04702798       0.197594844       1.738653458             1
       3      -1.06049445       0.013466465       0.646453593             2
       4      -1.05393744      -0.006557003       0.263198709             2
       5      -1.05297750      -0.000959943       0.099735412             3
       6      -1.05364362       0.000666121       0.037706804             4
       7      -1.05379072       0.000147102       0.009507416             4
       8      -1.05372050      -0.000070226       0.002454494             5
       9      -1.05371598      -0.000004513       0.000627752             5
      10      -1.05371928       0.000003294       0.000166347             6
      11      -1.05371946       0.000000178       0.000041709             6
      12      -1.05371925      -0.000000205       0.000011587             7
      13      -1.05371927       0.000000018       0.000004739             8
      14      -1.05371928       0.000000014       0.000001577             8
      15      -1.05371928      -0.000000006       0.000000565             9

    CHF Iterations converged


    Iter     Energy [mEh]          dE [mEh]         Residual      Time [s]
       1      -3.66134640       3.661346404      10.534338383             0
       2      -4.54234941       0.881003008       4.073282620             1
       3      -4.66644736       0.124097953       0.913487514             2
       4      -4.64855738      -0.017889981       0.381816244             2
       5      -4.63959134      -0.008966039       0.071370175             3
       6      -4.64091711       0.001325761       0.032217129             3
       7      -4.64122209       0.000304987       0.010338652             4
       8      -4.64104715      -0.000174946       0.002672446             4
       9      -4.64104684      -0.000000302       0.000625469             5
      10      -4.64105473       0.000007891       0.000146812             5
      11      -4.64105375      -0.000000983       0.000031434             6
      12      -4.64105360      -0.000000153       0.000006760             7
      13      -4.64105367       0.000000069       0.000001937             7
      14      -4.64105366      -0.000000005       0.000000672             8

    CHF Iterations converged

    Ind20,r (A<-B)      =    -0.001053719278 [Eh]
    Ind20,r (B<-A)      =    -0.004641053663 [Eh]
    Ind20,r             =    -0.005694772940 [Eh]
    Exch-Ind20,r (A<-B) =     0.000847218682 [Eh]
    Exch-Ind20,r (B<-A) =     0.002820275871 [Eh]
    Exch-Ind20,r        =     0.003667494553 [Eh]
    Disp20              =    -0.008720494577 [Eh]
    Disp20 (SS)         =    -0.004360247288 [Eh]
    Disp20 (OS)         =    -0.004360247288 [Eh]
    Exch-Disp20         =     0.001174837104 [Eh]
    Exch-Disp20 (SS)    =     0.000761198426 [Eh]
    Exch-Disp20 (OS)    =     0.000413638678 [Eh]

    SAPT Results 
  --------------------------------------------------------------------------------------------------------
    Electrostatics                 -9.63375691 [mEh]      -6.04527373 [kcal/mol]     -25.29342528 [kJ/mol]
      Elst10,r                     -9.63375691 [mEh]      -6.04527373 [kcal/mol]     -25.29342528 [kJ/mol]

    Exchange                       12.16710873 [mEh]       7.63497599 [kcal/mol]      31.94473956 [kJ/mol]
      Exch10                       12.16710873 [mEh]       7.63497599 [kcal/mol]      31.94473956 [kJ/mol]
      Exch10(S^2)                  12.09794316 [mEh]       7.59157395 [kcal/mol]      31.76314539 [kJ/mol]

    Induction                      -3.49388874 [mEh]      -2.19244829 [kcal/mol]      -9.17320363 [kJ/mol]
      Ind20,r                      -5.69477294 [mEh]      -3.57352397 [kcal/mol]     -14.95162430 [kJ/mol]
      Exch-Ind20,r                  3.66749455 [mEh]       2.30138758 [kcal/mol]       9.62900562 [kJ/mol]
      delta HF,r (2)               -1.46661036 [mEh]      -0.92031189 [kcal/mol]      -3.85058496 [kJ/mol]

    Dispersion                     -7.54565747 [mEh]      -4.73497155 [kcal/mol]     -19.81112096 [kJ/mol]
      Disp20                       -8.72049458 [mEh]      -5.47219296 [kcal/mol]     -22.89565536 [kJ/mol]
      Exch-Disp20                   1.17483710 [mEh]       0.73722141 [kcal/mol]       3.08453439 [kJ/mol]
      Disp20 (SS)                  -4.36024729 [mEh]      -2.73609648 [kcal/mol]     -11.44782768 [kJ/mol]
      Disp20 (OS)                  -4.36024729 [mEh]      -2.73609648 [kcal/mol]     -11.44782768 [kJ/mol]
      Exch-Disp20 (SS)              0.76119843 [mEh]       0.47765922 [kcal/mol]       1.99852619 [kJ/mol]
      Exch-Disp20 (OS)              0.41363868 [mEh]       0.25956219 [kcal/mol]       1.08600820 [kJ/mol]

  Total HF                         -0.96053693 [mEh]      -0.60274602 [kcal/mol]      -2.52188935 [kJ/mol]
  Total SAPT0                      -8.50619440 [mEh]      -5.33771757 [kcal/mol]     -22.33301032 [kJ/mol]

  Special recipe for scaled SAPT0 (see Manual):
    Electrostatics sSAPT0          -9.63375691 [mEh]      -6.04527373 [kcal/mol]     -25.29342528 [kJ/mol]
    Exchange sSAPT0                12.16710873 [mEh]       7.63497599 [kcal/mol]      31.94473956 [kJ/mol]
    Induction sSAPT0               -3.43062576 [mEh]      -2.15275016 [kcal/mol]      -9.00710669 [kJ/mol]
    Dispersion sSAPT0              -7.52539195 [mEh]      -4.72225474 [kcal/mol]     -19.75791384 [kJ/mol]
  Total sSAPT0                     -8.42266589 [mEh]      -5.28530264 [kcal/mol]     -22.11370625 [kJ/mol]
  --------------------------------------------------------------------------------------------------------

*** tstop() called on r282 at Sat Sep 11 02:29:25 2021
Module time:
	user time   =      56.58 seconds =       0.94 minutes
	system time =      11.53 seconds =       0.19 minutes
	total time  =         69 seconds =       1.15 minutes
Total time:
	user time   =     134.24 seconds =       2.24 minutes
	system time =      13.30 seconds =       0.22 minutes
	total time  =        148 seconds =       2.47 minutes

    Psi4 stopped on: Saturday, 11 September 2021 02:29AM
    Psi4 wall time for execution: 0:02:28.64

*** Psi4 exiting successfully. Buy a developer a beer!
