
    -----------------------------------------------------------------------
          Psi4: An Open-Source Ab Initio Electronic Structure Package
                               Psi4 1.3.2 release

                         Git: Rev {HEAD} ecbda83 


    R. M. Parrish, L. A. Burns, D. G. A. Smith, A. C. Simmonett,
    A. E. DePrince III, E. G. Hohenstein, U. Bozkaya, A. Yu. Sokolov,
    R. Di Remigio, R. M. Richard, J. F. Gonthier, A. M. James,
    H. R. McAlexander, A. Kumar, M. Saitow, X. Wang, B. P. Pritchard,
    P. Verma, H. F. Schaefer III, K. Patkowski, R. A. King, E. F. Valeev,
    F. A. Evangelista, J. M. Turney, T. D. Crawford, and C. D. Sherrill,
    J. Chem. Theory Comput. 13(7) pp 3185--3197 (2017).
    (doi: 10.1021/acs.jctc.7b00174)


                         Additional Contributions by
    P. Kraus, H. Kruse, M. H. Lechner, M. C. Schieber, R. A. Shaw,
    A. Alenaizan, R. Galvelis, Z. L. Glick, S. Lehtola, and J. P. Misiewicz

    -----------------------------------------------------------------------


    Psi4 started on: Saturday, 11 September 2021 02:31AM

    Process ID: 57522
    Host:       r282
    PSIDATADIR: /home/r08543048/miniconda3/share/psi4
    Memory:     500.0 MiB
    Threads:    1
    
  ==> Input File <==

--------------------------------------------------------------------------
# Any line starting with the # character is a comment line
#! Sample  computation

memory 22 gb

molecule Dimer {
0 1
 C   2.577749    0.486736    0.380085
 C   1.132834    0.185786    0.028718
 O   0.758877   -0.922192   -0.339903
 N   0.273475    1.229334    0.179657
 H  -0.711559    1.091435    0.002492
 H   0.599152    2.131891    0.471683
 C   3.539595   -0.485510   -0.283192
 H   3.487804   -0.400457   -1.367326
 H   4.562896   -0.286068    0.030678
 H   3.282082   -1.508297   -0.019840
 H   2.811674    1.518609    0.111118
 H   2.660584    0.420187    1.468029
  
  
  
  
  
    
    
 --
0 1
 C   -3.258856    0.983870   -0.242682
 C   -2.771720   -0.241546   -0.468919
 C   -2.526406   -1.269546    0.586008
 H   -3.414179    1.685472   -1.050734
 H   -3.526513    1.301241    0.757888
 H   -2.517325   -0.520330   -1.486483
 H   -1.471666   -1.549816    0.591061
 H   -2.805426   -0.896907    1.571106
 H   -3.102041   -2.173500    0.381841
   
   
   
   
   
   




units angstrom

no_reorient
symmetry c1
}

set globals{
  basis jun-cc-pvtz
}

energy('sapt0')


--------------------------------------------------------------------------

  Memory set to  20.489 GiB by Python driver.

  //>>>>>>>>>>>>>>>>>>>>>>>>>>>>>>>>>>>//
  //              Dimer HF             //
  //<<<<<<<<<<<<<<<<<<<<<<<<<<<<<<<<<<<//


*** tstart() called on r282
*** at Sat Sep 11 02:31:19 2021

   => Loading Basis Set <=

    Name: JUN-CC-PVTZ
    Role: ORBITAL
    Keyword: BASIS
    atoms 1-2, 7, 13-15    entry C          line   217 file /home/r08543048/miniconda3/share/psi4/basis/jun-cc-pvtz.gbs 
    atoms 3                entry O          line   305 file /home/r08543048/miniconda3/share/psi4/basis/jun-cc-pvtz.gbs 
    atoms 4                entry N          line   261 file /home/r08543048/miniconda3/share/psi4/basis/jun-cc-pvtz.gbs 
    atoms 5-6, 8-12, 16-21 entry H          line    36 file /home/r08543048/miniconda3/share/psi4/basis/jun-cc-pvtz.gbs 


         ---------------------------------------------------------
                                   SCF
               by Justin Turney, Rob Parrish, Andy Simmonett
                          and Daniel G. A. Smith
                              RHF Reference
                        1 Threads,  20980 MiB Core
         ---------------------------------------------------------

  ==> Geometry <==

    Molecular point group: c1
    Full point group: C1

    Geometry (in Angstrom), charge = 0, multiplicity = 1:

       Center              X                  Y                   Z               Mass       
    ------------   -----------------  -----------------  -----------------  -----------------
         C            2.576529469299     0.493674522659     0.392663691643    12.000000000000
         C            1.131614469299     0.192724522659     0.041296691643    12.000000000000
         O            0.757657469299    -0.915253477341    -0.327324308357    15.994914619570
         N            0.272255469299     1.236272522659     0.192235691643    14.003074004430
         H           -0.712778530701     1.098373522659     0.015070691643     1.007825032230
         H            0.597932469299     2.138829522659     0.484261691643     1.007825032230
         C            3.538375469299    -0.478571477341    -0.270613308357    12.000000000000
         H            3.486584469299    -0.393518477341    -1.354747308357     1.007825032230
         H            4.561676469299    -0.279129477341     0.043256691643     1.007825032230
         H            3.280862469299    -1.501358477341    -0.007261308357     1.007825032230
         H            2.810454469299     1.525547522659     0.123696691643     1.007825032230
         H            2.659364469299     0.427125522659     1.480607691643     1.007825032230
         C           -3.260075530701     0.990808522659    -0.230103308357    12.000000000000
         C           -2.772939530701    -0.234607477341    -0.456340308357    12.000000000000
         C           -2.527625530701    -1.262607477341     0.598586691643    12.000000000000
         H           -3.415398530701     1.692410522659    -1.038155308357     1.007825032230
         H           -3.527732530701     1.308179522659     0.770466691643     1.007825032230
         H           -2.518544530701    -0.513391477341    -1.473904308357     1.007825032230
         H           -1.472885530701    -1.542877477341     0.603639691643     1.007825032230
         H           -2.806645530701    -0.889968477341     1.583684691643     1.007825032230
         H           -3.103260530701    -2.166561477341     0.394419691643     1.007825032230

  Running in c1 symmetry.

  Rotational constants: A =      0.14071  B =      0.02457  C =      0.02222 [cm^-1]
  Rotational constants: A =   4218.40218  B =    736.52895  C =    666.12083 [MHz]
  Nuclear repulsion =  362.246916342130078

  Charge       = 0
  Multiplicity = 1
  Electrons    = 64
  Nalpha       = 32
  Nbeta        = 32

  ==> Algorithm <==

  SCF Algorithm Type is DF.
  DIIS enabled.
  MOM disabled.
  Fractional occupation disabled.
  Guess Type is SAD.
  Energy threshold   = 1.00e-08
  Density threshold  = 1.00e-08
  Integral threshold = 0.00e+00

  ==> Primary Basis <==

  Basis Set: JUN-CC-PVTZ
    Blend: JUN-CC-PVTZ
    Number of shells: 182
    Number of basis function: 494
    Number of Cartesian functions: 555
    Spherical Harmonics?: true
    Max angular momentum: 3

   => Loading Basis Set <=

    Name: (JUN-CC-PVTZ AUX)
    Role: JKFIT
    Keyword: DF_BASIS_SCF
    atoms 1-2, 7, 13-15    entry C          line   152 file /home/r08543048/miniconda3/share/psi4/basis/jun-cc-pvtz-jkfit.gbs 
    atoms 3                entry O          line   272 file /home/r08543048/miniconda3/share/psi4/basis/jun-cc-pvtz-jkfit.gbs 
    atoms 4                entry N          line   212 file /home/r08543048/miniconda3/share/psi4/basis/jun-cc-pvtz-jkfit.gbs 
    atoms 5-6, 8-12, 16-21 entry H          line    70 file /home/r08543048/miniconda3/share/psi4/basis/jun-cc-pvtz-jkfit.gbs 

  ==> Pre-Iterations <==

   -------------------------------------------------------
    Irrep   Nso     Nmo     Nalpha   Nbeta   Ndocc  Nsocc
   -------------------------------------------------------
     A        494     494       0       0       0       0
   -------------------------------------------------------
    Total     494     494      32      32      32       0
   -------------------------------------------------------

  ==> Integral Setup <==

  ==> DiskDFJK: Density-Fitted J/K Matrices <==

    J tasked:                  Yes
    K tasked:                  Yes
    wK tasked:                  No
    OpenMP threads:              1
    Integrals threads:           1
    Memory [MiB]:            15735
    Algorithm:                Core
    Integral Cache:           SAVE
    Schwarz Cutoff:          1E-12
    Fitting Condition:       1E-10

   => Auxiliary Basis Set <=

  Basis Set: (JUN-CC-PVTZ AUX)
    Blend: JUN-CC-PVTZ-JKFIT
    Number of shells: 362
    Number of basis function: 1150
    Number of Cartesian functions: 1383
    Spherical Harmonics?: true
    Max angular momentum: 4

  Minimum eigenvalue in the overlap matrix is 3.8630721317E-05.
  Using Symmetric Orthogonalization.

  SCF Guess: Superposition of Atomic Densities via on-the-fly atomic UHF.

  ==> Iterations <==

                           Total Energy        Delta E     RMS |[F,P]|

   @DF-RHF iter SAD:  -362.75320570870906   -3.62753e+02   0.00000e+00 
   @DF-RHF iter   1:  -363.89535339365625   -1.14215e+00   1.59279e-03 DIIS
   @DF-RHF iter   2:  -364.15753344767757   -2.62180e-01   8.29459e-04 DIIS
   @DF-RHF iter   3:  -364.22288050944849   -6.53471e-02   1.78515e-04 DIIS
   @DF-RHF iter   4:  -364.22724619415908   -4.36568e-03   8.02949e-05 DIIS
   @DF-RHF iter   5:  -364.22814786336744   -9.01669e-04   1.17958e-05 DIIS
   @DF-RHF iter   6:  -364.22818972887171   -4.18655e-05   5.07040e-06 DIIS
   @DF-RHF iter   7:  -364.22819543695351   -5.70808e-06   1.96391e-06 DIIS
   @DF-RHF iter   8:  -364.22819680622905   -1.36928e-06   7.95965e-07 DIIS
   @DF-RHF iter   9:  -364.22819705052359   -2.44295e-07   2.12087e-07 DIIS
   @DF-RHF iter  10:  -364.22819706763812   -1.71145e-08   7.32087e-08 DIIS
   @DF-RHF iter  11:  -364.22819706892369   -1.28557e-09   1.89516e-08 DIIS
   @DF-RHF iter  12:  -364.22819706902271   -9.90212e-11   7.03781e-09 DIIS
  Energy and wave function converged.


  ==> Post-Iterations <==

    Orbital Energies [Eh]
    ---------------------

    Doubly Occupied:                                                      

       1A    -20.513228     2A    -15.576177     3A    -11.347090  
       4A    -11.239150     5A    -11.236738     6A    -11.218903  
       7A    -11.213957     8A    -11.209671     9A     -1.372484  
      10A     -1.205565    11A     -1.064979    12A     -1.049899  
      13A     -0.929390    14A     -0.891006    15A     -0.779030  
      16A     -0.757269    17A     -0.715357    18A     -0.670800  
      19A     -0.638838    20A     -0.633116    21A     -0.598233  
      22A     -0.581785    23A     -0.561534    24A     -0.549635  
      25A     -0.523622    26A     -0.517129    27A     -0.514068  
      28A     -0.492298    29A     -0.491481    30A     -0.419470  
      31A     -0.408883    32A     -0.361124  

    Virtual:                                                              

      33A      0.042999    34A      0.051534    35A      0.059985  
      36A      0.061596    37A      0.068690    38A      0.077656  
      39A      0.079754    40A      0.093453    41A      0.097169  
      42A      0.100353    43A      0.104869    44A      0.111879  
      45A      0.114834    46A      0.119786    47A      0.126334  
      48A      0.143862    49A      0.148264    50A      0.154327  
      51A      0.163453    52A      0.164840    53A      0.167973  
      54A      0.180376    55A      0.185261    56A      0.198396  
      57A      0.202771    58A      0.210924    59A      0.211703  
      60A      0.221614    61A      0.237371    62A      0.240336  
      63A      0.252809    64A      0.264347    65A      0.275861  
      66A      0.282422    67A      0.287160    68A      0.294013  
      69A      0.302182    70A      0.305585    71A      0.308828  
      72A      0.311279    73A      0.313393    74A      0.321386  
      75A      0.330488    76A      0.335529    77A      0.339833  
      78A      0.344128    79A      0.348054    80A      0.353541  
      81A      0.360515    82A      0.365029    83A      0.366545  
      84A      0.375759    85A      0.388413    86A      0.392666  
      87A      0.398862    88A      0.407923    89A      0.413426  
      90A      0.416394    91A      0.427918    92A      0.428837  
      93A      0.443508    94A      0.445880    95A      0.451968  
      96A      0.467559    97A      0.474041    98A      0.489489  
      99A      0.497219   100A      0.507442   101A      0.516329  
     102A      0.520167   103A      0.522260   104A      0.531634  
     105A      0.545192   106A      0.547355   107A      0.553395  
     108A      0.557441   109A      0.566717   110A      0.572551  
     111A      0.576792   112A      0.601320   113A      0.606246  
     114A      0.610843   115A      0.630593   116A      0.634487  
     117A      0.641562   118A      0.652706   119A      0.669508  
     120A      0.676394   121A      0.704973   122A      0.713915  
     123A      0.721538   124A      0.729353   125A      0.733098  
     126A      0.736676   127A      0.748903   128A      0.757091  
     129A      0.763805   130A      0.773364   131A      0.777007  
     132A      0.788599   133A      0.792205   134A      0.794454  
     135A      0.804986   136A      0.817230   137A      0.829687  
     138A      0.836999   139A      0.850079   140A      0.854912  
     141A      0.860574   142A      0.874050   143A      0.883046  
     144A      0.885405   145A      0.890478   146A      0.909309  
     147A      0.923038   148A      0.931983   149A      0.940041  
     150A      0.952280   151A      0.964455   152A      0.972802  
     153A      0.976112   154A      0.990493   155A      1.013893  
     156A      1.017298   157A      1.024250   158A      1.038879  
     159A      1.045780   160A      1.055389   161A      1.068413  
     162A      1.089320   163A      1.091176   164A      1.103983  
     165A      1.108006   166A      1.112738   167A      1.128311  
     168A      1.139542   169A      1.158785   170A      1.177342  
     171A      1.182397   172A      1.203915   173A      1.218353  
     174A      1.234095   175A      1.243495   176A      1.263096  
     177A      1.269602   178A      1.278061   179A      1.292899  
     180A      1.321363   181A      1.323543   182A      1.334166  
     183A      1.352423   184A      1.359093   185A      1.362926  
     186A      1.378858   187A      1.384356   188A      1.395956  
     189A      1.405147   190A      1.407864   191A      1.422180  
     192A      1.425913   193A      1.443848   194A      1.447478  
     195A      1.453958   196A      1.461308   197A      1.476725  
     198A      1.479862   199A      1.491571   200A      1.506360  
     201A      1.511167   202A      1.523921   203A      1.541390  
     204A      1.562393   205A      1.570045   206A      1.573409  
     207A      1.579372   208A      1.605421   209A      1.607864  
     210A      1.620204   211A      1.627452   212A      1.641301  
     213A      1.653405   214A      1.669167   215A      1.673988  
     216A      1.684829   217A      1.719478   218A      1.721305  
     219A      1.736372   220A      1.754270   221A      1.772385  
     222A      1.785380   223A      1.797735   224A      1.812501  
     225A      1.831736   226A      1.856498   227A      1.867684  
     228A      1.875777   229A      1.892097   230A      1.906773  
     231A      1.909092   232A      1.939387   233A      1.959123  
     234A      1.979780   235A      1.989519   236A      2.023861  
     237A      2.066069   238A      2.072120   239A      2.123297  
     240A      2.178520   241A      2.216898   242A      2.256312  
     243A      2.308559   244A      2.386127   245A      2.454146  
     246A      2.507295   247A      2.583129   248A      2.669806  
     249A      2.703625   250A      2.738875   251A      2.748572  
     252A      2.769709   253A      2.791396   254A      2.807523  
     255A      2.820037   256A      2.836927   257A      2.848818  
     258A      2.857821   259A      2.878731   260A      2.894745  
     261A      2.900996   262A      2.907326   263A      2.929240  
     264A      2.937047   265A      2.964000   266A      2.987098  
     267A      2.994666   268A      3.027719   269A      3.036981  
     270A      3.046868   271A      3.067463   272A      3.089491  
     273A      3.097696   274A      3.114567   275A      3.123894  
     276A      3.127856   277A      3.142126   278A      3.168387  
     279A      3.173502   280A      3.184444   281A      3.189896  
     282A      3.210243   283A      3.218401   284A      3.229032  
     285A      3.252201   286A      3.259072   287A      3.283408  
     288A      3.291518   289A      3.307756   290A      3.324044  
     291A      3.338369   292A      3.345361   293A      3.354339  
     294A      3.362868   295A      3.366870   296A      3.383778  
     297A      3.391920   298A      3.397909   299A      3.408756  
     300A      3.428481   301A      3.438727   302A      3.452393  
     303A      3.456755   304A      3.465871   305A      3.475389  
     306A      3.486361   307A      3.491646   308A      3.504924  
     309A      3.507529   310A      3.515119   311A      3.527639  
     312A      3.538212   313A      3.542375   314A      3.556673  
     315A      3.568043   316A      3.577581   317A      3.593844  
     318A      3.610839   319A      3.612923   320A      3.624046  
     321A      3.642272   322A      3.654625   323A      3.675874  
     324A      3.681361   325A      3.692104   326A      3.717403  
     327A      3.727168   328A      3.733976   329A      3.753337  
     330A      3.769209   331A      3.783151   332A      3.799212  
     333A      3.809759   334A      3.821167   335A      3.832298  
     336A      3.852994   337A      3.858690   338A      3.861961  
     339A      3.868282   340A      3.896185   341A      3.914466  
     342A      3.936843   343A      3.944408   344A      3.962963  
     345A      3.982301   346A      3.996091   347A      4.012435  
     348A      4.018791   349A      4.038753   350A      4.056417  
     351A      4.070701   352A      4.087300   353A      4.095948  
     354A      4.128026   355A      4.152549   356A      4.163936  
     357A      4.191943   358A      4.206857   359A      4.224809  
     360A      4.238817   361A      4.246556   362A      4.262984  
     363A      4.266261   364A      4.279439   365A      4.292469  
     366A      4.310255   367A      4.317169   368A      4.324060  
     369A      4.342917   370A      4.346410   371A      4.365236  
     372A      4.370836   373A      4.379360   374A      4.390294  
     375A      4.400583   376A      4.408470   377A      4.423945  
     378A      4.434219   379A      4.448053   380A      4.451529  
     381A      4.454468   382A      4.470425   383A      4.486533  
     384A      4.495638   385A      4.498682   386A      4.521420  
     387A      4.523817   388A      4.534596   389A      4.560976  
     390A      4.575464   391A      4.599149   392A      4.615674  
     393A      4.620625   394A      4.645728   395A      4.655216  
     396A      4.667184   397A      4.688884   398A      4.711751  
     399A      4.725174   400A      4.746632   401A      4.762035  
     402A      4.793287   403A      4.810344   404A      4.815967  
     405A      4.823198   406A      4.868093   407A      4.882142  
     408A      4.913196   409A      4.921683   410A      4.931194  
     411A      4.958761   412A      4.997636   413A      5.030228  
     414A      5.038835   415A      5.074759   416A      5.150790  
     417A      5.169173   418A      5.187722   419A      5.209633  
     420A      5.219374   421A      5.225040   422A      5.237987  
     423A      5.267442   424A      5.277767   425A      5.297505  
     426A      5.303169   427A      5.314877   428A      5.333236  
     429A      5.337067   430A      5.356528   431A      5.371607  
     432A      5.386712   433A      5.395488   434A      5.447422  
     435A      5.468717   436A      5.482366   437A      5.497383  
     438A      5.534848   439A      5.558486   440A      5.591249  
     441A      5.640951   442A      5.646891   443A      5.670607  
     444A      5.689569   445A      5.696025   446A      5.716696  
     447A      5.738418   448A      5.753045   449A      5.759866  
     450A      5.788207   451A      5.800726   452A      5.801636  
     453A      5.857661   454A      5.877916   455A      5.886101  
     456A      5.910220   457A      5.953407   458A      5.974771  
     459A      6.001937   460A      6.034513   461A      6.080861  
     462A      6.097693   463A      6.109028   464A      6.226476  
     465A      6.233536   466A      6.321204   467A      6.369681  
     468A      6.452636   469A      6.484661   470A      6.493020  
     471A      6.506012   472A      6.531769   473A      6.541763  
     474A      6.593435   475A      6.700139   476A      6.719927  
     477A      6.808510   478A      6.820870   479A      7.219255  
     480A      7.312110   481A      7.379738   482A      7.483088  
     483A      7.500172   484A      7.523802   485A      7.768574  
     486A      7.821518   487A     12.218294   488A     12.360322  
     489A     13.962824   490A     14.142133   491A     14.599029  
     492A     14.672741   493A     15.319720   494A     15.734881  

    Final Occupation by Irrep:
              A 
    DOCC [    32 ]

  @DF-RHF Final Energy:  -364.22819706902271

   => Energetics <=

    Nuclear Repulsion Energy =            362.2469163421300777
    One-Electron Energy =               -1212.3864126905998546
    Two-Electron Energy =                 485.9112992794470074
    Total Energy =                       -364.2281970690227126

Computation Completed


Properties will be evaluated at   0.000000,   0.000000,   0.000000 [a0]

Properties computed using the SCF density matrix

  Nuclear Dipole Moment: [e a0]
     X:    -0.1475      Y:     0.8392      Z:     1.5213

  Electronic Dipole Moment: [e a0]
     X:     0.4577      Y:     0.3753      Z:    -1.0538

  Dipole Moment: [e a0]
     X:     0.3102      Y:     1.2145      Z:     0.4674     Total:     1.3378

  Dipole Moment: [D]
     X:     0.7885      Y:     3.0868      Z:     1.1881     Total:     3.4003


*** tstop() called on r282 at Sat Sep 11 02:32:25 2021
Module time:
	user time   =      64.20 seconds =       1.07 minutes
	system time =       1.33 seconds =       0.02 minutes
	total time  =         66 seconds =       1.10 minutes
Total time:
	user time   =      64.20 seconds =       1.07 minutes
	system time =       1.33 seconds =       0.02 minutes
	total time  =         66 seconds =       1.10 minutes

  //>>>>>>>>>>>>>>>>>>>>>>>>>>>>>>>>>>>//
  //            Monomer A HF           //
  //<<<<<<<<<<<<<<<<<<<<<<<<<<<<<<<<<<<//


*** tstart() called on r282
*** at Sat Sep 11 02:32:25 2021

   => Loading Basis Set <=

    Name: JUN-CC-PVTZ
    Role: ORBITAL
    Keyword: BASIS
    atoms 1-2, 7, 13-15    entry C          line   217 file /home/r08543048/miniconda3/share/psi4/basis/jun-cc-pvtz.gbs 
    atoms 3                entry O          line   305 file /home/r08543048/miniconda3/share/psi4/basis/jun-cc-pvtz.gbs 
    atoms 4                entry N          line   261 file /home/r08543048/miniconda3/share/psi4/basis/jun-cc-pvtz.gbs 
    atoms 5-6, 8-12, 16-21 entry H          line    36 file /home/r08543048/miniconda3/share/psi4/basis/jun-cc-pvtz.gbs 


         ---------------------------------------------------------
                                   SCF
               by Justin Turney, Rob Parrish, Andy Simmonett
                          and Daniel G. A. Smith
                              RHF Reference
                        1 Threads,  20980 MiB Core
         ---------------------------------------------------------

  ==> Geometry <==

    Molecular point group: c1
    Full point group: C1

    Geometry (in Angstrom), charge = 0, multiplicity = 1:

       Center              X                  Y                   Z               Mass       
    ------------   -----------------  -----------------  -----------------  -----------------
         C            2.576529469299     0.493674522659     0.392663691643    12.000000000000
         C            1.131614469299     0.192724522659     0.041296691643    12.000000000000
         O            0.757657469299    -0.915253477341    -0.327324308357    15.994914619570
         N            0.272255469299     1.236272522659     0.192235691643    14.003074004430
         H           -0.712778530701     1.098373522659     0.015070691643     1.007825032230
         H            0.597932469299     2.138829522659     0.484261691643     1.007825032230
         C            3.538375469299    -0.478571477341    -0.270613308357    12.000000000000
         H            3.486584469299    -0.393518477341    -1.354747308357     1.007825032230
         H            4.561676469299    -0.279129477341     0.043256691643     1.007825032230
         H            3.280862469299    -1.501358477341    -0.007261308357     1.007825032230
         H            2.810454469299     1.525547522659     0.123696691643     1.007825032230
         H            2.659364469299     0.427125522659     1.480607691643     1.007825032230
      Gh(C)          -3.260075530701     0.990808522659    -0.230103308357    12.000000000000
      Gh(C)          -2.772939530701    -0.234607477341    -0.456340308357    12.000000000000
      Gh(C)          -2.527625530701    -1.262607477341     0.598586691643    12.000000000000
      Gh(H)          -3.415398530701     1.692410522659    -1.038155308357     1.007825032230
      Gh(H)          -3.527732530701     1.308179522659     0.770466691643     1.007825032230
      Gh(H)          -2.518544530701    -0.513391477341    -1.473904308357     1.007825032230
      Gh(H)          -1.472885530701    -1.542877477341     0.603639691643     1.007825032230
      Gh(H)          -2.806645530701    -0.889968477341     1.583684691643     1.007825032230
      Gh(H)          -3.103260530701    -2.166561477341     0.394419691643     1.007825032230

  Running in c1 symmetry.

  Rotational constants: A =      0.14071  B =      0.02457  C =      0.02222 [cm^-1]
  Rotational constants: A =   4218.40218  B =    736.52895  C =    666.12083 [MHz]
  Nuclear repulsion =  179.108787013480878

  Charge       = 0
  Multiplicity = 1
  Electrons    = 40
  Nalpha       = 20
  Nbeta        = 20

  ==> Algorithm <==

  SCF Algorithm Type is DF.
  DIIS enabled.
  MOM disabled.
  Fractional occupation disabled.
  Guess Type is SAD.
  Energy threshold   = 1.00e-08
  Density threshold  = 1.00e-08
  Integral threshold = 0.00e+00

  ==> Primary Basis <==

  Basis Set: JUN-CC-PVTZ
    Blend: JUN-CC-PVTZ
    Number of shells: 182
    Number of basis function: 494
    Number of Cartesian functions: 555
    Spherical Harmonics?: true
    Max angular momentum: 3

   => Loading Basis Set <=

    Name: (JUN-CC-PVTZ AUX)
    Role: JKFIT
    Keyword: DF_BASIS_SCF
    atoms 1-2, 7, 13-15    entry C          line   152 file /home/r08543048/miniconda3/share/psi4/basis/jun-cc-pvtz-jkfit.gbs 
    atoms 3                entry O          line   272 file /home/r08543048/miniconda3/share/psi4/basis/jun-cc-pvtz-jkfit.gbs 
    atoms 4                entry N          line   212 file /home/r08543048/miniconda3/share/psi4/basis/jun-cc-pvtz-jkfit.gbs 
    atoms 5-6, 8-12, 16-21 entry H          line    70 file /home/r08543048/miniconda3/share/psi4/basis/jun-cc-pvtz-jkfit.gbs 

  ==> Pre-Iterations <==

   -------------------------------------------------------
    Irrep   Nso     Nmo     Nalpha   Nbeta   Ndocc  Nsocc
   -------------------------------------------------------
     A        494     494       0       0       0       0
   -------------------------------------------------------
    Total     494     494      20      20      20       0
   -------------------------------------------------------

  ==> Integral Setup <==

  ==> DiskDFJK: Density-Fitted J/K Matrices <==

    J tasked:                  Yes
    K tasked:                  Yes
    wK tasked:                  No
    OpenMP threads:              1
    Integrals threads:           1
    Memory [MiB]:            15735
    Algorithm:                Core
    Integral Cache:           LOAD
    Schwarz Cutoff:          1E-12
    Fitting Condition:       1E-10

   => Auxiliary Basis Set <=

  Basis Set: (JUN-CC-PVTZ AUX)
    Blend: JUN-CC-PVTZ-JKFIT
    Number of shells: 362
    Number of basis function: 1150
    Number of Cartesian functions: 1383
    Spherical Harmonics?: true
    Max angular momentum: 4

  Minimum eigenvalue in the overlap matrix is 3.8630721317E-05.
  Using Symmetric Orthogonalization.

  SCF Guess: Superposition of Atomic Densities via on-the-fly atomic UHF.

  ==> Iterations <==

                           Total Energy        Delta E     RMS |[F,P]|

   @DF-RHF iter SAD:  -246.29949460475615   -2.46299e+02   0.00000e+00 
   @DF-RHF iter   1:  -246.89404485018079   -5.94550e-01   1.32562e-03 DIIS
   @DF-RHF iter   2:  -247.05580118029602   -1.61756e-01   7.62838e-04 DIIS
   @DF-RHF iter   3:  -247.10616840290717   -5.03672e-02   1.48785e-04 DIIS
   @DF-RHF iter   4:  -247.10916861650276   -3.00021e-03   6.52241e-05 DIIS
   @DF-RHF iter   5:  -247.10980770380354   -6.39087e-04   1.03246e-05 DIIS
   @DF-RHF iter   6:  -247.10984467964448   -3.69758e-05   4.18962e-06 DIIS
   @DF-RHF iter   7:  -247.10984945529279   -4.77565e-06   1.83010e-06 DIIS
   @DF-RHF iter   8:  -247.10985054123375   -1.08594e-06   7.06991e-07 DIIS
   @DF-RHF iter   9:  -247.10985073110373   -1.89870e-07   1.56074e-07 DIIS
   @DF-RHF iter  10:  -247.10985074087077   -9.76704e-09   3.65138e-08 DIIS
   @DF-RHF iter  11:  -247.10985074123749   -3.66725e-10   1.05252e-08 DIIS
   @DF-RHF iter  12:  -247.10985074126489   -2.73985e-11   3.00347e-09 DIIS
  Energy and wave function converged.


  ==> Post-Iterations <==

    Orbital Energies [Eh]
    ---------------------

    Doubly Occupied:                                                      

       1A    -20.515760     2A    -15.586179     3A    -11.349994  
       4A    -11.241655     5A    -11.215183     6A     -1.374058  
       7A     -1.212236     8A     -1.052152     9A     -0.893657  
      10A     -0.784124    11A     -0.721347    12A     -0.672401  
      13A     -0.635291    14A     -0.598621    15A     -0.555048  
      16A     -0.525220    17A     -0.515911    18A     -0.494137  
      19A     -0.421553    20A     -0.413843  

    Virtual:                                                              

      21A      0.030485    22A      0.044977    23A      0.053172  
      24A      0.056902    25A      0.063698    26A      0.073561  
      27A      0.077561    28A      0.089958    29A      0.095237  
      30A      0.099017    31A      0.103639    32A      0.109730  
      33A      0.113651    34A      0.116559    35A      0.120810  
      36A      0.130890    37A      0.147023    38A      0.150696  
      39A      0.154025    40A      0.158317    41A      0.166261  
      42A      0.168387    43A      0.174413    44A      0.179910  
      45A      0.195006    46A      0.204780    47A      0.209916  
      48A      0.216762    49A      0.237647    50A      0.245955  
      51A      0.255249    52A      0.263627    53A      0.267812  
      54A      0.273979    55A      0.290733    56A      0.292686  
      57A      0.296104    58A      0.300722    59A      0.309039  
      60A      0.313079    61A      0.317769    62A      0.326057  
      63A      0.330699    64A      0.335239    65A      0.344699  
      66A      0.349159    67A      0.351330    68A      0.354970  
      69A      0.359312    70A      0.362752    71A      0.369459  
      72A      0.386829    73A      0.392966    74A      0.396246  
      75A      0.400438    76A      0.413356    77A      0.421379  
      78A      0.424837    79A      0.434809    80A      0.438193  
      81A      0.443782    82A      0.449287    83A      0.460751  
      84A      0.463617    85A      0.475478    86A      0.489661  
      87A      0.498674    88A      0.504338    89A      0.518575  
      90A      0.520389    91A      0.521735    92A      0.542392  
      93A      0.544558    94A      0.551942    95A      0.556080  
      96A      0.562765    97A      0.567732    98A      0.584436  
      99A      0.587291   100A      0.604853   101A      0.611475  
     102A      0.622494   103A      0.627952   104A      0.629687  
     105A      0.643831   106A      0.652187   107A      0.654583  
     108A      0.666952   109A      0.669223   110A      0.673219  
     111A      0.690301   112A      0.693606   113A      0.712360  
     114A      0.718175   115A      0.733403   116A      0.749695  
     117A      0.753007   118A      0.760330   119A      0.771792  
     120A      0.778603   121A      0.791963   122A      0.796476  
     123A      0.804710   124A      0.818424   125A      0.819294  
     126A      0.831570   127A      0.852925   128A      0.872169  
     129A      0.881717   130A      0.898000   131A      0.925920  
     132A      0.933319   133A      0.940916   134A      0.944531  
     135A      0.966025   136A      0.978616   137A      1.008362  
     138A      1.013925   139A      1.037287   140A      1.046592  
     141A      1.057733   142A      1.061065   143A      1.081608  
     144A      1.096068   145A      1.102298   146A      1.113933  
     147A      1.125409   148A      1.135301   149A      1.139332  
     150A      1.150693   151A      1.171093   152A      1.182288  
     153A      1.198319   154A      1.211282   155A      1.224492  
     156A      1.229888   157A      1.244442   158A      1.252880  
     159A      1.254934   160A      1.275919   161A      1.282957  
     162A      1.287469   163A      1.307338   164A      1.321121  
     165A      1.324382   166A      1.333724   167A      1.345635  
     168A      1.348758   169A      1.357240   170A      1.365103  
     171A      1.373829   172A      1.375638   173A      1.388266  
     174A      1.400244   175A      1.400963   176A      1.407454  
     177A      1.416012   178A      1.425773   179A      1.444490  
     180A      1.452850   181A      1.464277   182A      1.473213  
     183A      1.476421   184A      1.486951   185A      1.494534  
     186A      1.504399   187A      1.511567   188A      1.525373  
     189A      1.538649   190A      1.546350   191A      1.555688  
     192A      1.567428   193A      1.578348   194A      1.587097  
     195A      1.590351   196A      1.607610   197A      1.616861  
     198A      1.627199   199A      1.630687   200A      1.652261  
     201A      1.659646   202A      1.665642   203A      1.675238  
     204A      1.690750   205A      1.698321   206A      1.729835  
     207A      1.750062   208A      1.763557   209A      1.780534  
     210A      1.792925   211A      1.798952   212A      1.812384  
     213A      1.835515   214A      1.856947   215A      1.872181  
     216A      1.882072   217A      1.908411   218A      1.914627  
     219A      1.934593   220A      1.960293   221A      1.975765  
     222A      2.013168   223A      2.029663   224A      2.063514  
     225A      2.070047   226A      2.107614   227A      2.118670  
     228A      2.133624   229A      2.205533   230A      2.227644  
     231A      2.249978   232A      2.274632   233A      2.313183  
     234A      2.349525   235A      2.397007   236A      2.422320  
     237A      2.454490   238A      2.460368   239A      2.516464  
     240A      2.528283   241A      2.547649   242A      2.631964  
     243A      2.674344   244A      2.695381   245A      2.744533  
     246A      2.795166   247A      2.840578   248A      2.850391  
     249A      2.889605   250A      2.900580   251A      2.911876  
     252A      2.936635   253A      2.977106   254A      2.991693  
     255A      3.014893   256A      3.052401   257A      3.114180  
     258A      3.126145   259A      3.139931   260A      3.168102  
     261A      3.189054   262A      3.225682   263A      3.254713  
     264A      3.287982   265A      3.326470   266A      3.343869  
     267A      3.356141   268A      3.390436   269A      3.396181  
     270A      3.420679   271A      3.425761   272A      3.442754  
     273A      3.450203   274A      3.451629   275A      3.469508  
     276A      3.478022   277A      3.487054   278A      3.505048  
     279A      3.515130   280A      3.526420   281A      3.537338  
     282A      3.552795   283A      3.563049   284A      3.568820  
     285A      3.588844   286A      3.599440   287A      3.608151  
     288A      3.628501   289A      3.642796   290A      3.650074  
     291A      3.651906   292A      3.662074   293A      3.680536  
     294A      3.702451   295A      3.705725   296A      3.708953  
     297A      3.732005   298A      3.743301   299A      3.770640  
     300A      3.783291   301A      3.788837   302A      3.805212  
     303A      3.822164   304A      3.842432   305A      3.860829  
     306A      3.867961   307A      3.876204   308A      3.887594  
     309A      3.895891   310A      3.915768   311A      3.936327  
     312A      3.937824   313A      3.961496   314A      3.974533  
     315A      3.990892   316A      3.995721   317A      4.021096  
     318A      4.034643   319A      4.046753   320A      4.064875  
     321A      4.080785   322A      4.105863   323A      4.109394  
     324A      4.117690   325A      4.131682   326A      4.148439  
     327A      4.176198   328A      4.188578   329A      4.211447  
     330A      4.221169   331A      4.237287   332A      4.255126  
     333A      4.258462   334A      4.265733   335A      4.269948  
     336A      4.284715   337A      4.290876   338A      4.308277  
     339A      4.319381   340A      4.339010   341A      4.340555  
     342A      4.369027   343A      4.394587   344A      4.405997  
     345A      4.414242   346A      4.419767   347A      4.437939  
     348A      4.439844   349A      4.449408   350A      4.459349  
     351A      4.468114   352A      4.483961   353A      4.490234  
     354A      4.502795   355A      4.517952   356A      4.521836  
     357A      4.533654   358A      4.554262   359A      4.554813  
     360A      4.571586   361A      4.577512   362A      4.609811  
     363A      4.614051   364A      4.625268   365A      4.639882  
     366A      4.666293   367A      4.671181   368A      4.680082  
     369A      4.695094   370A      4.702632   371A      4.715455  
     372A      4.742695   373A      4.757587   374A      4.771520  
     375A      4.778210   376A      4.795021   377A      4.807182  
     378A      4.813412   379A      4.819281   380A      4.827087  
     381A      4.858371   382A      4.867113   383A      4.875113  
     384A      4.884574   385A      4.912866   386A      4.922241  
     387A      4.932367   388A      4.935494   389A      4.967183  
     390A      4.980748   391A      4.987248   392A      4.999588  
     393A      5.023823   394A      5.056922   395A      5.061127  
     396A      5.096402   397A      5.100148   398A      5.152261  
     399A      5.163980   400A      5.181198   401A      5.185978  
     402A      5.214246   403A      5.221780   404A      5.248772  
     405A      5.265893   406A      5.276894   407A      5.298228  
     408A      5.307123   409A      5.326911   410A      5.332311  
     411A      5.373196   412A      5.388001   413A      5.399332  
     414A      5.447752   415A      5.478656   416A      5.485269  
     417A      5.526565   418A      5.526915   419A      5.538226  
     420A      5.561728   421A      5.582622   422A      5.646226  
     423A      5.669728   424A      5.685203   425A      5.715004  
     426A      5.737778   427A      5.751911   428A      5.761699  
     429A      5.797639   430A      5.821100   431A      5.838403  
     432A      5.855976   433A      5.882820   434A      5.901591  
     435A      5.929797   436A      5.955946   437A      5.991122  
     438A      6.008239   439A      6.030042   440A      6.039716  
     441A      6.074445   442A      6.091671   443A      6.141950  
     444A      6.151591   445A      6.216221   446A      6.229105  
     447A      6.258453   448A      6.266755   449A      6.320539  
     450A      6.349168   451A      6.379624   452A      6.399049  
     453A      6.491205   454A      6.504095   455A      6.529353  
     456A      6.586653   457A      6.630261   458A      6.712020  
     459A      6.729166   460A      6.760581   461A      6.799804  
     462A      6.817431   463A      6.868658   464A      7.086570  
     465A      7.215262   466A      7.310836   467A      7.369970  
     468A      7.379793   469A      7.414815   470A      7.479120  
     471A      7.497167   472A      7.524151   473A      7.593370  
     474A      7.607610   475A      7.654367   476A      7.769256  
     477A      7.816526   478A      7.840751   479A      7.919787  
     480A      7.970472   481A      8.131372   482A      8.305558  
     483A      8.748365   484A      9.407754   485A      9.905642  
     486A     10.196369   487A     12.229743   488A     13.959997  
     489A     14.157074   490A     14.599182   491A     15.710416  
     492A     41.158220   493A     45.883147   494A     47.154367  

    Final Occupation by Irrep:
              A 
    DOCC [    20 ]

  @DF-RHF Final Energy:  -247.10985074126489

   => Energetics <=

    Nuclear Repulsion Energy =            179.1087870134808782
    One-Electron Energy =                -690.8805360257031225
    Two-Electron Energy =                 264.6618982709573515
    Total Energy =                       -247.1098507412648928

Computation Completed


Properties will be evaluated at   0.000000,   0.000000,   0.000000 [a0]

Properties computed using the SCF density matrix

  Nuclear Dipole Moment: [e a0]
     X:   128.7475      Y:    10.5725      Z:     0.9298

  Electronic Dipole Moment: [e a0]
     X:  -128.4679      Y:    -9.0569      Z:    -0.4429

  Dipole Moment: [e a0]
     X:     0.2797      Y:     1.5156      Z:     0.4869     Total:     1.6162

  Dipole Moment: [D]
     X:     0.7109      Y:     3.8522      Z:     1.2375     Total:     4.1081


*** tstop() called on r282 at Sat Sep 11 02:33:04 2021
Module time:
	user time   =      39.10 seconds =       0.65 minutes
	system time =       0.70 seconds =       0.01 minutes
	total time  =         39 seconds =       0.65 minutes
Total time:
	user time   =     103.31 seconds =       1.72 minutes
	system time =       2.03 seconds =       0.03 minutes
	total time  =        105 seconds =       1.75 minutes

  //>>>>>>>>>>>>>>>>>>>>>>>>>>>>>>>>>>>//
  //            Monomer B HF           //
  //<<<<<<<<<<<<<<<<<<<<<<<<<<<<<<<<<<<//


*** tstart() called on r282
*** at Sat Sep 11 02:33:04 2021

   => Loading Basis Set <=

    Name: JUN-CC-PVTZ
    Role: ORBITAL
    Keyword: BASIS
    atoms 1-2, 7, 13-15    entry C          line   217 file /home/r08543048/miniconda3/share/psi4/basis/jun-cc-pvtz.gbs 
    atoms 3                entry O          line   305 file /home/r08543048/miniconda3/share/psi4/basis/jun-cc-pvtz.gbs 
    atoms 4                entry N          line   261 file /home/r08543048/miniconda3/share/psi4/basis/jun-cc-pvtz.gbs 
    atoms 5-6, 8-12, 16-21 entry H          line    36 file /home/r08543048/miniconda3/share/psi4/basis/jun-cc-pvtz.gbs 


         ---------------------------------------------------------
                                   SCF
               by Justin Turney, Rob Parrish, Andy Simmonett
                          and Daniel G. A. Smith
                              RHF Reference
                        1 Threads,  20980 MiB Core
         ---------------------------------------------------------

  ==> Geometry <==

    Molecular point group: c1
    Full point group: C1

    Geometry (in Angstrom), charge = 0, multiplicity = 1:

       Center              X                  Y                   Z               Mass       
    ------------   -----------------  -----------------  -----------------  -----------------
      Gh(C)           2.576529469299     0.493674522659     0.392663691643    12.000000000000
      Gh(C)           1.131614469299     0.192724522659     0.041296691643    12.000000000000
      Gh(O)           0.757657469299    -0.915253477341    -0.327324308357    15.994914619570
      Gh(N)           0.272255469299     1.236272522659     0.192235691643    14.003074004430
      Gh(H)          -0.712778530701     1.098373522659     0.015070691643     1.007825032230
      Gh(H)           0.597932469299     2.138829522659     0.484261691643     1.007825032230
      Gh(C)           3.538375469299    -0.478571477341    -0.270613308357    12.000000000000
      Gh(H)           3.486584469299    -0.393518477341    -1.354747308357     1.007825032230
      Gh(H)           4.561676469299    -0.279129477341     0.043256691643     1.007825032230
      Gh(H)           3.280862469299    -1.501358477341    -0.007261308357     1.007825032230
      Gh(H)           2.810454469299     1.525547522659     0.123696691643     1.007825032230
      Gh(H)           2.659364469299     0.427125522659     1.480607691643     1.007825032230
         C           -3.260075530701     0.990808522659    -0.230103308357    12.000000000000
         C           -2.772939530701    -0.234607477341    -0.456340308357    12.000000000000
         C           -2.527625530701    -1.262607477341     0.598586691643    12.000000000000
         H           -3.415398530701     1.692410522659    -1.038155308357     1.007825032230
         H           -3.527732530701     1.308179522659     0.770466691643     1.007825032230
         H           -2.518544530701    -0.513391477341    -1.473904308357     1.007825032230
         H           -1.472885530701    -1.542877477341     0.603639691643     1.007825032230
         H           -2.806645530701    -0.889968477341     1.583684691643     1.007825032230
         H           -3.103260530701    -2.166561477341     0.394419691643     1.007825032230

  Running in c1 symmetry.

  Rotational constants: A =      0.14071  B =      0.02457  C =      0.02222 [cm^-1]
  Rotational constants: A =   4218.40218  B =    736.52895  C =    666.12083 [MHz]
  Nuclear repulsion =   70.844694356127590

  Charge       = 0
  Multiplicity = 1
  Electrons    = 24
  Nalpha       = 12
  Nbeta        = 12

  ==> Algorithm <==

  SCF Algorithm Type is DF.
  DIIS enabled.
  MOM disabled.
  Fractional occupation disabled.
  Guess Type is SAD.
  Energy threshold   = 1.00e-08
  Density threshold  = 1.00e-08
  Integral threshold = 0.00e+00

  ==> Primary Basis <==

  Basis Set: JUN-CC-PVTZ
    Blend: JUN-CC-PVTZ
    Number of shells: 182
    Number of basis function: 494
    Number of Cartesian functions: 555
    Spherical Harmonics?: true
    Max angular momentum: 3

   => Loading Basis Set <=

    Name: (JUN-CC-PVTZ AUX)
    Role: JKFIT
    Keyword: DF_BASIS_SCF
    atoms 1-2, 7, 13-15    entry C          line   152 file /home/r08543048/miniconda3/share/psi4/basis/jun-cc-pvtz-jkfit.gbs 
    atoms 3                entry O          line   272 file /home/r08543048/miniconda3/share/psi4/basis/jun-cc-pvtz-jkfit.gbs 
    atoms 4                entry N          line   212 file /home/r08543048/miniconda3/share/psi4/basis/jun-cc-pvtz-jkfit.gbs 
    atoms 5-6, 8-12, 16-21 entry H          line    70 file /home/r08543048/miniconda3/share/psi4/basis/jun-cc-pvtz-jkfit.gbs 

  ==> Pre-Iterations <==

   -------------------------------------------------------
    Irrep   Nso     Nmo     Nalpha   Nbeta   Ndocc  Nsocc
   -------------------------------------------------------
     A        494     494       0       0       0       0
   -------------------------------------------------------
    Total     494     494      12      12      12       0
   -------------------------------------------------------

  ==> Integral Setup <==

  ==> DiskDFJK: Density-Fitted J/K Matrices <==

    J tasked:                  Yes
    K tasked:                  Yes
    wK tasked:                  No
    OpenMP threads:              1
    Integrals threads:           1
    Memory [MiB]:            15735
    Algorithm:                Core
    Integral Cache:           LOAD
    Schwarz Cutoff:          1E-12
    Fitting Condition:       1E-10

   => Auxiliary Basis Set <=

  Basis Set: (JUN-CC-PVTZ AUX)
    Blend: JUN-CC-PVTZ-JKFIT
    Number of shells: 362
    Number of basis function: 1150
    Number of Cartesian functions: 1383
    Spherical Harmonics?: true
    Max angular momentum: 4

  Minimum eigenvalue in the overlap matrix is 3.8630721317E-05.
  Using Symmetric Orthogonalization.

  SCF Guess: Superposition of Atomic Densities via on-the-fly atomic UHF.

  ==> Iterations <==

                           Total Energy        Delta E     RMS |[F,P]|

   @DF-RHF iter SAD:  -116.33182015538817   -1.16332e+02   0.00000e+00 
   @DF-RHF iter   1:  -116.98781234354692   -6.55992e-01   9.27019e-04 DIIS
   @DF-RHF iter   2:  -117.09538062249084   -1.07568e-01   3.97613e-04 DIIS
   @DF-RHF iter   3:  -117.11540002166041   -2.00194e-02   7.16970e-05 DIIS
   @DF-RHF iter   4:  -117.11669623088017   -1.29621e-03   2.17209e-05 DIIS
   @DF-RHF iter   5:  -117.11677101795544   -7.47871e-05   5.79768e-06 DIIS
   @DF-RHF iter   6:  -117.11677724364262   -6.22569e-06   1.04739e-06 DIIS
   @DF-RHF iter   7:  -117.11677755109416   -3.07452e-07   3.82496e-07 DIIS
   @DF-RHF iter   8:  -117.11677759125996   -4.01658e-08   1.31589e-07 DIIS
   @DF-RHF iter   9:  -117.11677759697946   -5.71950e-09   4.79240e-08 DIIS
   @DF-RHF iter  10:  -117.11677759790688   -9.27415e-10   1.10857e-08 DIIS
   @DF-RHF iter  11:  -117.11677759795255   -4.56737e-11   1.96580e-09 DIIS
  Energy and wave function converged.


  ==> Post-Iterations <==

    Orbital Energies [Eh]
    ---------------------

    Doubly Occupied:                                                      

       1A    -11.234499     2A    -11.220969     3A    -11.217663  
       4A     -1.064675     5A     -0.933015     6A     -0.757654  
       7A     -0.639458     8A     -0.582899     9A     -0.569641  
      10A     -0.523483    11A     -0.492779    12A     -0.357215  

    Virtual:                                                              

      13A      0.031831    14A      0.049162    15A      0.052847  
      16A      0.054898    17A      0.062741    18A      0.072241  
      19A      0.073996    20A      0.089871    21A      0.091224  
      22A      0.096867    23A      0.100768    24A      0.107257  
      25A      0.108589    26A      0.114920    27A      0.122170  
      28A      0.132376    29A      0.138962    30A      0.144991  
      31A      0.157468    32A      0.159688    33A      0.164730  
      34A      0.170966    35A      0.174170    36A      0.181666  
      37A      0.188753    38A      0.190370    39A      0.198797  
      40A      0.210673    41A      0.217961    42A      0.225218  
      43A      0.233354    44A      0.241829    45A      0.250985  
      46A      0.268852    47A      0.276014    48A      0.284550  
      49A      0.295733    50A      0.302265    51A      0.309128  
      52A      0.318715    53A      0.326296    54A      0.327553  
      55A      0.338675    56A      0.340722    57A      0.350597  
      58A      0.352121    59A      0.360380    60A      0.365469  
      61A      0.372144    62A      0.373289    63A      0.383940  
      64A      0.386622    65A      0.393819    66A      0.395393  
      67A      0.402124    68A      0.408945    69A      0.413812  
      70A      0.415454    71A      0.422831    72A      0.436665  
      73A      0.439779    74A      0.458426    75A      0.459176  
      76A      0.462092    77A      0.470681    78A      0.476449  
      79A      0.490466    80A      0.494868    81A      0.497207  
      82A      0.508595    83A      0.515309    84A      0.526344  
      85A      0.538294    86A      0.543495    87A      0.547573  
      88A      0.550903    89A      0.563624    90A      0.567659  
      91A      0.584960    92A      0.604131    93A      0.605584  
      94A      0.619246    95A      0.641631    96A      0.644713  
      97A      0.658989    98A      0.666162    99A      0.675986  
     100A      0.690250   101A      0.694662   102A      0.699541  
     103A      0.707134   104A      0.727939   105A      0.735993  
     106A      0.739797   107A      0.749730   108A      0.761275  
     109A      0.779056   110A      0.782164   111A      0.789330  
     112A      0.799267   113A      0.821207   114A      0.822528  
     115A      0.830724   116A      0.842368   117A      0.847972  
     118A      0.859088   119A      0.862714   120A      0.874161  
     121A      0.884867   122A      0.905698   123A      0.909878  
     124A      0.919953   125A      0.941082   126A      0.951463  
     127A      0.973821   128A      0.979426   129A      0.998402  
     130A      1.003458   131A      1.006063   132A      1.021410  
     133A      1.038800   134A      1.045577   135A      1.050056  
     136A      1.067168   137A      1.069878   138A      1.097455  
     139A      1.102199   140A      1.118344   141A      1.130354  
     142A      1.143623   143A      1.147596   144A      1.159019  
     145A      1.167314   146A      1.168330   147A      1.187329  
     148A      1.191387   149A      1.211821   150A      1.220144  
     151A      1.241455   152A      1.249689   153A      1.268915  
     154A      1.272175   155A      1.282938   156A      1.293192  
     157A      1.303096   158A      1.312739   159A      1.329650  
     160A      1.339607   161A      1.347518   162A      1.366437  
     163A      1.380959   164A      1.386207   165A      1.401049  
     166A      1.409421   167A      1.423532   168A      1.425687  
     169A      1.434811   170A      1.452179   171A      1.470048  
     172A      1.480427   173A      1.493375   174A      1.499317  
     175A      1.503600   176A      1.518057   177A      1.533672  
     178A      1.544705   179A      1.550403   180A      1.561556  
     181A      1.577776   182A      1.579589   183A      1.589044  
     184A      1.596895   185A      1.609758   186A      1.615402  
     187A      1.629473   188A      1.631854   189A      1.651253  
     190A      1.663395   191A      1.670008   192A      1.681007  
     193A      1.700492   194A      1.713743   195A      1.731729  
     196A      1.755252   197A      1.768289   198A      1.779186  
     199A      1.782357   200A      1.813805   201A      1.831765  
     202A      1.839233   203A      1.854004   204A      1.875796  
     205A      1.883862   206A      1.897912   207A      1.907218  
     208A      1.945623   209A      1.949878   210A      1.970853  
     211A      2.014570   212A      2.040127   213A      2.041950  
     214A      2.070243   215A      2.086956   216A      2.107641  
     217A      2.150358   218A      2.164340   219A      2.213226  
     220A      2.216174   221A      2.287496   222A      2.311065  
     223A      2.337567   224A      2.389307   225A      2.414677  
     226A      2.429902   227A      2.457857   228A      2.521908  
     229A      2.550766   230A      2.592929   231A      2.623976  
     232A      2.641145   233A      2.676173   234A      2.732112  
     235A      2.744286   236A      2.764381   237A      2.785206  
     238A      2.805414   239A      2.807531   240A      2.829060  
     241A      2.844759   242A      2.865414   243A      2.875185  
     244A      2.890550   245A      2.915903   246A      2.952174  
     247A      2.962871   248A      2.992946   249A      3.021807  
     250A      3.060068   251A      3.069622   252A      3.085539  
     253A      3.093481   254A      3.101315   255A      3.143634  
     256A      3.164853   257A      3.179070   258A      3.205960  
     259A      3.230767   260A      3.231920   261A      3.273918  
     262A      3.289581   263A      3.315540   264A      3.326367  
     265A      3.348227   266A      3.364653   267A      3.383413  
     268A      3.390158   269A      3.413480   270A      3.443979  
     271A      3.456595   272A      3.491489   273A      3.495908  
     274A      3.507105   275A      3.528390   276A      3.547278  
     277A      3.555018   278A      3.573081   279A      3.594169  
     280A      3.608491   281A      3.614255   282A      3.627660  
     283A      3.632985   284A      3.668097   285A      3.668538  
     286A      3.687794   287A      3.699628   288A      3.707166  
     289A      3.745837   290A      3.750546   291A      3.767588  
     292A      3.778021   293A      3.793151   294A      3.809072  
     295A      3.813945   296A      3.818715   297A      3.833889  
     298A      3.847820   299A      3.853702   300A      3.859927  
     301A      3.875261   302A      3.889151   303A      3.914307  
     304A      3.932597   305A      3.940580   306A      3.983894  
     307A      3.992511   308A      4.012109   309A      4.051231  
     310A      4.057735   311A      4.069174   312A      4.078438  
     313A      4.090191   314A      4.092606   315A      4.099560  
     316A      4.136637   317A      4.144706   318A      4.184766  
     319A      4.194356   320A      4.209684   321A      4.218288  
     322A      4.250662   323A      4.282118   324A      4.286283  
     325A      4.289612   326A      4.310201   327A      4.321764  
     328A      4.337601   329A      4.358973   330A      4.374346  
     331A      4.379719   332A      4.386712   333A      4.402779  
     334A      4.416441   335A      4.434182   336A      4.439684  
     337A      4.456231   338A      4.476148   339A      4.490524  
     340A      4.493031   341A      4.504452   342A      4.509005  
     343A      4.524502   344A      4.551796   345A      4.566333  
     346A      4.596946   347A      4.614598   348A      4.625742  
     349A      4.631711   350A      4.650910   351A      4.654339  
     352A      4.680694   353A      4.685505   354A      4.699880  
     355A      4.721312   356A      4.733523   357A      4.740992  
     358A      4.761766   359A      4.767948   360A      4.787628  
     361A      4.798717   362A      4.803552   363A      4.808998  
     364A      4.814504   365A      4.826117   366A      4.839979  
     367A      4.853751   368A      4.856035   369A      4.875889  
     370A      4.877338   371A      4.890850   372A      4.896052  
     373A      4.908679   374A      4.918580   375A      4.928009  
     376A      4.936270   377A      4.950889   378A      4.966164  
     379A      4.979721   380A      4.999918   381A      5.005340  
     382A      5.025295   383A      5.030846   384A      5.051455  
     385A      5.063847   386A      5.074553   387A      5.091091  
     388A      5.134053   389A      5.135958   390A      5.179698  
     391A      5.193900   392A      5.209127   393A      5.218833  
     394A      5.233082   395A      5.245810   396A      5.296220  
     397A      5.303236   398A      5.325948   399A      5.334522  
     400A      5.354080   401A      5.388041   402A      5.393330  
     403A      5.464347   404A      5.469478   405A      5.487396  
     406A      5.547820   407A      5.583668   408A      5.603282  
     409A      5.634615   410A      5.673890   411A      5.682540  
     412A      5.691581   413A      5.722466   414A      5.758808  
     415A      5.778507   416A      5.783904   417A      5.834740  
     418A      5.873483   419A      5.894864   420A      5.931697  
     421A      5.972035   422A      5.997299   423A      6.048610  
     424A      6.092550   425A      6.103974   426A      6.131196  
     427A      6.196800   428A      6.268512   429A      6.304360  
     430A      6.335944   431A      6.368220   432A      6.378495  
     433A      6.415465   434A      6.423502   435A      6.447137  
     436A      6.457981   437A      6.479953   438A      6.486172  
     439A      6.514721   440A      6.532432   441A      6.565830  
     442A      6.584647   443A      6.607373   444A      6.685519  
     445A      6.700883   446A      6.805066   447A      6.862948  
     448A      6.947991   449A      6.985634   450A      7.108661  
     451A      7.297651   452A      7.335110   453A      7.435307  
     454A      7.458322   455A      7.511538   456A      7.543402  
     457A      7.629044   458A      7.675098   459A      7.740033  
     460A      7.806028   461A      7.826960   462A      7.872795  
     463A      7.917195   464A      7.979643   465A      8.053797  
     466A      8.269730   467A      8.417201   468A      8.460344  
     469A      8.826145   470A      9.112163   471A      9.120131  
     472A      9.164299   473A      9.462019   474A      9.623537  
     475A      9.842037   476A      9.914331   477A      9.944946  
     478A     10.019433   479A     10.133129   480A     10.525722  
     481A     10.940026   482A     11.463804   483A     11.630760  
     484A     11.664109   485A     12.030570   486A     12.394272  
     487A     13.842142   488A     14.642451   489A     15.320097  
     490A     42.874101   491A     44.844126   492A     45.675730  
     493A     55.341160   494A     61.004462  

    Final Occupation by Irrep:
              A 
    DOCC [    12 ]

  @DF-RHF Final Energy:  -117.11677759795255

   => Energetics <=

    Nuclear Repulsion Energy =             70.8446943561275901
    One-Electron Energy =                -296.7350449543847617
    Two-Electron Energy =                 108.7735730003046086
    Total Energy =                       -117.1167775979525487

Computation Completed


Properties will be evaluated at   0.000000,   0.000000,   0.000000 [a0]

Properties computed using the SCF density matrix

  Nuclear Dipole Moment: [e a0]
     X:  -128.8950      Y:    -9.7333      Z:     0.5915

  Electronic Dipole Moment: [e a0]
     X:   128.9496      Y:     9.5734      Z:    -0.5611

  Dipole Moment: [e a0]
     X:     0.0545      Y:    -0.1599      Z:     0.0304     Total:     0.1717

  Dipole Moment: [D]
     X:     0.1386      Y:    -0.4066      Z:     0.0774     Total:     0.4364


*** tstop() called on r282 at Sat Sep 11 02:33:39 2021
Module time:
	user time   =      33.76 seconds =       0.56 minutes
	system time =       0.57 seconds =       0.01 minutes
	total time  =         35 seconds =       0.58 minutes
Total time:
	user time   =     137.07 seconds =       2.28 minutes
	system time =       2.60 seconds =       0.04 minutes
	total time  =        140 seconds =       2.33 minutes
  Constructing Basis Sets for SAPT...

   => Loading Basis Set <=

    Name: (JUN-CC-PVTZ AUX)
    Role: RIFIT
    Keyword: DF_BASIS_SAPT
    atoms 1-2, 7, 13-15    entry C          line   132 file /home/r08543048/miniconda3/share/psi4/basis/jun-cc-pvtz-ri.gbs 
    atoms 3                entry O          line   244 file /home/r08543048/miniconda3/share/psi4/basis/jun-cc-pvtz-ri.gbs 
    atoms 4                entry N          line   188 file /home/r08543048/miniconda3/share/psi4/basis/jun-cc-pvtz-ri.gbs 
    atoms 5-6, 8-12, 16-21 entry H          line    30 file /home/r08543048/miniconda3/share/psi4/basis/jun-cc-pvtz-ri.gbs 


  //>>>>>>>>>>>>>>>>>>>>>>>>>>>>>>>>>>>//
  //               SAPT0               //
  //<<<<<<<<<<<<<<<<<<<<<<<<<<<<<<<<<<<//


*** tstart() called on r282
*** at Sat Sep 11 02:33:39 2021

        SAPT0  
    Ed Hohenstein
     6 June 2009

      Orbital Information
  --------------------------
    NSO        =       494
    NMO        =       494
    NRI        =      1166
    NOCC A     =        20
    NOCC B     =        12
    FOCC A     =         0
    FOCC B     =         0
    NVIR A     =       474
    NVIR B     =       482

    Elst10,r            =    -0.009364575005 [Eh]
    Exch10              =     0.011302823444 [Eh]
    Exch10 (S^2)        =     0.011243607431 [Eh]

    Iter     Energy [mEh]          dE [mEh]         Residual      Time [s]
       1      -0.78527453       0.785274531       4.290416913             1
       2      -0.96588836       0.180613834       1.807191795             2
       3      -0.98126867       0.015380308       0.632178557             3
       4      -0.97556484      -0.005703835       0.265044780             4
       5      -0.97440616      -0.001158676       0.098918320             5
       6      -0.97496235       0.000556187       0.039029790             6
       7      -0.97515453       0.000192177       0.008841607             7
       8      -0.97508719      -0.000067336       0.002145776             8
       9      -0.97508459      -0.000002597       0.000545025             9
      10      -0.97508759       0.000002999       0.000164793            10
      11      -0.97508764       0.000000051       0.000057984            11
      12      -0.97508737      -0.000000274       0.000022933            12
      13      -0.97508742       0.000000048       0.000008091            13
      14      -0.97508744       0.000000020       0.000001911            14
      15      -0.97508743      -0.000000007       0.000000534            15

    CHF Iterations converged


    Iter     Energy [mEh]          dE [mEh]         Residual      Time [s]
       1      -3.49914813       3.499148129      11.055405653             1
       2      -4.31347981       0.814331684       5.224290518             1
       3      -4.51933715       0.205857337       1.404179256             2
       4      -4.50179035      -0.017546801       0.460406637             3
       5      -4.49146533      -0.010325016       0.126147033             4
       6      -4.49297276       0.001507428       0.054093830             5
       7      -4.49370779       0.000735032       0.013581225             6
       8      -4.49349581      -0.000211978       0.003072499             6
       9      -4.49347887      -0.000016945       0.000742498             7
      10      -4.49348591       0.000007037       0.000219931             8
      11      -4.49348741       0.000001505       0.000051710             9
      12      -4.49348674      -0.000000669       0.000012128            10
      13      -4.49348674       0.000000000       0.000002922            11
      14      -4.49348677       0.000000032       0.000000679            11

    CHF Iterations converged

    Ind20,r (A<-B)      =    -0.000975087431 [Eh]
    Ind20,r (B<-A)      =    -0.004493486774 [Eh]
    Ind20,r             =    -0.005468574205 [Eh]
    Exch-Ind20,r (A<-B) =     0.000746890506 [Eh]
    Exch-Ind20,r (B<-A) =     0.002660362264 [Eh]
    Exch-Ind20,r        =     0.003407252770 [Eh]
    Disp20              =    -0.007797485490 [Eh]
    Disp20 (SS)         =    -0.003898742745 [Eh]
    Disp20 (OS)         =    -0.003898742745 [Eh]
    Exch-Disp20         =     0.001070335075 [Eh]
    Exch-Disp20 (SS)    =     0.000697515015 [Eh]
    Exch-Disp20 (OS)    =     0.000372820061 [Eh]

    SAPT Results 
  --------------------------------------------------------------------------------------------------------
    Electrostatics                 -9.36457500 [mEh]      -5.87635953 [kcal/mol]     -24.58668829 [kJ/mol]
      Elst10,r                     -9.36457500 [mEh]      -5.87635953 [kcal/mol]     -24.58668829 [kJ/mol]

    Exchange                       11.30282344 [mEh]       7.09262879 [kcal/mol]      29.67555886 [kJ/mol]
      Exch10                       11.30282344 [mEh]       7.09262879 [kcal/mol]      29.67555886 [kJ/mol]
      Exch10(S^2)                  11.24360743 [mEh]       7.05547018 [kcal/mol]      29.52008724 [kJ/mol]

    Induction                      -3.50697824 [mEh]      -2.20066207 [kcal/mol]      -9.20757011 [kJ/mol]
      Ind20,r                      -5.46857421 [mEh]      -3.43158212 [kcal/mol]     -14.35773960 [kJ/mol]
      Exch-Ind20,r                  3.40725277 [mEh]       2.13808339 [kcal/mol]       8.94574092 [kJ/mol]
      delta HF,r (2)               -1.44565681 [mEh]      -0.90716334 [kcal/mol]      -3.79557143 [kJ/mol]

    Dispersion                     -6.72715041 [mEh]      -4.22135062 [kcal/mol]     -17.66213098 [kJ/mol]
      Disp20                       -7.79748549 [mEh]      -4.89299602 [kcal/mol]     -20.47229533 [kJ/mol]
      Exch-Disp20                   1.07033508 [mEh]       0.67164540 [kcal/mol]       2.81016435 [kJ/mol]
      Disp20 (SS)                  -3.89874275 [mEh]      -2.44649801 [kcal/mol]     -10.23614767 [kJ/mol]
      Disp20 (OS)                  -3.89874275 [mEh]      -2.44649801 [kcal/mol]     -10.23614767 [kJ/mol]
      Exch-Disp20 (SS)              0.69751501 [mEh]       0.43769728 [kcal/mol]       1.83132542 [kJ/mol]
      Exch-Disp20 (OS)              0.37282006 [mEh]       0.23394812 [kcal/mol]       0.97883893 [kJ/mol]

  Total HF                         -1.56872981 [mEh]      -0.98439281 [kcal/mol]      -4.11869954 [kJ/mol]
  Total SAPT0                      -8.29588022 [mEh]      -5.20574343 [kcal/mol]     -21.78083052 [kJ/mol]

  Special recipe for scaled SAPT0 (see Manual):
    Electrostatics sSAPT0          -9.36457500 [mEh]      -5.87635953 [kcal/mol]     -24.58668829 [kJ/mol]
    Exchange sSAPT0                11.30282344 [mEh]       7.09262879 [kcal/mol]      29.67555886 [kJ/mol]
    Induction sSAPT0               -3.45285992 [mEh]      -2.16670231 [kcal/mol]      -9.06548246 [kJ/mol]
    Dispersion sSAPT0              -6.71014999 [mEh]      -4.21068269 [kcal/mol]     -17.61749637 [kJ/mol]
  Total sSAPT0                     -8.22476147 [mEh]      -5.16111574 [kcal/mol]     -21.59410826 [kJ/mol]
  --------------------------------------------------------------------------------------------------------

*** tstop() called on r282 at Sat Sep 11 02:35:32 2021
Module time:
	user time   =      94.80 seconds =       1.58 minutes
	system time =      16.65 seconds =       0.28 minutes
	total time  =        113 seconds =       1.88 minutes
Total time:
	user time   =     232.01 seconds =       3.87 minutes
	system time =      19.25 seconds =       0.32 minutes
	total time  =        253 seconds =       4.22 minutes

    Psi4 stopped on: Saturday, 11 September 2021 02:35AM
    Psi4 wall time for execution: 0:04:13.11

*** Psi4 exiting successfully. Buy a developer a beer!
