
    -----------------------------------------------------------------------
          Psi4: An Open-Source Ab Initio Electronic Structure Package
                               Psi4 1.3.2 release

                         Git: Rev {HEAD} ecbda83 


    R. M. Parrish, L. A. Burns, D. G. A. Smith, A. C. Simmonett,
    A. E. DePrince III, E. G. Hohenstein, U. Bozkaya, A. Yu. Sokolov,
    R. Di Remigio, R. M. Richard, J. F. Gonthier, A. M. James,
    H. R. McAlexander, A. Kumar, M. Saitow, X. Wang, B. P. Pritchard,
    P. Verma, H. F. Schaefer III, K. Patkowski, R. A. King, E. F. Valeev,
    F. A. Evangelista, J. M. Turney, T. D. Crawford, and C. D. Sherrill,
    J. Chem. Theory Comput. 13(7) pp 3185--3197 (2017).
    (doi: 10.1021/acs.jctc.7b00174)


                         Additional Contributions by
    P. Kraus, H. Kruse, M. H. Lechner, M. C. Schieber, R. A. Shaw,
    A. Alenaizan, R. Galvelis, Z. L. Glick, S. Lehtola, and J. P. Misiewicz

    -----------------------------------------------------------------------


    Psi4 started on: Thursday, 09 September 2021 11:27AM

    Process ID: 53924
    Host:       r282
    PSIDATADIR: /home/r08543048/miniconda3/share/psi4
    Memory:     500.0 MiB
    Threads:    1
    
  ==> Input File <==

--------------------------------------------------------------------------
# Any line starting with the # character is a comment line
#! Sample  computation

memory 22 gb

molecule Dimer {
 
0 1                               
 C    3.56008100    0.05653800    0.00132900
 C    2.05181600    0.06350500   -0.00017900
 O    1.42945900    1.13226000   -0.00081900
 N    1.43889900   -1.13417100   -0.00047800
 H    3.98409900   -0.94483000   -0.00043900
 H    3.90772900    0.59861200   -0.87553000
 H    3.90587100    0.59455200    0.88145000
 H    0.41627800   -1.18579400   -0.00126600
 H    1.98081500   -1.97792100   -0.00021000














 --
0 1
 C    -3.56005100   -0.05672700    0.00147500
 C    -2.05178100   -0.06349500   -0.00013400
 O    -1.42931100   -1.13218400   -0.00098700
 N    -1.43905900    1.13428300   -0.00076900
 H    -3.98421100    0.94458100    0.00310200
 H    -3.90760500   -0.59573800   -0.87733200
 H    -3.90578500   -0.59791100    0.87964900
 H    -0.41647100    1.18622100   -0.00162600
 H    -1.98116800    1.97791000    0.00043300
















 
 
 
units angstrom

no_reorient
symmetry c1
}

set globals{
  basis jun-cc-pVTZ
  scf_type DF 
  freeze_core True
}

energy('sapt0')


--------------------------------------------------------------------------

  Memory set to  20.489 GiB by Python driver.

  //>>>>>>>>>>>>>>>>>>>>>>>>>>>>>>>>>>>//
  //              Dimer HF             //
  //<<<<<<<<<<<<<<<<<<<<<<<<<<<<<<<<<<<//


*** tstart() called on r282
*** at Thu Sep  9 11:27:41 2021

   => Loading Basis Set <=

    Name: JUN-CC-PVTZ
    Role: ORBITAL
    Keyword: BASIS
    atoms 1-2, 10-11 entry C          line   217 file /home/r08543048/miniconda3/share/psi4/basis/jun-cc-pvtz.gbs 
    atoms 3, 12      entry O          line   305 file /home/r08543048/miniconda3/share/psi4/basis/jun-cc-pvtz.gbs 
    atoms 4, 13      entry N          line   261 file /home/r08543048/miniconda3/share/psi4/basis/jun-cc-pvtz.gbs 
    atoms 5-9, 14-18 entry H          line    36 file /home/r08543048/miniconda3/share/psi4/basis/jun-cc-pvtz.gbs 


         ---------------------------------------------------------
                                   SCF
               by Justin Turney, Rob Parrish, Andy Simmonett
                          and Daniel G. A. Smith
                              RHF Reference
                        1 Threads,  20980 MiB Core
         ---------------------------------------------------------

  ==> Geometry <==

    Molecular point group: c1
    Full point group: C1

    Geometry (in Angstrom), charge = 0, multiplicity = 1:

       Center              X                  Y                   Z               Mass       
    ------------   -----------------  -----------------  -----------------  -----------------
         C            3.560077144375     0.056535328211     0.001398119582    12.000000000000
         C            2.051812144375     0.063502328211    -0.000109880418    12.000000000000
         O            1.429455144375     1.132257328211    -0.000749880418    15.994914619570
         N            1.438895144375    -1.134173671789    -0.000408880418    14.003074004430
         H            3.984095144375    -0.944832671789    -0.000369880418     1.007825032230
         H            3.907725144375     0.598609328211    -0.875460880418     1.007825032230
         H            3.905867144375     0.594549328211     0.881519119582     1.007825032230
         H            0.416274144375    -1.185796671789    -0.001196880418     1.007825032230
         H            1.980811144375    -1.977923671789    -0.000140880418     1.007825032230
         C           -3.560054855625    -0.056729671789     0.001544119582    12.000000000000
         C           -2.051784855625    -0.063497671789    -0.000064880418    12.000000000000
         O           -1.429314855625    -1.132186671789    -0.000917880418    15.994914619570
         N           -1.439062855625     1.134280328211    -0.000699880418    14.003074004430
         H           -3.984214855625     0.944578328211     0.003171119582     1.007825032230
         H           -3.907608855625    -0.595740671789    -0.877262880418     1.007825032230
         H           -3.905788855625    -0.597913671789     0.879718119582     1.007825032230
         H           -0.416474855625     1.186218328211    -0.001556880418     1.007825032230
         H           -1.981171855625     1.977907328211     0.000502119582     1.007825032230

  Running in c1 symmetry.

  Rotational constants: A =      0.17898  B =      0.02661  C =      0.02336 [cm^-1]
  Rotational constants: A =   5365.62409  B =    797.69425  C =    700.44090 [MHz]
  Nuclear repulsion =  373.258482462181632

  Charge       = 0
  Multiplicity = 1
  Electrons    = 64
  Nalpha       = 32
  Nbeta        = 32

  ==> Algorithm <==

  SCF Algorithm Type is DF.
  DIIS enabled.
  MOM disabled.
  Fractional occupation disabled.
  Guess Type is SAD.
  Energy threshold   = 1.00e-08
  Density threshold  = 1.00e-08
  Integral threshold = 0.00e+00

  ==> Primary Basis <==

  Basis Set: JUN-CC-PVTZ
    Blend: JUN-CC-PVTZ
    Number of shells: 164
    Number of basis function: 452
    Number of Cartesian functions: 510
    Spherical Harmonics?: true
    Max angular momentum: 3

   => Loading Basis Set <=

    Name: (JUN-CC-PVTZ AUX)
    Role: JKFIT
    Keyword: DF_BASIS_SCF
    atoms 1-2, 10-11 entry C          line   152 file /home/r08543048/miniconda3/share/psi4/basis/jun-cc-pvtz-jkfit.gbs 
    atoms 3, 12      entry O          line   272 file /home/r08543048/miniconda3/share/psi4/basis/jun-cc-pvtz-jkfit.gbs 
    atoms 4, 13      entry N          line   212 file /home/r08543048/miniconda3/share/psi4/basis/jun-cc-pvtz-jkfit.gbs 
    atoms 5-9, 14-18 entry H          line    70 file /home/r08543048/miniconda3/share/psi4/basis/jun-cc-pvtz-jkfit.gbs 

  ==> Pre-Iterations <==

   -------------------------------------------------------
    Irrep   Nso     Nmo     Nalpha   Nbeta   Ndocc  Nsocc
   -------------------------------------------------------
     A        452     452       0       0       0       0
   -------------------------------------------------------
    Total     452     452      32      32      32       0
   -------------------------------------------------------

  ==> Integral Setup <==

  ==> DiskDFJK: Density-Fitted J/K Matrices <==

    J tasked:                  Yes
    K tasked:                  Yes
    wK tasked:                  No
    OpenMP threads:              1
    Integrals threads:           1
    Memory [MiB]:            15735
    Algorithm:                Core
    Integral Cache:           SAVE
    Schwarz Cutoff:          1E-12
    Fitting Condition:       1E-10

   => Auxiliary Basis Set <=

  Basis Set: (JUN-CC-PVTZ AUX)
    Blend: JUN-CC-PVTZ-JKFIT
    Number of shells: 332
    Number of basis function: 1060
    Number of Cartesian functions: 1278
    Spherical Harmonics?: true
    Max angular momentum: 4

  Minimum eigenvalue in the overlap matrix is 4.7916729276E-05.
  Using Symmetric Orthogonalization.

  SCF Guess: Superposition of Atomic Densities via on-the-fly atomic UHF.

  ==> Iterations <==

                           Total Energy        Delta E     RMS |[F,P]|

   @DF-RHF iter SAD:  -414.70650188075581   -4.14707e+02   0.00000e+00 
   @DF-RHF iter   1:  -415.82577884848718   -1.11928e+00   1.81116e-03 DIIS
   @DF-RHF iter   2:  -416.06874158572418   -2.42963e-01   9.92831e-04 DIIS
   @DF-RHF iter   3:  -416.13541677426605   -6.66752e-02   1.93737e-04 DIIS
   @DF-RHF iter   4:  -416.13966311120612   -4.24634e-03   7.97648e-05 DIIS
   @DF-RHF iter   5:  -416.14049041139816   -8.27300e-04   1.47196e-05 DIIS
   @DF-RHF iter   6:  -416.14053756310119   -4.71517e-05   6.86752e-06 DIIS
   @DF-RHF iter   7:  -416.14054624885233   -8.68575e-06   2.31261e-06 DIIS
   @DF-RHF iter   8:  -416.14054807005527   -1.82120e-06   8.22821e-07 DIIS
   @DF-RHF iter   9:  -416.14054832813326   -2.58078e-07   2.21823e-07 DIIS
   @DF-RHF iter  10:  -416.14054834334337   -1.52101e-08   7.45844e-08 DIIS
   @DF-RHF iter  11:  -416.14054834470079   -1.35742e-09   2.01297e-08 DIIS
   @DF-RHF iter  12:  -416.14054834479015   -8.93579e-11   4.67211e-09 DIIS
  Energy and wave function converged.


  ==> Post-Iterations <==

    Orbital Energies [Eh]
    ---------------------

    Doubly Occupied:                                                      

       1A    -20.513372     2A    -20.513353     3A    -15.568957  
       4A    -15.568931     5A    -11.351425     6A    -11.351404  
       7A    -11.234099     8A    -11.234087     9A     -1.374119  
      10A     -1.369286    11A     -1.206289    12A     -1.199610  
      13A     -1.004413    14A     -0.999346    15A     -0.800045  
      16A     -0.785076    17A     -0.721404    18A     -0.718347  
      19A     -0.674156    20A     -0.647042    21A     -0.613383  
      22A     -0.610969    23A     -0.586441    24A     -0.573525  
      25A     -0.560450    26A     -0.554164    27A     -0.522857  
      28A     -0.516799    29A     -0.436798    30A     -0.415535  
      31A     -0.411506    32A     -0.401004  

    Virtual:                                                              

      33A      0.044036    34A      0.046407    35A      0.069506  
      36A      0.072069    37A      0.078089    38A      0.082435  
      39A      0.083392    40A      0.098982    41A      0.102260  
      42A      0.111898    43A      0.125707    44A      0.139288  
      45A      0.143549    46A      0.143889    47A      0.145289  
      48A      0.156985    49A      0.165635    50A      0.173012  
      51A      0.190833    52A      0.195869    53A      0.196496  
      54A      0.197253    55A      0.198431    56A      0.209326  
      57A      0.241376    58A      0.242945    59A      0.252302  
      60A      0.260468    61A      0.266938    62A      0.274545  
      63A      0.275241    64A      0.287654    65A      0.287893  
      66A      0.291129    67A      0.303404    68A      0.304975  
      69A      0.324409    70A      0.325011    71A      0.327296  
      72A      0.331426    73A      0.334757    74A      0.338920  
      75A      0.351286    76A      0.353466    77A      0.358967  
      78A      0.368718    79A      0.392348    80A      0.394486  
      81A      0.395955    82A      0.412359    83A      0.422447  
      84A      0.425274    85A      0.450051    86A      0.460404  
      87A      0.470269    88A      0.479210    89A      0.489119  
      90A      0.503455    91A      0.509073    92A      0.517297  
      93A      0.529154    94A      0.537211    95A      0.541778  
      96A      0.542464    97A      0.549950    98A      0.552968  
      99A      0.594249   100A      0.606056   101A      0.617268  
     102A      0.617995   103A      0.624717   104A      0.625608  
     105A      0.628738   106A      0.636265   107A      0.639550  
     108A      0.655149   109A      0.661579   110A      0.662705  
     111A      0.671310   112A      0.683174   113A      0.704628  
     114A      0.710293   115A      0.712494   116A      0.727960  
     117A      0.728375   118A      0.746064   119A      0.757656  
     120A      0.758689   121A      0.781550   122A      0.795835  
     123A      0.803075   124A      0.818743   125A      0.827384  
     126A      0.852780   127A      0.855413   128A      0.855914  
     129A      0.880726   130A      0.885120   131A      0.900601  
     132A      0.903691   133A      0.912120   134A      0.913339  
     135A      0.920780   136A      0.942659   137A      0.951441  
     138A      0.964738   139A      0.975100   140A      0.983377  
     141A      1.014458   142A      1.028823   143A      1.028933  
     144A      1.055615   145A      1.068963   146A      1.077256  
     147A      1.090524   148A      1.111966   149A      1.115724  
     150A      1.136920   151A      1.139568   152A      1.146932  
     153A      1.167643   154A      1.176498   155A      1.179966  
     156A      1.190720   157A      1.212097   158A      1.218247  
     159A      1.255475   160A      1.262547   161A      1.269349  
     162A      1.271430   163A      1.287636   164A      1.296836  
     165A      1.304026   166A      1.319089   167A      1.344251  
     168A      1.351148   169A      1.356946   170A      1.370542  
     171A      1.372924   172A      1.379000   173A      1.392650  
     174A      1.414212   175A      1.417093   176A      1.422675  
     177A      1.440036   178A      1.445260   179A      1.448077  
     180A      1.457712   181A      1.471976   182A      1.490700  
     183A      1.503086   184A      1.521632   185A      1.536519  
     186A      1.540879   187A      1.543080   188A      1.554172  
     189A      1.581332   190A      1.582084   191A      1.623857  
     192A      1.640494   193A      1.646320   194A      1.655782  
     195A      1.663730   196A      1.665788   197A      1.667394  
     198A      1.690018   199A      1.705160   200A      1.741834  
     201A      1.766900   202A      1.801045   203A      1.827402  
     204A      1.861573   205A      1.878342   206A      1.891516  
     207A      1.892580   208A      1.893576   209A      1.899799  
     210A      1.941099   211A      1.955192   212A      2.002751  
     213A      2.010877   214A      2.046388   215A      2.110248  
     216A      2.171882   217A      2.225206   218A      2.242586  
     219A      2.304151   220A      2.321678   221A      2.325484  
     222A      2.367813   223A      2.381480   224A      2.408273  
     225A      2.443374   226A      2.463126   227A      2.465369  
     228A      2.466419   229A      2.620713   230A      2.624320  
     231A      2.625264   232A      2.691341   233A      2.734717  
     234A      2.740733   235A      2.786213   236A      2.798191  
     237A      2.820538   238A      2.829747   239A      2.837503  
     240A      2.859546   241A      2.939309   242A      2.976356  
     243A      2.989907   244A      2.991103   245A      3.003266  
     246A      3.052697   247A      3.060722   248A      3.093357  
     249A      3.094077   250A      3.095357   251A      3.154569  
     252A      3.185967   253A      3.202632   254A      3.203189  
     255A      3.217771   256A      3.230547   257A      3.256666  
     258A      3.256785   259A      3.263514   260A      3.293949  
     261A      3.330306   262A      3.342710   263A      3.351216  
     264A      3.361456   265A      3.408663   266A      3.410652  
     267A      3.426394   268A      3.442498   269A      3.443018  
     270A      3.462144   271A      3.472041   272A      3.489769  
     273A      3.499348   274A      3.503200   275A      3.508081  
     276A      3.523902   277A      3.540725   278A      3.541189  
     279A      3.566050   280A      3.572343   281A      3.581952  
     282A      3.584033   283A      3.598930   284A      3.620563  
     285A      3.621850   286A      3.635518   287A      3.652650  
     288A      3.658433   289A      3.660432   290A      3.670339  
     291A      3.680116   292A      3.681565   293A      3.730575  
     294A      3.745106   295A      3.777876   296A      3.777886  
     297A      3.804958   298A      3.805281   299A      3.815683  
     300A      3.830705   301A      3.872148   302A      3.876352  
     303A      3.903223   304A      3.909172   305A      3.949559  
     306A      3.988344   307A      3.996054   308A      4.009171  
     309A      4.018378   310A      4.040108   311A      4.058676  
     312A      4.075190   313A      4.118096   314A      4.127648  
     315A      4.143360   316A      4.146573   317A      4.171097  
     318A      4.174586   319A      4.196357   320A      4.197541  
     321A      4.251252   322A      4.265483   323A      4.271967  
     324A      4.297415   325A      4.305550   326A      4.312380  
     327A      4.313327   328A      4.346750   329A      4.368141  
     330A      4.391515   331A      4.396482   332A      4.400141  
     333A      4.414332   334A      4.424387   335A      4.426542  
     336A      4.440605   337A      4.469090   338A      4.481353  
     339A      4.488002   340A      4.509055   341A      4.519730  
     342A      4.524509   343A      4.535854   344A      4.552546  
     345A      4.574913   346A      4.588579   347A      4.596129  
     348A      4.633436   349A      4.635932   350A      4.645540  
     351A      4.691818   352A      4.712431   353A      4.746473  
     354A      4.747306   355A      4.761237   356A      4.775583  
     357A      4.785535   358A      4.791904   359A      4.839692  
     360A      4.852202   361A      4.922820   362A      4.928547  
     363A      4.957455   364A      4.992085   365A      5.133719  
     366A      5.134782   367A      5.135521   368A      5.198069  
     369A      5.222825   370A      5.224761   371A      5.226474  
     372A      5.230755   373A      5.253380   374A      5.255875  
     375A      5.276388   376A      5.289385   377A      5.317202  
     378A      5.369447   379A      5.429717   380A      5.446910  
     381A      5.449321   382A      5.452783   383A      5.491010  
     384A      5.493369   385A      5.542151   386A      5.544770  
     387A      5.586126   388A      5.589938   389A      5.622620  
     390A      5.635132   391A      5.680375   392A      5.684516  
     393A      5.687944   394A      5.688709   395A      5.715633  
     396A      5.740872   397A      5.768893   398A      5.775409  
     399A      5.777858   400A      5.795060   401A      5.867228  
     402A      5.927987   403A      5.932973   404A      5.968483  
     405A      6.002379   406A      6.005960   407A      6.032445  
     408A      6.067138   409A      6.102567   410A      6.104338  
     411A      6.201706   412A      6.213670   413A      6.238052  
     414A      6.245483   415A      6.306892   416A      6.360766  
     417A      6.426035   418A      6.435597   419A      6.455965  
     420A      6.459212   421A      6.596746   422A      6.602001  
     423A      6.712342   424A      6.729448   425A      6.768177  
     426A      6.772376   427A      6.816045   428A      6.918650  
     429A      7.234928   430A      7.250517   431A      7.273093  
     432A      7.274729   433A      7.350823   434A      7.378127  
     435A      7.406929   436A      7.468536   437A      7.470974  
     438A      7.474197   439A      7.528657   440A      7.574904  
     441A      7.773626   442A      7.782464   443A      7.888155  
     444A      7.926367   445A     12.134313   446A     12.344375  
     447A     13.857370   448A     13.896699   449A     14.812950  
     450A     14.849417   451A     15.938343   452A     15.946689  

    Final Occupation by Irrep:
              A 
    DOCC [    32 ]

  @DF-RHF Final Energy:  -416.14054834479015

   => Energetics <=

    Nuclear Repulsion Energy =            373.2584824621816324
    One-Electron Energy =               -1308.7216791181149347
    Two-Electron Energy =                 519.3226483111432117
    Total Energy =                       -416.1405483447900906

Computation Completed


Properties will be evaluated at   0.000000,   0.000000,   0.000000 [a0]

Properties computed using the SCF density matrix

  Nuclear Dipole Moment: [e a0]
     X:    -0.0005      Y:    -0.0003      Z:     0.0084

  Electronic Dipole Moment: [e a0]
     X:     0.0000      Y:     0.0003      Z:    -0.0063

  Dipole Moment: [e a0]
     X:    -0.0005      Y:    -0.0000      Z:     0.0021     Total:     0.0021

  Dipole Moment: [D]
     X:    -0.0011      Y:    -0.0001      Z:     0.0053     Total:     0.0054


*** tstop() called on r282 at Thu Sep  9 11:28:24 2021
Module time:
	user time   =      42.45 seconds =       0.71 minutes
	system time =       1.04 seconds =       0.02 minutes
	total time  =         43 seconds =       0.72 minutes
Total time:
	user time   =      42.45 seconds =       0.71 minutes
	system time =       1.04 seconds =       0.02 minutes
	total time  =         43 seconds =       0.72 minutes

  //>>>>>>>>>>>>>>>>>>>>>>>>>>>>>>>>>>>//
  //            Monomer A HF           //
  //<<<<<<<<<<<<<<<<<<<<<<<<<<<<<<<<<<<//


*** tstart() called on r282
*** at Thu Sep  9 11:28:24 2021

   => Loading Basis Set <=

    Name: JUN-CC-PVTZ
    Role: ORBITAL
    Keyword: BASIS
    atoms 1-2, 10-11 entry C          line   217 file /home/r08543048/miniconda3/share/psi4/basis/jun-cc-pvtz.gbs 
    atoms 3, 12      entry O          line   305 file /home/r08543048/miniconda3/share/psi4/basis/jun-cc-pvtz.gbs 
    atoms 4, 13      entry N          line   261 file /home/r08543048/miniconda3/share/psi4/basis/jun-cc-pvtz.gbs 
    atoms 5-9, 14-18 entry H          line    36 file /home/r08543048/miniconda3/share/psi4/basis/jun-cc-pvtz.gbs 


         ---------------------------------------------------------
                                   SCF
               by Justin Turney, Rob Parrish, Andy Simmonett
                          and Daniel G. A. Smith
                              RHF Reference
                        1 Threads,  20980 MiB Core
         ---------------------------------------------------------

  ==> Geometry <==

    Molecular point group: c1
    Full point group: C1

    Geometry (in Angstrom), charge = 0, multiplicity = 1:

       Center              X                  Y                   Z               Mass       
    ------------   -----------------  -----------------  -----------------  -----------------
         C            3.560077144375     0.056535328211     0.001398119582    12.000000000000
         C            2.051812144375     0.063502328211    -0.000109880418    12.000000000000
         O            1.429455144375     1.132257328211    -0.000749880418    15.994914619570
         N            1.438895144375    -1.134173671789    -0.000408880418    14.003074004430
         H            3.984095144375    -0.944832671789    -0.000369880418     1.007825032230
         H            3.907725144375     0.598609328211    -0.875460880418     1.007825032230
         H            3.905867144375     0.594549328211     0.881519119582     1.007825032230
         H            0.416274144375    -1.185796671789    -0.001196880418     1.007825032230
         H            1.980811144375    -1.977923671789    -0.000140880418     1.007825032230
      Gh(C)          -3.560054855625    -0.056729671789     0.001544119582    12.000000000000
      Gh(C)          -2.051784855625    -0.063497671789    -0.000064880418    12.000000000000
      Gh(O)          -1.429314855625    -1.132186671789    -0.000917880418    15.994914619570
      Gh(N)          -1.439062855625     1.134280328211    -0.000699880418    14.003074004430
      Gh(H)          -3.984214855625     0.944578328211     0.003171119582     1.007825032230
      Gh(H)          -3.907608855625    -0.595740671789    -0.877262880418     1.007825032230
      Gh(H)          -3.905788855625    -0.597913671789     0.879718119582     1.007825032230
      Gh(H)          -0.416474855625     1.186218328211    -0.001556880418     1.007825032230
      Gh(H)          -1.981171855625     1.977907328211     0.000502119582     1.007825032230

  Running in c1 symmetry.

  Rotational constants: A =      0.17898  B =      0.02661  C =      0.02336 [cm^-1]
  Rotational constants: A =   5365.62409  B =    797.69425  C =    700.44090 [MHz]
  Nuclear repulsion =  121.760141697688837

  Charge       = 0
  Multiplicity = 1
  Electrons    = 32
  Nalpha       = 16
  Nbeta        = 16

  ==> Algorithm <==

  SCF Algorithm Type is DF.
  DIIS enabled.
  MOM disabled.
  Fractional occupation disabled.
  Guess Type is SAD.
  Energy threshold   = 1.00e-08
  Density threshold  = 1.00e-08
  Integral threshold = 0.00e+00

  ==> Primary Basis <==

  Basis Set: JUN-CC-PVTZ
    Blend: JUN-CC-PVTZ
    Number of shells: 164
    Number of basis function: 452
    Number of Cartesian functions: 510
    Spherical Harmonics?: true
    Max angular momentum: 3

   => Loading Basis Set <=

    Name: (JUN-CC-PVTZ AUX)
    Role: JKFIT
    Keyword: DF_BASIS_SCF
    atoms 1-2, 10-11 entry C          line   152 file /home/r08543048/miniconda3/share/psi4/basis/jun-cc-pvtz-jkfit.gbs 
    atoms 3, 12      entry O          line   272 file /home/r08543048/miniconda3/share/psi4/basis/jun-cc-pvtz-jkfit.gbs 
    atoms 4, 13      entry N          line   212 file /home/r08543048/miniconda3/share/psi4/basis/jun-cc-pvtz-jkfit.gbs 
    atoms 5-9, 14-18 entry H          line    70 file /home/r08543048/miniconda3/share/psi4/basis/jun-cc-pvtz-jkfit.gbs 

  ==> Pre-Iterations <==

   -------------------------------------------------------
    Irrep   Nso     Nmo     Nalpha   Nbeta   Ndocc  Nsocc
   -------------------------------------------------------
     A        452     452       0       0       0       0
   -------------------------------------------------------
    Total     452     452      16      16      16       0
   -------------------------------------------------------

  ==> Integral Setup <==

  ==> DiskDFJK: Density-Fitted J/K Matrices <==

    J tasked:                  Yes
    K tasked:                  Yes
    wK tasked:                  No
    OpenMP threads:              1
    Integrals threads:           1
    Memory [MiB]:            15735
    Algorithm:                Core
    Integral Cache:           LOAD
    Schwarz Cutoff:          1E-12
    Fitting Condition:       1E-10

   => Auxiliary Basis Set <=

  Basis Set: (JUN-CC-PVTZ AUX)
    Blend: JUN-CC-PVTZ-JKFIT
    Number of shells: 332
    Number of basis function: 1060
    Number of Cartesian functions: 1278
    Spherical Harmonics?: true
    Max angular momentum: 4

  Minimum eigenvalue in the overlap matrix is 4.7916729276E-05.
  Using Symmetric Orthogonalization.

  SCF Guess: Superposition of Atomic Densities via on-the-fly atomic UHF.

  ==> Iterations <==

                           Total Energy        Delta E     RMS |[F,P]|

   @DF-RHF iter SAD:  -207.24135348059997   -2.07241e+02   0.00000e+00 
   @DF-RHF iter   1:  -207.88449203898529   -6.43139e-01   1.34184e-03 DIIS
   @DF-RHF iter   2:  -208.01253555244281   -1.28044e-01   8.14312e-04 DIIS
   @DF-RHF iter   3:  -208.05719338404674   -4.46578e-02   1.51207e-04 DIIS
   @DF-RHF iter   4:  -208.05972093027646   -2.52755e-03   6.04133e-05 DIIS
   @DF-RHF iter   5:  -208.06022827985871   -5.07350e-04   1.12335e-05 DIIS
   @DF-RHF iter   6:  -208.06025906297813   -3.07831e-05   5.25780e-06 DIIS
   @DF-RHF iter   7:  -208.06026458595159   -5.52297e-06   1.98525e-06 DIIS
   @DF-RHF iter   8:  -208.06026577444933   -1.18850e-06   6.68961e-07 DIIS
   @DF-RHF iter   9:  -208.06026593223007   -1.57781e-07   1.77470e-07 DIIS
   @DF-RHF iter  10:  -208.06026594079509   -8.56502e-09   5.87731e-08 DIIS
   @DF-RHF iter  11:  -208.06026594162719   -8.32102e-10   1.50083e-08 DIIS
   @DF-RHF iter  12:  -208.06026594167622   -4.90274e-11   3.06558e-09 DIIS
  Energy and wave function converged.


  ==> Post-Iterations <==

    Orbital Energies [Eh]
    ---------------------

    Doubly Occupied:                                                      

       1A    -20.510845     2A    -15.594152     3A    -11.353244  
       4A    -11.238319     5A     -1.366930     6A     -1.218023  
       7A     -1.006362     8A     -0.804641     9A     -0.730381  
      10A     -0.662817    11A     -0.615569    12A     -0.577865  
      13A     -0.564998    14A     -0.524134    15A     -0.421111  
      16A     -0.413300  

    Virtual:                                                              

      17A      0.033617    18A      0.040133    19A      0.055270  
      20A      0.070238    21A      0.071070    22A      0.074108  
      23A      0.079476    24A      0.093837    25A      0.099932  
      26A      0.106978    27A      0.122755    28A      0.131601  
      29A      0.132682    30A      0.136619    31A      0.145873  
      32A      0.149238    33A      0.156525    34A      0.166005  
      35A      0.170837    36A      0.174863    37A      0.182994  
      38A      0.194226    39A      0.199253    40A      0.205626  
      41A      0.217471    42A      0.222960    43A      0.230024  
      44A      0.240460    45A      0.255897    46A      0.267451  
      47A      0.275762    48A      0.280692    49A      0.284622  
      50A      0.289693    51A      0.290946    52A      0.311447  
      53A      0.318086    54A      0.325497    55A      0.333508  
      56A      0.341622    57A      0.346423    58A      0.351832  
      59A      0.361324    60A      0.371376    61A      0.371409  
      62A      0.375894    63A      0.387408    64A      0.393622  
      65A      0.407742    66A      0.415006    67A      0.421169  
      68A      0.427594    69A      0.436624    70A      0.450988  
      71A      0.464473    72A      0.467245    73A      0.478495  
      74A      0.486494    75A      0.493538    76A      0.501725  
      77A      0.505855    78A      0.524002    79A      0.527129  
      80A      0.534634    81A      0.544441    82A      0.581183  
      83A      0.584013    84A      0.584427    85A      0.586280  
      86A      0.611427    87A      0.614737    88A      0.621300  
      89A      0.628906    90A      0.641561    91A      0.648641  
      92A      0.654554    93A      0.673578    94A      0.679900  
      95A      0.698780    96A      0.704945    97A      0.718391  
      98A      0.732843    99A      0.738085   100A      0.740106  
     101A      0.755454   102A      0.775878   103A      0.788833  
     104A      0.798296   105A      0.802823   106A      0.822333  
     107A      0.827498   108A      0.843346   109A      0.846681  
     110A      0.855372   111A      0.857374   112A      0.881262  
     113A      0.897238   114A      0.916748   115A      0.917451  
     116A      0.925608   117A      0.931587   118A      0.963208  
     119A      0.968960   120A      0.982155   121A      0.986088  
     122A      1.002395   123A      1.024670   124A      1.032429  
     125A      1.035715   126A      1.056090   127A      1.059348  
     128A      1.068823   129A      1.084240   130A      1.085323  
     131A      1.109657   132A      1.127375   133A      1.134565  
     134A      1.150243   135A      1.159824   136A      1.184354  
     137A      1.194174   138A      1.213617   139A      1.214551  
     140A      1.218025   141A      1.222310   142A      1.240587  
     143A      1.261169   144A      1.264599   145A      1.279010  
     146A      1.318482   147A      1.320672   148A      1.325954  
     149A      1.339877   150A      1.346372   151A      1.353517  
     152A      1.375562   153A      1.382584   154A      1.407312  
     155A      1.410348   156A      1.420701   157A      1.431018  
     158A      1.438492   159A      1.473083   160A      1.485378  
     161A      1.489590   162A      1.497415   163A      1.512649  
     164A      1.526815   165A      1.527748   166A      1.537032  
     167A      1.547794   168A      1.567254   169A      1.591422  
     170A      1.597157   171A      1.602565   172A      1.615036  
     173A      1.634095   174A      1.649845   175A      1.658359  
     176A      1.671423   177A      1.673919   178A      1.706861  
     179A      1.737551   180A      1.744554   181A      1.757642  
     182A      1.783067   183A      1.788634   184A      1.845643  
     185A      1.855011   186A      1.873739   187A      1.883722  
     188A      1.892081   189A      1.898490   190A      1.900915  
     191A      1.930165   192A      1.950093   193A      1.957464  
     194A      1.997383   195A      2.008497   196A      2.037688  
     197A      2.076735   198A      2.090205   199A      2.090636  
     200A      2.187690   201A      2.219089   202A      2.241964  
     203A      2.292623   204A      2.311541   205A      2.361940  
     206A      2.362810   207A      2.397674   208A      2.401361  
     209A      2.446173   210A      2.466203   211A      2.479875  
     212A      2.510747   213A      2.540376   214A      2.572553  
     215A      2.622568   216A      2.656096   217A      2.685541  
     218A      2.718797   219A      2.748940   220A      2.757307  
     221A      2.787604   222A      2.818707   223A      2.826205  
     224A      2.864318   225A      2.867432   226A      2.888543  
     227A      2.947975   228A      2.979135   229A      2.996079  
     230A      3.010224   231A      3.021846   232A      3.065080  
     233A      3.090214   234A      3.146855   235A      3.170804  
     236A      3.201221   237A      3.229883   238A      3.233992  
     239A      3.256755   240A      3.319218   241A      3.354948  
     242A      3.356791   243A      3.373587   244A      3.410991  
     245A      3.415662   246A      3.440268   247A      3.461616  
     248A      3.478003   249A      3.486297   250A      3.522834  
     251A      3.530029   252A      3.544625   253A      3.558847  
     254A      3.584967   255A      3.589657   256A      3.598745  
     257A      3.608065   258A      3.623389   259A      3.648565  
     260A      3.653142   261A      3.657101   262A      3.663449  
     263A      3.685269   264A      3.732799   265A      3.737192  
     266A      3.773008   267A      3.800539   268A      3.802256  
     269A      3.843514   270A      3.861139   271A      3.875237  
     272A      3.887990   273A      3.888993   274A      3.902494  
     275A      3.929269   276A      3.961660   277A      3.983875  
     278A      3.984126   279A      4.011166   280A      4.028113  
     281A      4.056546   282A      4.075762   283A      4.102196  
     284A      4.119518   285A      4.137319   286A      4.145058  
     287A      4.160681   288A      4.179253   289A      4.239152  
     290A      4.242246   291A      4.272040   292A      4.272714  
     293A      4.298171   294A      4.301903   295A      4.307189  
     296A      4.320511   297A      4.329915   298A      4.339652  
     299A      4.368959   300A      4.389760   301A      4.405467  
     302A      4.406089   303A      4.437303   304A      4.451055  
     305A      4.467227   306A      4.494850   307A      4.506564  
     308A      4.514019   309A      4.516937   310A      4.536600  
     311A      4.554221   312A      4.577018   313A      4.606190  
     314A      4.618527   315A      4.623678   316A      4.649344  
     317A      4.681354   318A      4.697209   319A      4.714419  
     320A      4.735620   321A      4.745339   322A      4.756904  
     323A      4.768401   324A      4.773850   325A      4.776556  
     326A      4.782065   327A      4.786257   328A      4.808016  
     329A      4.821308   330A      4.836028   331A      4.859280  
     332A      4.859774   333A      4.888658   334A      4.913135  
     335A      4.923601   336A      4.940052   337A      4.954080  
     338A      4.955594   339A      5.015359   340A      5.021421  
     341A      5.046434   342A      5.086668   343A      5.112974  
     344A      5.119625   345A      5.130484   346A      5.144329  
     347A      5.180824   348A      5.190636   349A      5.199503  
     350A      5.210583   351A      5.226219   352A      5.238910  
     353A      5.256891   354A      5.308673   355A      5.339059  
     356A      5.428132   357A      5.438348   358A      5.439928  
     359A      5.486798   360A      5.534244   361A      5.586303  
     362A      5.591326   363A      5.638382   364A      5.661696  
     365A      5.679855   366A      5.683213   367A      5.697661  
     368A      5.739851   369A      5.774269   370A      5.841988  
     371A      5.871299   372A      5.899365   373A      5.944019  
     374A      5.958451   375A      5.960652   376A      5.982733  
     377A      6.024024   378A      6.044365   379A      6.066599  
     380A      6.093313   381A      6.152025   382A      6.193077  
     383A      6.224366   384A      6.237331   385A      6.254952  
     386A      6.298571   387A      6.327795   388A      6.354333  
     389A      6.422087   390A      6.438055   391A      6.440099  
     392A      6.464246   393A      6.517536   394A      6.545320  
     395A      6.559031   396A      6.607660   397A      6.658137  
     398A      6.689773   399A      6.707817   400A      6.756396  
     401A      6.775519   402A      6.852055   403A      6.925444  
     404A      6.932059   405A      7.113892   406A      7.240284  
     407A      7.284042   408A      7.332198   409A      7.346166  
     410A      7.366422   411A      7.444500   412A      7.447026  
     413A      7.485995   414A      7.498615   415A      7.521248  
     416A      7.541726   417A      7.546536   418A      7.754936  
     419A      7.790726   420A      7.795380   421A      7.848404  
     422A      7.849248   423A      7.856757   424A      7.921226  
     425A      8.059168   426A      8.261264   427A      8.472535  
     428A      8.863169   429A      9.089919   430A      9.106078  
     431A      9.139706   432A      9.452059   433A      9.797835  
     434A      9.856402   435A      9.882443   436A      9.962647  
     437A     10.199229   438A     10.626750   439A     10.930237  
     440A     11.515951   441A     11.557352   442A     11.665675  
     443A     11.974200   444A     12.256596   445A     13.806736  
     446A     13.885213   447A     14.828190   448A     15.913948  
     449A     42.866756   450A     46.254329   451A     55.925122  
     452A     60.642699  

    Final Occupation by Irrep:
              A 
    DOCC [    16 ]

  @DF-RHF Final Energy:  -208.06026594167622

   => Energetics <=

    Nuclear Repulsion Energy =            121.7601416976888373
    One-Electron Energy =                -524.4354267651744976
    Two-Electron Energy =                 194.6150191258094537
    Total Energy =                       -208.0602659416762208

Computation Completed


Properties will be evaluated at   0.000000,   0.000000,   0.000000 [a0]

Properties computed using the SCF density matrix

  Nuclear Dipole Moment: [e a0]
     X:   131.0979      Y:    -2.0340      Z:     0.0061

  Electronic Dipole Moment: [e a0]
     X:  -130.4590      Y:     0.4083      Z:    -0.0053

  Dipole Moment: [e a0]
     X:     0.6389      Y:    -1.6256      Z:     0.0007     Total:     1.7467

  Dipole Moment: [D]
     X:     1.6239      Y:    -4.1320      Z:     0.0019     Total:     4.4396


*** tstop() called on r282 at Thu Sep  9 11:28:50 2021
Module time:
	user time   =      25.48 seconds =       0.42 minutes
	system time =       0.48 seconds =       0.01 minutes
	total time  =         26 seconds =       0.43 minutes
Total time:
	user time   =      67.93 seconds =       1.13 minutes
	system time =       1.53 seconds =       0.03 minutes
	total time  =         69 seconds =       1.15 minutes

  //>>>>>>>>>>>>>>>>>>>>>>>>>>>>>>>>>>>//
  //            Monomer B HF           //
  //<<<<<<<<<<<<<<<<<<<<<<<<<<<<<<<<<<<//


*** tstart() called on r282
*** at Thu Sep  9 11:28:50 2021

   => Loading Basis Set <=

    Name: JUN-CC-PVTZ
    Role: ORBITAL
    Keyword: BASIS
    atoms 1-2, 10-11 entry C          line   217 file /home/r08543048/miniconda3/share/psi4/basis/jun-cc-pvtz.gbs 
    atoms 3, 12      entry O          line   305 file /home/r08543048/miniconda3/share/psi4/basis/jun-cc-pvtz.gbs 
    atoms 4, 13      entry N          line   261 file /home/r08543048/miniconda3/share/psi4/basis/jun-cc-pvtz.gbs 
    atoms 5-9, 14-18 entry H          line    36 file /home/r08543048/miniconda3/share/psi4/basis/jun-cc-pvtz.gbs 


         ---------------------------------------------------------
                                   SCF
               by Justin Turney, Rob Parrish, Andy Simmonett
                          and Daniel G. A. Smith
                              RHF Reference
                        1 Threads,  20980 MiB Core
         ---------------------------------------------------------

  ==> Geometry <==

    Molecular point group: c1
    Full point group: C1

    Geometry (in Angstrom), charge = 0, multiplicity = 1:

       Center              X                  Y                   Z               Mass       
    ------------   -----------------  -----------------  -----------------  -----------------
      Gh(C)           3.560077144375     0.056535328211     0.001398119582    12.000000000000
      Gh(C)           2.051812144375     0.063502328211    -0.000109880418    12.000000000000
      Gh(O)           1.429455144375     1.132257328211    -0.000749880418    15.994914619570
      Gh(N)           1.438895144375    -1.134173671789    -0.000408880418    14.003074004430
      Gh(H)           3.984095144375    -0.944832671789    -0.000369880418     1.007825032230
      Gh(H)           3.907725144375     0.598609328211    -0.875460880418     1.007825032230
      Gh(H)           3.905867144375     0.594549328211     0.881519119582     1.007825032230
      Gh(H)           0.416274144375    -1.185796671789    -0.001196880418     1.007825032230
      Gh(H)           1.980811144375    -1.977923671789    -0.000140880418     1.007825032230
         C           -3.560054855625    -0.056729671789     0.001544119582    12.000000000000
         C           -2.051784855625    -0.063497671789    -0.000064880418    12.000000000000
         O           -1.429314855625    -1.132186671789    -0.000917880418    15.994914619570
         N           -1.439062855625     1.134280328211    -0.000699880418    14.003074004430
         H           -3.984214855625     0.944578328211     0.003171119582     1.007825032230
         H           -3.907608855625    -0.595740671789    -0.877262880418     1.007825032230
         H           -3.905788855625    -0.597913671789     0.879718119582     1.007825032230
         H           -0.416474855625     1.186218328211    -0.001556880418     1.007825032230
         H           -1.981171855625     1.977907328211     0.000502119582     1.007825032230

  Running in c1 symmetry.

  Rotational constants: A =      0.17898  B =      0.02661  C =      0.02336 [cm^-1]
  Rotational constants: A =   5365.62409  B =    797.69425  C =    700.44090 [MHz]
  Nuclear repulsion =  121.760005979183262

  Charge       = 0
  Multiplicity = 1
  Electrons    = 32
  Nalpha       = 16
  Nbeta        = 16

  ==> Algorithm <==

  SCF Algorithm Type is DF.
  DIIS enabled.
  MOM disabled.
  Fractional occupation disabled.
  Guess Type is SAD.
  Energy threshold   = 1.00e-08
  Density threshold  = 1.00e-08
  Integral threshold = 0.00e+00

  ==> Primary Basis <==

  Basis Set: JUN-CC-PVTZ
    Blend: JUN-CC-PVTZ
    Number of shells: 164
    Number of basis function: 452
    Number of Cartesian functions: 510
    Spherical Harmonics?: true
    Max angular momentum: 3

   => Loading Basis Set <=

    Name: (JUN-CC-PVTZ AUX)
    Role: JKFIT
    Keyword: DF_BASIS_SCF
    atoms 1-2, 10-11 entry C          line   152 file /home/r08543048/miniconda3/share/psi4/basis/jun-cc-pvtz-jkfit.gbs 
    atoms 3, 12      entry O          line   272 file /home/r08543048/miniconda3/share/psi4/basis/jun-cc-pvtz-jkfit.gbs 
    atoms 4, 13      entry N          line   212 file /home/r08543048/miniconda3/share/psi4/basis/jun-cc-pvtz-jkfit.gbs 
    atoms 5-9, 14-18 entry H          line    70 file /home/r08543048/miniconda3/share/psi4/basis/jun-cc-pvtz-jkfit.gbs 

  ==> Pre-Iterations <==

   -------------------------------------------------------
    Irrep   Nso     Nmo     Nalpha   Nbeta   Ndocc  Nsocc
   -------------------------------------------------------
     A        452     452       0       0       0       0
   -------------------------------------------------------
    Total     452     452      16      16      16       0
   -------------------------------------------------------

  ==> Integral Setup <==

  ==> DiskDFJK: Density-Fitted J/K Matrices <==

    J tasked:                  Yes
    K tasked:                  Yes
    wK tasked:                  No
    OpenMP threads:              1
    Integrals threads:           1
    Memory [MiB]:            15735
    Algorithm:                Core
    Integral Cache:           LOAD
    Schwarz Cutoff:          1E-12
    Fitting Condition:       1E-10

   => Auxiliary Basis Set <=

  Basis Set: (JUN-CC-PVTZ AUX)
    Blend: JUN-CC-PVTZ-JKFIT
    Number of shells: 332
    Number of basis function: 1060
    Number of Cartesian functions: 1278
    Spherical Harmonics?: true
    Max angular momentum: 4

  Minimum eigenvalue in the overlap matrix is 4.7916729276E-05.
  Using Symmetric Orthogonalization.

  SCF Guess: Superposition of Atomic Densities via on-the-fly atomic UHF.

  ==> Iterations <==

                           Total Energy        Delta E     RMS |[F,P]|

   @DF-RHF iter SAD:  -207.24135344519183   -2.07241e+02   0.00000e+00 
   @DF-RHF iter   1:  -207.88449119381264   -6.43138e-01   1.34184e-03 DIIS
   @DF-RHF iter   2:  -208.01253517816326   -1.28044e-01   8.14314e-04 DIIS
   @DF-RHF iter   3:  -208.05719318640098   -4.46580e-02   1.51208e-04 DIIS
   @DF-RHF iter   4:  -208.05972074113069   -2.52755e-03   6.04134e-05 DIIS
   @DF-RHF iter   5:  -208.06022809156076   -5.07350e-04   1.12334e-05 DIIS
   @DF-RHF iter   6:  -208.06025887386610   -3.07823e-05   5.25769e-06 DIIS
   @DF-RHF iter   7:  -208.06026439655727   -5.52269e-06   1.98521e-06 DIIS
   @DF-RHF iter   8:  -208.06026558498135   -1.18842e-06   6.68951e-07 DIIS
   @DF-RHF iter   9:  -208.06026574275558   -1.57774e-07   1.77468e-07 DIIS
   @DF-RHF iter  10:  -208.06026575132290   -8.56733e-09   5.87724e-08 DIIS
   @DF-RHF iter  11:  -208.06026575215415   -8.31250e-10   1.50081e-08 DIIS
   @DF-RHF iter  12:  -208.06026575220596   -5.18128e-11   3.06551e-09 DIIS
  Energy and wave function converged.


  ==> Post-Iterations <==

    Orbital Energies [Eh]
    ---------------------

    Doubly Occupied:                                                      

       1A    -20.510847     2A    -15.594154     3A    -11.353246  
       4A    -11.238318     5A     -1.366929     6A     -1.218029  
       7A     -1.006360     8A     -0.804649     9A     -0.730378  
      10A     -0.662821    11A     -0.615569    12A     -0.577866  
      13A     -0.564998    14A     -0.524133    15A     -0.421110  
      16A     -0.413303  

    Virtual:                                                              

      17A      0.033619    18A      0.040133    19A      0.055269  
      20A      0.070240    21A      0.071073    22A      0.074107  
      23A      0.079477    24A      0.093837    25A      0.099932  
      26A      0.106978    27A      0.122757    28A      0.131603  
      29A      0.132677    30A      0.136619    31A      0.145876  
      32A      0.149238    33A      0.156530    34A      0.166007  
      35A      0.170838    36A      0.174866    37A      0.182988  
      38A      0.194225    39A      0.199255    40A      0.205627  
      41A      0.217471    42A      0.222956    43A      0.230032  
      44A      0.240460    45A      0.255901    46A      0.267451  
      47A      0.275762    48A      0.280691    49A      0.284624  
      50A      0.289700    51A      0.290939    52A      0.311451  
      53A      0.318084    54A      0.325501    55A      0.333514  
      56A      0.341613    57A      0.346425    58A      0.351836  
      59A      0.361329    60A      0.371382    61A      0.371418  
      62A      0.375895    63A      0.387413    64A      0.393602  
      65A      0.407747    66A      0.415003    67A      0.421172  
      68A      0.427596    69A      0.436632    70A      0.450973  
      71A      0.464476    72A      0.467257    73A      0.478501  
      74A      0.486493    75A      0.493541    76A      0.501731  
      77A      0.505855    78A      0.524013    79A      0.527123  
      80A      0.534637    81A      0.544437    82A      0.581182  
      83A      0.584006    84A      0.584424    85A      0.586286  
      86A      0.611428    87A      0.614735    88A      0.621305  
      89A      0.628905    90A      0.641568    91A      0.648642  
      92A      0.654561    93A      0.673589    94A      0.679891  
      95A      0.698782    96A      0.704950    97A      0.718395  
      98A      0.732844    99A      0.738079   100A      0.740104  
     101A      0.755458   102A      0.775890   103A      0.788830  
     104A      0.798289   105A      0.802837   106A      0.822333  
     107A      0.827505   108A      0.843346   109A      0.846678  
     110A      0.855372   111A      0.857380   112A      0.881277  
     113A      0.897230   114A      0.916758   115A      0.917434  
     116A      0.925627   117A      0.931587   118A      0.963233  
     119A      0.968971   120A      0.982168   121A      0.986091  
     122A      1.002395   123A      1.024657   124A      1.032433  
     125A      1.035726   126A      1.056095   127A      1.059347  
     128A      1.068812   129A      1.084244   130A      1.085304  
     131A      1.109658   132A      1.127341   133A      1.134563  
     134A      1.150258   135A      1.159848   136A      1.184341  
     137A      1.194171   138A      1.213586   139A      1.214562  
     140A      1.218044   141A      1.222335   142A      1.240592  
     143A      1.261185   144A      1.264594   145A      1.279004  
     146A      1.318466   147A      1.320663   148A      1.325942  
     149A      1.339882   150A      1.346376   151A      1.353515  
     152A      1.375572   153A      1.382592   154A      1.407297  
     155A      1.410348   156A      1.420715   157A      1.431016  
     158A      1.438506   159A      1.473090   160A      1.485381  
     161A      1.489560   162A      1.497427   163A      1.512629  
     164A      1.526828   165A      1.527790   166A      1.537018  
     167A      1.547814   168A      1.567259   169A      1.591391  
     170A      1.597164   171A      1.602589   172A      1.615056  
     173A      1.634109   174A      1.649854   175A      1.658349  
     176A      1.671399   177A      1.673918   178A      1.706907  
     179A      1.737551   180A      1.744551   181A      1.757663  
     182A      1.783047   183A      1.788620   184A      1.845696  
     185A      1.855043   186A      1.873731   187A      1.883704  
     188A      1.892087   189A      1.898473   190A      1.900915  
     191A      1.930151   192A      1.950118   193A      1.957424  
     194A      1.997394   195A      2.008530   196A      2.037671  
     197A      2.076793   198A      2.090224   199A      2.090635  
     200A      2.187745   201A      2.219042   202A      2.242007  
     203A      2.292593   204A      2.311533   205A      2.361958  
     206A      2.362830   207A      2.397608   208A      2.401382  
     209A      2.446171   210A      2.466192   211A      2.479866  
     212A      2.510710   213A      2.540299   214A      2.572556  
     215A      2.622562   216A      2.656098   217A      2.685581  
     218A      2.718824   219A      2.748953   220A      2.757308  
     221A      2.787620   222A      2.818690   223A      2.826198  
     224A      2.864333   225A      2.867458   226A      2.888617  
     227A      2.948001   228A      2.979145   229A      2.996070  
     230A      3.010227   231A      3.021863   232A      3.065086  
     233A      3.090213   234A      3.146984   235A      3.170818  
     236A      3.201227   237A      3.229887   238A      3.233965  
     239A      3.256753   240A      3.319175   241A      3.354996  
     242A      3.356790   243A      3.373615   244A      3.411021  
     245A      3.415671   246A      3.440247   247A      3.461600  
     248A      3.478024   249A      3.486342   250A      3.522846  
     251A      3.530009   252A      3.544623   253A      3.558857  
     254A      3.584978   255A      3.589665   256A      3.598750  
     257A      3.608061   258A      3.623395   259A      3.648584  
     260A      3.653140   261A      3.657111   262A      3.663453  
     263A      3.685274   264A      3.732801   265A      3.737205  
     266A      3.773008   267A      3.800530   268A      3.802245  
     269A      3.843516   270A      3.861159   271A      3.875245  
     272A      3.887996   273A      3.888978   274A      3.902491  
     275A      3.929291   276A      3.961656   277A      3.983901  
     278A      3.984116   279A      4.011171   280A      4.028179  
     281A      4.056559   282A      4.075686   283A      4.102162  
     284A      4.119504   285A      4.137286   286A      4.145059  
     287A      4.160682   288A      4.179261   289A      4.239123  
     290A      4.242255   291A      4.272052   292A      4.272728  
     293A      4.298180   294A      4.301902   295A      4.307194  
     296A      4.320507   297A      4.329930   298A      4.339657  
     299A      4.368948   300A      4.389764   301A      4.405480  
     302A      4.406089   303A      4.437311   304A      4.451053  
     305A      4.467232   306A      4.494748   307A      4.506569  
     308A      4.514008   309A      4.516925   310A      4.536579  
     311A      4.554217   312A      4.577005   313A      4.606155  
     314A      4.618534   315A      4.623681   316A      4.649354  
     317A      4.681354   318A      4.697222   319A      4.714443  
     320A      4.735621   321A      4.745389   322A      4.756922  
     323A      4.768407   324A      4.773841   325A      4.776554  
     326A      4.782117   327A      4.786274   328A      4.808009  
     329A      4.821256   330A      4.836005   331A      4.859347  
     332A      4.859734   333A      4.888660   334A      4.913137  
     335A      4.923619   336A      4.940032   337A      4.954083  
     338A      4.955630   339A      5.015387   340A      5.021482  
     341A      5.046441   342A      5.086651   343A      5.112942  
     344A      5.119637   345A      5.130477   346A      5.144286  
     347A      5.180845   348A      5.190722   349A      5.199523  
     350A      5.210562   351A      5.226192   352A      5.238901  
     353A      5.256881   354A      5.308628   355A      5.339053  
     356A      5.428162   357A      5.438350   358A      5.439911  
     359A      5.486787   360A      5.534213   361A      5.586267  
     362A      5.591344   363A      5.638400   364A      5.661713  
     365A      5.679849   366A      5.683214   367A      5.697706  
     368A      5.739860   369A      5.774278   370A      5.842067  
     371A      5.871283   372A      5.899338   373A      5.944080  
     374A      5.958483   375A      5.960662   376A      5.982742  
     377A      6.024026   378A      6.044340   379A      6.066612  
     380A      6.093332   381A      6.152039   382A      6.193057  
     383A      6.224356   384A      6.237337   385A      6.254946  
     386A      6.298575   387A      6.327903   388A      6.354334  
     389A      6.422089   390A      6.438035   391A      6.440110  
     392A      6.464209   393A      6.517487   394A      6.545251  
     395A      6.559114   396A      6.607701   397A      6.658163  
     398A      6.689811   399A      6.707807   400A      6.756394  
     401A      6.775537   402A      6.852021   403A      6.925423  
     404A      6.932052   405A      7.113859   406A      7.240222  
     407A      7.284065   408A      7.332209   409A      7.346171  
     410A      7.366437   411A      7.444489   412A      7.447030  
     413A      7.486034   414A      7.498745   415A      7.521326  
     416A      7.541733   417A      7.546531   418A      7.754819  
     419A      7.790730   420A      7.795388   421A      7.848464  
     422A      7.849252   423A      7.856851   424A      7.921262  
     425A      8.059178   426A      8.261240   427A      8.472599  
     428A      8.863191   429A      9.089931   430A      9.106121  
     431A      9.139674   432A      9.451999   433A      9.797839  
     434A      9.856402   435A      9.882443   436A      9.962592  
     437A     10.199086   438A     10.626831   439A     10.930280  
     440A     11.515979   441A     11.557360   442A     11.665629  
     443A     11.974252   444A     12.256608   445A     13.806732  
     446A     13.885345   447A     14.828224   448A     15.914022  
     449A     42.866843   450A     46.254291   451A     55.925122  
     452A     60.642321  

    Final Occupation by Irrep:
              A 
    DOCC [    16 ]

  @DF-RHF Final Energy:  -208.06026575220596

   => Energetics <=

    Nuclear Repulsion Energy =            121.7600059791832621
    One-Electron Energy =                -524.4351228977725441
    Two-Electron Energy =                 194.6148511663833460
    Total Energy =                       -208.0602657522059644

Computation Completed


Properties will be evaluated at   0.000000,   0.000000,   0.000000 [a0]

Properties computed using the SCF density matrix

  Nuclear Dipole Moment: [e a0]
     X:  -131.0983      Y:     2.0336      Z:     0.0023

  Electronic Dipole Moment: [e a0]
     X:   130.4593      Y:    -0.4080      Z:    -0.0009

  Dipole Moment: [e a0]
     X:    -0.6391      Y:     1.6256      Z:     0.0013     Total:     1.7467

  Dipole Moment: [D]
     X:    -1.6244      Y:     4.1319      Z:     0.0034     Total:     4.4397


*** tstop() called on r282 at Thu Sep  9 11:29:14 2021
Module time:
	user time   =      23.09 seconds =       0.38 minutes
	system time =       0.50 seconds =       0.01 minutes
	total time  =         24 seconds =       0.40 minutes
Total time:
	user time   =      91.03 seconds =       1.52 minutes
	system time =       2.03 seconds =       0.03 minutes
	total time  =         93 seconds =       1.55 minutes
  Constructing Basis Sets for SAPT...

   => Loading Basis Set <=

    Name: (JUN-CC-PVTZ AUX)
    Role: RIFIT
    Keyword: DF_BASIS_SAPT
    atoms 1-2, 10-11 entry C          line   132 file /home/r08543048/miniconda3/share/psi4/basis/jun-cc-pvtz-ri.gbs 
    atoms 3, 12      entry O          line   244 file /home/r08543048/miniconda3/share/psi4/basis/jun-cc-pvtz-ri.gbs 
    atoms 4, 13      entry N          line   188 file /home/r08543048/miniconda3/share/psi4/basis/jun-cc-pvtz-ri.gbs 
    atoms 5-9, 14-18 entry H          line    30 file /home/r08543048/miniconda3/share/psi4/basis/jun-cc-pvtz-ri.gbs 


  //>>>>>>>>>>>>>>>>>>>>>>>>>>>>>>>>>>>//
  //               SAPT0               //
  //<<<<<<<<<<<<<<<<<<<<<<<<<<<<<<<<<<<//


*** tstart() called on r282
*** at Thu Sep  9 11:29:14 2021

        SAPT0  
    Ed Hohenstein
     6 June 2009

      Orbital Information
  --------------------------
    NSO        =       452
    NMO        =       452
    NRI        =      1076
    NOCC A     =        16
    NOCC B     =        16
    FOCC A     =         4
    FOCC B     =         4
    NVIR A     =       436
    NVIR B     =       436

    Elst10,r            =    -0.041977774361 [Eh]
    Exch10              =     0.038272336188 [Eh]
    Exch10 (S^2)        =     0.037793532770 [Eh]

    Iter     Energy [mEh]          dE [mEh]         Residual      Time [s]
       1      -7.66521378       7.665213780      18.581481655             1
       2      -9.13306783       1.467854055      10.770108063             2
       3      -9.79665641       0.663588572       2.675418542             3
       4      -9.71295297      -0.083703440       1.050191165             3
       5      -9.70506931      -0.007883652       0.343195849             4
       6      -9.71214014       0.007070827       0.136420898             5
       7      -9.71386702       0.001726881       0.027858767             5
       8      -9.71316354      -0.000703478       0.006272631             6
       9      -9.71317291       0.000009370       0.001563346             7
      10      -9.71319578       0.000022861       0.000423126             7
      11      -9.71319673       0.000000957       0.000099328             8
      12      -9.71319481      -0.000001924       0.000023147             9
      13      -9.71319506       0.000000255       0.000006108             9
      14      -9.71319510       0.000000034       0.000001798            10
      15      -9.71319508      -0.000000015       0.000000429            11

    CHF Iterations converged


    Iter     Energy [mEh]          dE [mEh]         Residual      Time [s]
       1      -7.66643955       7.666439548      18.585497097             0
       2      -9.13522672       1.468787175      10.773152572             1
       3      -9.79896273       0.663736010       2.675964369             2
       4      -9.71524234      -0.083720388       1.050321586             3
       5      -9.70736299      -0.007879356       0.343044235             4
       6      -9.71443818       0.007075190       0.136346926             4
       7      -9.71616153       0.001723351       0.027863336             5
       8      -9.71545803      -0.000703500       0.006273754             6
       9      -9.71546741       0.000009384       0.001563129             6
      10      -9.71549028       0.000022864       0.000423019             7
      11      -9.71549123       0.000000952       0.000099343             8
      12      -9.71548930      -0.000001924       0.000023194             8
      13      -9.71548956       0.000000255       0.000006162             9
      14      -9.71548959       0.000000034       0.000001839            10
      15      -9.71548958      -0.000000016       0.000000476            10

    CHF Iterations converged

    Ind20,r (A<-B)      =    -0.009713195083 [Eh]
    Ind20,r (B<-A)      =    -0.009715489579 [Eh]
    Ind20,r             =    -0.019428684661 [Eh]
    Exch-Ind20,r (A<-B) =     0.005018711097 [Eh]
    Exch-Ind20,r (B<-A) =     0.005018812303 [Eh]
    Exch-Ind20,r        =     0.010037523400 [Eh]
    Disp20              =    -0.013677459174 [Eh]
    Disp20 (SS)         =    -0.006838729587 [Eh]
    Disp20 (OS)         =    -0.006838729587 [Eh]
    Exch-Disp20         =     0.002619731153 [Eh]
    Exch-Disp20 (SS)    =     0.001656511893 [Eh]
    Exch-Disp20 (OS)    =     0.000963219260 [Eh]

    SAPT Results 
  --------------------------------------------------------------------------------------------------------
    Electrostatics                -41.97777436 [mEh]     -26.34145110 [kcal/mol]    -110.21263140 [kJ/mol]
      Elst10,r                    -41.97777436 [mEh]     -26.34145110 [kcal/mol]    -110.21263140 [kJ/mol]

    Exchange                       38.27233619 [mEh]      24.01625354 [kcal/mol]     100.48400482 [kJ/mol]
      Exch10                       38.27233619 [mEh]      24.01625354 [kcal/mol]     100.48400482 [kJ/mol]
      Exch10(S^2)                  37.79353277 [mEh]      23.71579986 [kcal/mol]      99.22690662 [kJ/mol]

    Induction                     -16.31121274 [mEh]     -10.23544052 [kcal/mol]     -42.82508314 [kJ/mol]
      Ind20,r                     -19.42868466 [mEh]     -12.19168369 [kcal/mol]     -51.01000455 [kJ/mol]
      Exch-Ind20,r                 10.03752340 [mEh]       6.29864103 [kcal/mol]      26.35351406 [kJ/mol]
      delta HF,r (2)               -6.92005147 [mEh]      -4.34239786 [kcal/mol]     -18.16859264 [kJ/mol]

    Dispersion                    -11.05772802 [mEh]      -6.93882909 [kcal/mol]     -29.03206092 [kJ/mol]
      Disp20                      -13.67745917 [mEh]      -8.58273521 [kcal/mol]     -35.91016411 [kJ/mol]
      Exch-Disp20                   2.61973115 [mEh]       1.64390612 [kcal/mol]       6.87810320 [kJ/mol]
      Disp20 (SS)                  -6.83872959 [mEh]      -4.29136760 [kcal/mol]     -17.95508206 [kJ/mol]
      Disp20 (OS)                  -6.83872959 [mEh]      -4.29136760 [kcal/mol]     -17.95508206 [kJ/mol]
      Exch-Disp20 (SS)              1.65651189 [mEh]       1.03947691 [kcal/mol]       4.34917138 [kJ/mol]
      Exch-Disp20 (OS)              0.96321926 [mEh]       0.60442921 [kcal/mol]       2.52893182 [kJ/mol]

  Total HF                        -20.01665091 [mEh]     -12.56063808 [kcal/mol]     -52.55370972 [kJ/mol]
  Total SAPT0                     -31.07437893 [mEh]     -19.49946717 [kcal/mol]     -81.58577064 [kJ/mol]

  Special recipe for scaled SAPT0 (see Manual):
    Electrostatics sSAPT0         -41.97777436 [mEh]     -26.34145110 [kcal/mol]    -110.21263140 [kJ/mol]
    Exchange sSAPT0                38.27233619 [mEh]      24.01625354 [kcal/mol]     100.48400482 [kJ/mol]
    Induction sSAPT0              -15.92486533 [mEh]      -9.99300386 [kcal/mol]     -41.81072815 [kJ/mol]
    Dispersion sSAPT0             -10.95689375 [mEh]      -6.87555463 [kcal/mol]     -28.76732058 [kJ/mol]
  Total sSAPT0                    -30.58719725 [mEh]     -19.19375605 [kcal/mol]     -80.30667531 [kJ/mol]
  --------------------------------------------------------------------------------------------------------

*** tstop() called on r282 at Thu Sep  9 11:30:34 2021
Module time:
	user time   =      64.52 seconds =       1.08 minutes
	system time =      13.19 seconds =       0.22 minutes
	total time  =         80 seconds =       1.33 minutes
Total time:
	user time   =     155.67 seconds =       2.59 minutes
	system time =      15.22 seconds =       0.25 minutes
	total time  =        173 seconds =       2.88 minutes

    Psi4 stopped on: Thursday, 09 September 2021 11:30AM
    Psi4 wall time for execution: 0:02:53.12

*** Psi4 exiting successfully. Buy a developer a beer!
