
    -----------------------------------------------------------------------
          Psi4: An Open-Source Ab Initio Electronic Structure Package
                               Psi4 1.3.2 release

                         Git: Rev {HEAD} ecbda83 


    R. M. Parrish, L. A. Burns, D. G. A. Smith, A. C. Simmonett,
    A. E. DePrince III, E. G. Hohenstein, U. Bozkaya, A. Yu. Sokolov,
    R. Di Remigio, R. M. Richard, J. F. Gonthier, A. M. James,
    H. R. McAlexander, A. Kumar, M. Saitow, X. Wang, B. P. Pritchard,
    P. Verma, H. F. Schaefer III, K. Patkowski, R. A. King, E. F. Valeev,
    F. A. Evangelista, J. M. Turney, T. D. Crawford, and C. D. Sherrill,
    J. Chem. Theory Comput. 13(7) pp 3185--3197 (2017).
    (doi: 10.1021/acs.jctc.7b00174)


                         Additional Contributions by
    P. Kraus, H. Kruse, M. H. Lechner, M. C. Schieber, R. A. Shaw,
    A. Alenaizan, R. Galvelis, Z. L. Glick, S. Lehtola, and J. P. Misiewicz

    -----------------------------------------------------------------------


    Psi4 started on: Friday, 10 September 2021 06:47PM

    Process ID: 56988
    Host:       r282
    PSIDATADIR: /home/r08543048/miniconda3/share/psi4
    Memory:     500.0 MiB
    Threads:    1
    
  ==> Input File <==

--------------------------------------------------------------------------
# Any line starting with the # character is a comment line
#! Sample  computation

memory 22 gb

molecule Dimer {
0 1
 C -3.041082    0.536715   -0.000014
 C -1.535097    0.369520   -0.000234
 O -0.808024    1.371753   -0.000555
 N -1.043214   -0.881049   -0.000065
 H -0.029765   -1.028592   -0.000166
 H -1.660896   -1.670937    0.000233
 C -3.881044   -0.732584    0.000412
 H -3.690462   -1.339325    0.885959
 H -4.940667   -0.482939    0.000547
 H -3.690778   -1.339711   -0.884937
 H -3.271503    1.152606    0.870217
 H -3.271799    1.152216   -0.870442



    
    
    
 --
0 1
 C  4.035177   -0.296288    0.000502
 C  2.533290   -0.156774    0.000004
 O  1.810468   -1.160543   -0.000397
 N  2.039248    1.094325    0.000061
 H  4.554451    0.659183    0.000145
 H  4.327624   -0.866947    0.879389
 H  4.328133   -0.867925   -0.877571
 H  1.025739    1.244849   -0.000155
 H  2.660664    1.881375    0.000402
 
 
 







units angstrom

no_reorient
symmetry c1
}

set globals{
  basis jun-cc-pvtz
}

energy('sapt0')


--------------------------------------------------------------------------

  Memory set to  20.489 GiB by Python driver.

  //>>>>>>>>>>>>>>>>>>>>>>>>>>>>>>>>>>>//
  //              Dimer HF             //
  //<<<<<<<<<<<<<<<<<<<<<<<<<<<<<<<<<<<//


*** tstart() called on r282
*** at Fri Sep 10 18:47:05 2021

   => Loading Basis Set <=

    Name: JUN-CC-PVTZ
    Role: ORBITAL
    Keyword: BASIS
    atoms 1-2, 7, 13-14    entry C          line   217 file /home/r08543048/miniconda3/share/psi4/basis/jun-cc-pvtz.gbs 
    atoms 3, 15            entry O          line   305 file /home/r08543048/miniconda3/share/psi4/basis/jun-cc-pvtz.gbs 
    atoms 4, 16            entry N          line   261 file /home/r08543048/miniconda3/share/psi4/basis/jun-cc-pvtz.gbs 
    atoms 5-6, 8-12, 17-21 entry H          line    36 file /home/r08543048/miniconda3/share/psi4/basis/jun-cc-pvtz.gbs 


         ---------------------------------------------------------
                                   SCF
               by Justin Turney, Rob Parrish, Andy Simmonett
                          and Daniel G. A. Smith
                              RHF Reference
                        1 Threads,  20980 MiB Core
         ---------------------------------------------------------

  ==> Geometry <==

    Molecular point group: c1
    Full point group: C1

    Geometry (in Angstrom), charge = 0, multiplicity = 1:

       Center              X                  Y                   Z               Mass       
    ------------   -----------------  -----------------  -----------------  -----------------
         C           -3.068552531801     0.525404966967     0.000013207509    12.000000000000
         C           -1.562567531801     0.358209966967    -0.000206792491    12.000000000000
         O           -0.835494531801     1.360442966967    -0.000527792491    15.994914619570
         N           -1.070684531801    -0.892359033033    -0.000037792491    14.003074004430
         H           -0.057235531801    -1.039902033033    -0.000138792491     1.007825032230
         H           -1.688366531801    -1.682247033033     0.000260207509     1.007825032230
         C           -3.908514531801    -0.743894033033     0.000439207509    12.000000000000
         H           -3.717932531801    -1.350635033033     0.885986207509     1.007825032230
         H           -4.968137531801    -0.494249033033     0.000574207509     1.007825032230
         H           -3.718248531801    -1.351021033033    -0.884909792491     1.007825032230
         H           -3.298973531801     1.141295966967     0.870244207509     1.007825032230
         H           -3.299269531801     1.140905966967    -0.870414792491     1.007825032230
         C            4.007706468199    -0.307598033033     0.000529207509    12.000000000000
         C            2.505819468199    -0.168084033033     0.000031207509    12.000000000000
         O            1.782997468199    -1.171853033033    -0.000369792491    15.994914619570
         N            2.011777468199     1.083014966967     0.000088207509    14.003074004430
         H            4.526980468199     0.647872966967     0.000172207509     1.007825032230
         H            4.300153468199    -0.878257033033     0.879416207509     1.007825032230
         H            4.300662468199    -0.879235033033    -0.877543792491     1.007825032230
         H            0.998268468199     1.233538966967    -0.000127792491     1.007825032230
         H            2.633193468199     1.870064966967     0.000429207509     1.007825032230

  Running in c1 symmetry.

  Rotational constants: A =      0.14763  B =      0.01923  C =      0.01717 [cm^-1]
  Rotational constants: A =   4425.79446  B =    576.46039  C =    514.87457 [MHz]
  Nuclear repulsion =  451.113974101588269

  Charge       = 0
  Multiplicity = 1
  Electrons    = 72
  Nalpha       = 36
  Nbeta        = 36

  ==> Algorithm <==

  SCF Algorithm Type is DF.
  DIIS enabled.
  MOM disabled.
  Fractional occupation disabled.
  Guess Type is SAD.
  Energy threshold   = 1.00e-08
  Density threshold  = 1.00e-08
  Integral threshold = 0.00e+00

  ==> Primary Basis <==

  Basis Set: JUN-CC-PVTZ
    Blend: JUN-CC-PVTZ
    Number of shells: 189
    Number of basis function: 519
    Number of Cartesian functions: 585
    Spherical Harmonics?: true
    Max angular momentum: 3

   => Loading Basis Set <=

    Name: (JUN-CC-PVTZ AUX)
    Role: JKFIT
    Keyword: DF_BASIS_SCF
    atoms 1-2, 7, 13-14    entry C          line   152 file /home/r08543048/miniconda3/share/psi4/basis/jun-cc-pvtz-jkfit.gbs 
    atoms 3, 15            entry O          line   272 file /home/r08543048/miniconda3/share/psi4/basis/jun-cc-pvtz-jkfit.gbs 
    atoms 4, 16            entry N          line   212 file /home/r08543048/miniconda3/share/psi4/basis/jun-cc-pvtz-jkfit.gbs 
    atoms 5-6, 8-12, 17-21 entry H          line    70 file /home/r08543048/miniconda3/share/psi4/basis/jun-cc-pvtz-jkfit.gbs 

  ==> Pre-Iterations <==

   -------------------------------------------------------
    Irrep   Nso     Nmo     Nalpha   Nbeta   Ndocc  Nsocc
   -------------------------------------------------------
     A        519     519       0       0       0       0
   -------------------------------------------------------
    Total     519     519      36      36      36       0
   -------------------------------------------------------

  ==> Integral Setup <==

  ==> DiskDFJK: Density-Fitted J/K Matrices <==

    J tasked:                  Yes
    K tasked:                  Yes
    wK tasked:                  No
    OpenMP threads:              1
    Integrals threads:           1
    Memory [MiB]:            15735
    Algorithm:                Core
    Integral Cache:           SAVE
    Schwarz Cutoff:          1E-12
    Fitting Condition:       1E-10

   => Auxiliary Basis Set <=

  Basis Set: (JUN-CC-PVTZ AUX)
    Blend: JUN-CC-PVTZ-JKFIT
    Number of shells: 381
    Number of basis function: 1215
    Number of Cartesian functions: 1464
    Spherical Harmonics?: true
    Max angular momentum: 4

  Minimum eigenvalue in the overlap matrix is 3.4667122503E-05.
  Using Symmetric Orthogonalization.

  SCF Guess: Superposition of Atomic Densities via on-the-fly atomic UHF.

  ==> Iterations <==

                           Total Energy        Delta E     RMS |[F,P]|

   @DF-RHF iter SAD:  -453.80088984385941   -4.53801e+02   0.00000e+00 
   @DF-RHF iter   1:  -454.83413208817524   -1.03324e+00   1.64105e-03 DIIS
   @DF-RHF iter   2:  -455.10968975154714   -2.75558e-01   8.76448e-04 DIIS
   @DF-RHF iter   3:  -455.18061109798714   -7.09213e-02   1.72167e-04 DIIS
   @DF-RHF iter   4:  -455.18524114041497   -4.63004e-03   7.52727e-05 DIIS
   @DF-RHF iter   5:  -455.18615644121695   -9.15301e-04   1.33810e-05 DIIS
   @DF-RHF iter   6:  -455.18620998556150   -5.35443e-05   5.86020e-06 DIIS
   @DF-RHF iter   7:  -455.18621828801861   -8.30246e-06   2.07906e-06 DIIS
   @DF-RHF iter   8:  -455.18622020408702   -1.91607e-06   8.06064e-07 DIIS
   @DF-RHF iter   9:  -455.18622051469083   -3.10604e-07   2.20911e-07 DIIS
   @DF-RHF iter  10:  -455.18622053513968   -2.04489e-08   7.38195e-08 DIIS
   @DF-RHF iter  11:  -455.18622053698431   -1.84463e-09   2.08470e-08 DIIS
   @DF-RHF iter  12:  -455.18622053709413   -1.09821e-10   8.93872e-09 DIIS
  Energy and wave function converged.


  ==> Post-Iterations <==

    Orbital Energies [Eh]
    ---------------------

    Doubly Occupied:                                                      

       1A    -20.512307     2A    -20.509615     3A    -15.567642  
       4A    -15.566387     5A    -11.350368     6A    -11.346980  
       7A    -11.237513     8A    -11.233345     9A    -11.231142  
      10A     -1.372180    11A     -1.366759    12A     -1.205301  
      13A     -1.198496    14A     -1.053711    15A     -1.001003  
      16A     -0.899442    17A     -0.794825    18A     -0.779609  
      19A     -0.725374    20A     -0.717027    21A     -0.671215  
      22A     -0.640230    23A     -0.636198    24A     -0.611322  
      25A     -0.592661    26A     -0.573545    27A     -0.556750  
      28A     -0.555144    29A     -0.551823    30A     -0.519379  
      31A     -0.518941    32A     -0.496610    33A     -0.433153  
      34A     -0.411059    35A     -0.409553    36A     -0.398750  

    Virtual:                                                              

      37A      0.044178    38A      0.047265    39A      0.061261  
      40A      0.071259    41A      0.073106    42A      0.075707  
      43A      0.081363    44A      0.092665    45A      0.099808  
      46A      0.106547    47A      0.107916    48A      0.113970  
      49A      0.123577    50A      0.130662    51A      0.140584  
      52A      0.145043    53A      0.160664    54A      0.163814  
      55A      0.166632    56A      0.170382    57A      0.189964  
      58A      0.190053    59A      0.192693    60A      0.196947  
      61A      0.205010    62A      0.205901    63A      0.216423  
      64A      0.233367    65A      0.244806    66A      0.254883  
      67A      0.256765    68A      0.260717    69A      0.268593  
      70A      0.270194    71A      0.282842    72A      0.288767  
      73A      0.293869    74A      0.297691    75A      0.298966  
      76A      0.302001    77A      0.305838    78A      0.307308  
      79A      0.323880    80A      0.324106    81A      0.332845  
      82A      0.339025    83A      0.340410    84A      0.354446  
      85A      0.355992    86A      0.361881    87A      0.376227  
      88A      0.376591    89A      0.384169    90A      0.391116  
      91A      0.403523    92A      0.405000    93A      0.410287  
      94A      0.421081    95A      0.433006    96A      0.442133  
      97A      0.443596    98A      0.461782    99A      0.468660  
     100A      0.485804   101A      0.488078   102A      0.494430  
     103A      0.506839   104A      0.518307   105A      0.523111  
     106A      0.527347   107A      0.531374   108A      0.539828  
     109A      0.541481   110A      0.547728   111A      0.557426  
     112A      0.564105   113A      0.567479   114A      0.578527  
     115A      0.606149   116A      0.614626   117A      0.617607  
     118A      0.625887   119A      0.628125   120A      0.634561  
     121A      0.636946   122A      0.645815   123A      0.648462  
     124A      0.660812   125A      0.672672   126A      0.680785  
     127A      0.687246   128A      0.698284   129A      0.708909  
     130A      0.709200   131A      0.721204   132A      0.726024  
     133A      0.749619   134A      0.752452   135A      0.767760  
     136A      0.768096   137A      0.773301   138A      0.783575  
     139A      0.790902   140A      0.804490   141A      0.810108  
     142A      0.816526   143A      0.826867   144A      0.846853  
     145A      0.869190   146A      0.871057   147A      0.873372  
     148A      0.885555   149A      0.901667   150A      0.909249  
     151A      0.912264   152A      0.914484   153A      0.923763  
     154A      0.926642   155A      0.939254   156A      0.952450  
     157A      0.964821   158A      0.968595   159A      0.976063  
     160A      0.983737   161A      0.998304   162A      1.011311  
     163A      1.046945   164A      1.049123   165A      1.052881  
     166A      1.071519   167A      1.080690   168A      1.083371  
     169A      1.090965   170A      1.112596   171A      1.129902  
     172A      1.138384   173A      1.145423   174A      1.151575  
     175A      1.155058   176A      1.176218   177A      1.188635  
     178A      1.199697   179A      1.221078   180A      1.225633  
     181A      1.234902   182A      1.255792   183A      1.267076  
     184A      1.283810   185A      1.296977   186A      1.307464  
     187A      1.308646   188A      1.315880   189A      1.328874  
     190A      1.342952   191A      1.348154   192A      1.366371  
     193A      1.366759   194A      1.375715   195A      1.385244  
     196A      1.389637   197A      1.396002   198A      1.410928  
     199A      1.416553   200A      1.420769   201A      1.429673  
     202A      1.436958   203A      1.455094   204A      1.462697  
     205A      1.465082   206A      1.477811   207A      1.494122  
     208A      1.507800   209A      1.512256   210A      1.522058  
     211A      1.530247   212A      1.535972   213A      1.548717  
     214A      1.559647   215A      1.561279   216A      1.587962  
     217A      1.588941   218A      1.590384   219A      1.613916  
     220A      1.629123   221A      1.632448   222A      1.666188  
     223A      1.671059   224A      1.672038   225A      1.682136  
     226A      1.710782   227A      1.726108   228A      1.753580  
     229A      1.759723   230A      1.782340   231A      1.794638  
     232A      1.821902   233A      1.840800   234A      1.841109  
     235A      1.861564   236A      1.885004   237A      1.894452  
     238A      1.901624   239A      1.915196   240A      1.926072  
     241A      1.931674   242A      1.955846   243A      1.995447  
     244A      2.024184   245A      2.024858   246A      2.034370  
     247A      2.114234   248A      2.125632   249A      2.187142  
     250A      2.238507   251A      2.251573   252A      2.317276  
     253A      2.337157   254A      2.361138   255A      2.381522  
     256A      2.391589   257A      2.417618   258A      2.464507  
     259A      2.465422   260A      2.472421   261A      2.489921  
     262A      2.626314   263A      2.632462   264A      2.639477  
     265A      2.704567   266A      2.738524   267A      2.773341  
     268A      2.797434   269A      2.803457   270A      2.812751  
     271A      2.835958   272A      2.839888   273A      2.871946  
     274A      2.876423   275A      2.938947   276A      2.957978  
     277A      2.978199   278A      2.983556   279A      3.004877  
     280A      3.017525   281A      3.037062   282A      3.046577  
     283A      3.083907   284A      3.087966   285A      3.094547  
     286A      3.102637   287A      3.120618   288A      3.122875  
     289A      3.178328   290A      3.189250   291A      3.204185  
     292A      3.211600   293A      3.234499   294A      3.237349  
     295A      3.240107   296A      3.263713   297A      3.274197  
     298A      3.306759   299A      3.335116   300A      3.341059  
     301A      3.344022   302A      3.356119   303A      3.380120  
     304A      3.385150   305A      3.402240   306A      3.414115  
     307A      3.424413   308A      3.431150   309A      3.439191  
     310A      3.457691   311A      3.474579   312A      3.477089  
     313A      3.482472   314A      3.499906   315A      3.510801  
     316A      3.514332   317A      3.523006   318A      3.529231  
     319A      3.534700   320A      3.548748   321A      3.556729  
     322A      3.575369   323A      3.577075   324A      3.583362  
     325A      3.590092   326A      3.596531   327A      3.609335  
     328A      3.625806   329A      3.630782   330A      3.648148  
     331A      3.654573   332A      3.661649   333A      3.664176  
     334A      3.682823   335A      3.689833   336A      3.708781  
     337A      3.710854   338A      3.739169   339A      3.755731  
     340A      3.768287   341A      3.781335   342A      3.812149  
     343A      3.815805   344A      3.850456   345A      3.874842  
     346A      3.876482   347A      3.894592   348A      3.896583  
     349A      3.912113   350A      3.919433   351A      3.948064  
     352A      3.992599   353A      3.992695   354A      4.007242  
     355A      4.012542   356A      4.028674   357A      4.039148  
     358A      4.073562   359A      4.078758   360A      4.097524  
     361A      4.122958   362A      4.132830   363A      4.153464  
     364A      4.175002   365A      4.184431   366A      4.187955  
     367A      4.195807   368A      4.203498   369A      4.253502  
     370A      4.260133   371A      4.266478   372A      4.277857  
     373A      4.279223   374A      4.308344   375A      4.311383  
     376A      4.319190   377A      4.333075   378A      4.350712  
     379A      4.367254   380A      4.380918   381A      4.400680  
     382A      4.401924   383A      4.410112   384A      4.413117  
     385A      4.425329   386A      4.446504   387A      4.464119  
     388A      4.468202   389A      4.483508   390A      4.503309  
     391A      4.503920   392A      4.520077   393A      4.525474  
     394A      4.528509   395A      4.558214   396A      4.568174  
     397A      4.591422   398A      4.591783   399A      4.596645  
     400A      4.627882   401A      4.632424   402A      4.646177  
     403A      4.671078   404A      4.686534   405A      4.688448  
     406A      4.708470   407A      4.722685   408A      4.755601  
     409A      4.758546   410A      4.779615   411A      4.781778  
     412A      4.788346   413A      4.793522   414A      4.843130  
     415A      4.863648   416A      4.899342   417A      4.913199  
     418A      4.930254   419A      4.945743   420A      4.969556  
     421A      4.987309   422A      5.048158   423A      5.118289  
     424A      5.135474   425A      5.158320   426A      5.204842  
     427A      5.213879   428A      5.229561   429A      5.229622  
     430A      5.238316   431A      5.240518   432A      5.256590  
     433A      5.258998   434A      5.289345   435A      5.290149  
     436A      5.332227   437A      5.354873   438A      5.358489  
     439A      5.394366   440A      5.433854   441A      5.440367  
     442A      5.447017   443A      5.458332   444A      5.492834  
     445A      5.517664   446A      5.546888   447A      5.549101  
     448A      5.588363   449A      5.593864   450A      5.634966  
     451A      5.642906   452A      5.646400   453A      5.686283  
     454A      5.687501   455A      5.710469   456A      5.736774  
     457A      5.746674   458A      5.757109   459A      5.761455  
     460A      5.776524   461A      5.777219   462A      5.811307  
     463A      5.870401   464A      5.896516   465A      5.896594  
     466A      5.932496   467A      5.968786   468A      5.972443  
     469A      6.000733   470A      6.006289   471A      6.039281  
     472A      6.044654   473A      6.072621   474A      6.109330  
     475A      6.133270   476A      6.213887   477A      6.236612  
     478A      6.244095   479A      6.245400   480A      6.327527  
     481A      6.408967   482A      6.431831   483A      6.461025  
     484A      6.478267   485A      6.538098   486A      6.542731  
     487A      6.604300   488A      6.629194   489A      6.722308  
     490A      6.739061   491A      6.767453   492A      6.772541  
     493A      6.823257   494A      6.934455   495A      7.245774  
     496A      7.261261   497A      7.276377   498A      7.285402  
     499A      7.365282   500A      7.387977   501A      7.439014  
     502A      7.469205   503A      7.473677   504A      7.491101  
     505A      7.531123   506A      7.606507   507A      7.782234  
     508A      7.789683   509A      7.911241   510A      7.946514  
     511A     12.191922   512A     12.530194   513A     13.817422  
     514A     13.894579   515A     14.351082   516A     14.728300  
     517A     14.838046   518A     15.954520   519A     16.148495  

    Final Occupation by Irrep:
              A 
    DOCC [    36 ]

  @DF-RHF Final Energy:  -455.18622053709413

   => Energetics <=

    Nuclear Repulsion Energy =            451.1139741015882691
    One-Electron Energy =               -1516.1096767536514562
    Two-Electron Energy =                 609.8094821149691143
    Total Energy =                       -455.1862205370941865

Computation Completed


Properties will be evaluated at   0.000000,   0.000000,   0.000000 [a0]

Properties computed using the SCF density matrix

  Nuclear Dipole Moment: [e a0]
     X:    -3.7377      Y:    -1.5388      Z:     0.0037

  Electronic Dipole Moment: [e a0]
     X:     3.6393      Y:     1.5279      Z:    -0.0026

  Dipole Moment: [e a0]
     X:    -0.0983      Y:    -0.0109      Z:     0.0011     Total:     0.0990

  Dipole Moment: [D]
     X:    -0.2500      Y:    -0.0277      Z:     0.0027     Total:     0.2515


*** tstop() called on r282 at Fri Sep 10 18:48:16 2021
Module time:
	user time   =      69.48 seconds =       1.16 minutes
	system time =       1.65 seconds =       0.03 minutes
	total time  =         71 seconds =       1.18 minutes
Total time:
	user time   =      69.48 seconds =       1.16 minutes
	system time =       1.65 seconds =       0.03 minutes
	total time  =         71 seconds =       1.18 minutes

  //>>>>>>>>>>>>>>>>>>>>>>>>>>>>>>>>>>>//
  //            Monomer A HF           //
  //<<<<<<<<<<<<<<<<<<<<<<<<<<<<<<<<<<<//


*** tstart() called on r282
*** at Fri Sep 10 18:48:16 2021

   => Loading Basis Set <=

    Name: JUN-CC-PVTZ
    Role: ORBITAL
    Keyword: BASIS
    atoms 1-2, 7, 13-14    entry C          line   217 file /home/r08543048/miniconda3/share/psi4/basis/jun-cc-pvtz.gbs 
    atoms 3, 15            entry O          line   305 file /home/r08543048/miniconda3/share/psi4/basis/jun-cc-pvtz.gbs 
    atoms 4, 16            entry N          line   261 file /home/r08543048/miniconda3/share/psi4/basis/jun-cc-pvtz.gbs 
    atoms 5-6, 8-12, 17-21 entry H          line    36 file /home/r08543048/miniconda3/share/psi4/basis/jun-cc-pvtz.gbs 


         ---------------------------------------------------------
                                   SCF
               by Justin Turney, Rob Parrish, Andy Simmonett
                          and Daniel G. A. Smith
                              RHF Reference
                        1 Threads,  20980 MiB Core
         ---------------------------------------------------------

  ==> Geometry <==

    Molecular point group: c1
    Full point group: C1

    Geometry (in Angstrom), charge = 0, multiplicity = 1:

       Center              X                  Y                   Z               Mass       
    ------------   -----------------  -----------------  -----------------  -----------------
         C           -3.068552531801     0.525404966967     0.000013207509    12.000000000000
         C           -1.562567531801     0.358209966967    -0.000206792491    12.000000000000
         O           -0.835494531801     1.360442966967    -0.000527792491    15.994914619570
         N           -1.070684531801    -0.892359033033    -0.000037792491    14.003074004430
         H           -0.057235531801    -1.039902033033    -0.000138792491     1.007825032230
         H           -1.688366531801    -1.682247033033     0.000260207509     1.007825032230
         C           -3.908514531801    -0.743894033033     0.000439207509    12.000000000000
         H           -3.717932531801    -1.350635033033     0.885986207509     1.007825032230
         H           -4.968137531801    -0.494249033033     0.000574207509     1.007825032230
         H           -3.718248531801    -1.351021033033    -0.884909792491     1.007825032230
         H           -3.298973531801     1.141295966967     0.870244207509     1.007825032230
         H           -3.299269531801     1.140905966967    -0.870414792491     1.007825032230
      Gh(C)           4.007706468199    -0.307598033033     0.000529207509    12.000000000000
      Gh(C)           2.505819468199    -0.168084033033     0.000031207509    12.000000000000
      Gh(O)           1.782997468199    -1.171853033033    -0.000369792491    15.994914619570
      Gh(N)           2.011777468199     1.083014966967     0.000088207509    14.003074004430
      Gh(H)           4.526980468199     0.647872966967     0.000172207509     1.007825032230
      Gh(H)           4.300153468199    -0.878257033033     0.879416207509     1.007825032230
      Gh(H)           4.300662468199    -0.879235033033    -0.877543792491     1.007825032230
      Gh(H)           0.998268468199     1.233538966967    -0.000127792491     1.007825032230
      Gh(H)           2.633193468199     1.870064966967     0.000429207509     1.007825032230

  Running in c1 symmetry.

  Rotational constants: A =      0.14763  B =      0.01923  C =      0.01717 [cm^-1]
  Rotational constants: A =   4425.79446  B =    576.46039  C =    514.87457 [MHz]
  Nuclear repulsion =  179.149979151209010

  Charge       = 0
  Multiplicity = 1
  Electrons    = 40
  Nalpha       = 20
  Nbeta        = 20

  ==> Algorithm <==

  SCF Algorithm Type is DF.
  DIIS enabled.
  MOM disabled.
  Fractional occupation disabled.
  Guess Type is SAD.
  Energy threshold   = 1.00e-08
  Density threshold  = 1.00e-08
  Integral threshold = 0.00e+00

  ==> Primary Basis <==

  Basis Set: JUN-CC-PVTZ
    Blend: JUN-CC-PVTZ
    Number of shells: 189
    Number of basis function: 519
    Number of Cartesian functions: 585
    Spherical Harmonics?: true
    Max angular momentum: 3

   => Loading Basis Set <=

    Name: (JUN-CC-PVTZ AUX)
    Role: JKFIT
    Keyword: DF_BASIS_SCF
    atoms 1-2, 7, 13-14    entry C          line   152 file /home/r08543048/miniconda3/share/psi4/basis/jun-cc-pvtz-jkfit.gbs 
    atoms 3, 15            entry O          line   272 file /home/r08543048/miniconda3/share/psi4/basis/jun-cc-pvtz-jkfit.gbs 
    atoms 4, 16            entry N          line   212 file /home/r08543048/miniconda3/share/psi4/basis/jun-cc-pvtz-jkfit.gbs 
    atoms 5-6, 8-12, 17-21 entry H          line    70 file /home/r08543048/miniconda3/share/psi4/basis/jun-cc-pvtz-jkfit.gbs 

  ==> Pre-Iterations <==

   -------------------------------------------------------
    Irrep   Nso     Nmo     Nalpha   Nbeta   Ndocc  Nsocc
   -------------------------------------------------------
     A        519     519       0       0       0       0
   -------------------------------------------------------
    Total     519     519      20      20      20       0
   -------------------------------------------------------

  ==> Integral Setup <==

  ==> DiskDFJK: Density-Fitted J/K Matrices <==

    J tasked:                  Yes
    K tasked:                  Yes
    wK tasked:                  No
    OpenMP threads:              1
    Integrals threads:           1
    Memory [MiB]:            15735
    Algorithm:                Core
    Integral Cache:           LOAD
    Schwarz Cutoff:          1E-12
    Fitting Condition:       1E-10

   => Auxiliary Basis Set <=

  Basis Set: (JUN-CC-PVTZ AUX)
    Blend: JUN-CC-PVTZ-JKFIT
    Number of shells: 381
    Number of basis function: 1215
    Number of Cartesian functions: 1464
    Spherical Harmonics?: true
    Max angular momentum: 4

  Minimum eigenvalue in the overlap matrix is 3.4667122503E-05.
  Using Symmetric Orthogonalization.

  SCF Guess: Superposition of Atomic Densities via on-the-fly atomic UHF.

  ==> Iterations <==

                           Total Energy        Delta E     RMS |[F,P]|

   @DF-RHF iter SAD:  -246.33327554928053   -2.46333e+02   0.00000e+00 
   @DF-RHF iter   1:  -246.89274497764532   -5.59469e-01   1.25299e-03 DIIS
   @DF-RHF iter   2:  -247.05430023250273   -1.61555e-01   7.17998e-04 DIIS
   @DF-RHF iter   3:  -247.10221174750924   -4.79115e-02   1.38661e-04 DIIS
   @DF-RHF iter   4:  -247.10516167375644   -2.94993e-03   6.18250e-05 DIIS
   @DF-RHF iter   5:  -247.10579447444744   -6.32801e-04   1.04795e-05 DIIS
   @DF-RHF iter   6:  -247.10583268159235   -3.82071e-05   4.32477e-06 DIIS
   @DF-RHF iter   7:  -247.10583775321084   -5.07162e-06   1.80288e-06 DIIS
   @DF-RHF iter   8:  -247.10583899318272   -1.23997e-06   6.67710e-07 DIIS
   @DF-RHF iter   9:  -247.10583919880398   -2.05621e-07   1.48711e-07 DIIS
   @DF-RHF iter  10:  -247.10583920873228   -9.92830e-09   4.02886e-08 DIIS
   @DF-RHF iter  11:  -247.10583920924842   -5.16138e-10   1.18766e-08 DIIS
   @DF-RHF iter  12:  -247.10583920929290   -4.44800e-11   3.43922e-09 DIIS
  Energy and wave function converged.


  ==> Post-Iterations <==

    Orbital Energies [Eh]
    ---------------------

    Doubly Occupied:                                                      

       1A    -20.506643     2A    -15.591177     3A    -11.348510  
       4A    -11.241403     5A    -11.236615     6A     -1.363218  
       7A     -1.216360     8A     -1.058987     9A     -0.903666  
      10A     -0.795302    11A     -0.735615    12A     -0.645248  
      13A     -0.644530    14A     -0.594731    15A     -0.558604  
      16A     -0.552567    17A     -0.524574    18A     -0.502660  
      19A     -0.414025    20A     -0.409046  

    Virtual:                                                              

      21A      0.033899    22A      0.040378    23A      0.055814  
      24A      0.061047    25A      0.067004    26A      0.071177  
      27A      0.075943    28A      0.082957    29A      0.099346  
      30A      0.103799    31A      0.104304    32A      0.109437  
      33A      0.118666    34A      0.128376    35A      0.137826  
      36A      0.138345    37A      0.145998    38A      0.154037  
      39A      0.156260    40A      0.165098    41A      0.173309  
      42A      0.175347    43A      0.184222    44A      0.192206  
      45A      0.199446    46A      0.204387    47A      0.211796  
      48A      0.218025    49A      0.218391    50A      0.235357  
      51A      0.240332    52A      0.253835    53A      0.254421  
      54A      0.260577    55A      0.267877    56A      0.278433  
      57A      0.291747    58A      0.297682    59A      0.298176  
      60A      0.300802    61A      0.303551    62A      0.315439  
      63A      0.327632    64A      0.332435    65A      0.338614  
      66A      0.350980    67A      0.353590    68A      0.355701  
      69A      0.360189    70A      0.372223    71A      0.374035  
      72A      0.384063    73A      0.391776    74A      0.395631  
      75A      0.402711    76A      0.408752    77A      0.411017  
      78A      0.424877    79A      0.427507    80A      0.436952  
      81A      0.439835    82A      0.442935    83A      0.465178  
      84A      0.465904    85A      0.486142    86A      0.489287  
      87A      0.497181    88A      0.500530    89A      0.507280  
      90A      0.507468    91A      0.517390    92A      0.530020  
      93A      0.534259    94A      0.539962    95A      0.554382  
      96A      0.558333    97A      0.565795    98A      0.584708  
      99A      0.592306   100A      0.597377   101A      0.607598  
     102A      0.619662   103A      0.621416   104A      0.633658  
     105A      0.641333   106A      0.646933   107A      0.656465  
     108A      0.668674   109A      0.679904   110A      0.693463  
     111A      0.696189   112A      0.710773   113A      0.725401  
     114A      0.730988   115A      0.754250   116A      0.762629  
     117A      0.771914   118A      0.777029   119A      0.780280  
     120A      0.785564   121A      0.798605   122A      0.805906  
     123A      0.806050   124A      0.814140   125A      0.821705  
     126A      0.844920   127A      0.857415   128A      0.861164  
     129A      0.874470   130A      0.885231   131A      0.890198  
     132A      0.904663   133A      0.917817   134A      0.921533  
     135A      0.927875   136A      0.932148   137A      0.944096  
     138A      0.966687   139A      0.984931   140A      0.991611  
     141A      0.991975   142A      1.004733   143A      1.013191  
     144A      1.029899   145A      1.033422   146A      1.046432  
     147A      1.056807   148A      1.063165   149A      1.074241  
     150A      1.076276   151A      1.092854   152A      1.097672  
     153A      1.098230   154A      1.133828   155A      1.137524  
     156A      1.144363   157A      1.161496   158A      1.172964  
     159A      1.202550   160A      1.209804   161A      1.218762  
     162A      1.220673   163A      1.226404   164A      1.249539  
     165A      1.250503   166A      1.272962   167A      1.294758  
     168A      1.301481   169A      1.314318   170A      1.329384  
     171A      1.332383   172A      1.335945   173A      1.344884  
     174A      1.364312   175A      1.366338   176A      1.384127  
     177A      1.384330   178A      1.408062   179A      1.416461  
     180A      1.428826   181A      1.438882   182A      1.440196  
     183A      1.447327   184A      1.466873   185A      1.481994  
     186A      1.484393   187A      1.499369   188A      1.504726  
     189A      1.506580   190A      1.526437   191A      1.532272  
     192A      1.537570   193A      1.540986   194A      1.553611  
     195A      1.566772   196A      1.583401   197A      1.598664  
     198A      1.606434   199A      1.610718   200A      1.615539  
     201A      1.643391   202A      1.648187   203A      1.664209  
     204A      1.673318   205A      1.715130   206A      1.719586  
     207A      1.739598   208A      1.749040   209A      1.752134  
     210A      1.775202   211A      1.799179   212A      1.805305  
     213A      1.827867   214A      1.828771   215A      1.846624  
     216A      1.854005   217A      1.868865   218A      1.885959  
     219A      1.892241   220A      1.907461   221A      1.927815  
     222A      1.945526   223A      1.947605   224A      1.968487  
     225A      1.997749   226A      1.998444   227A      2.015542  
     228A      2.048118   229A      2.058344   230A      2.093760  
     231A      2.103149   232A      2.130646   233A      2.207600  
     234A      2.232901   235A      2.245773   236A      2.303299  
     237A      2.334878   238A      2.364280   239A      2.379831  
     240A      2.409594   241A      2.414746   242A      2.453947  
     243A      2.474297   244A      2.489453   245A      2.520084  
     246A      2.567254   247A      2.574525   248A      2.637068  
     249A      2.663893   250A      2.699070   251A      2.722210  
     252A      2.767352   253A      2.774059   254A      2.799345  
     255A      2.813951   256A      2.839213   257A      2.860380  
     258A      2.863548   259A      2.876591   260A      2.900070  
     261A      2.933674   262A      2.956201   263A      2.975812  
     264A      3.006946   265A      3.023926   266A      3.030404  
     267A      3.041866   268A      3.071702   269A      3.098532  
     270A      3.115804   271A      3.127588   272A      3.146183  
     273A      3.195564   274A      3.207647   275A      3.231038  
     276A      3.233944   277A      3.244306   278A      3.322062  
     279A      3.341635   280A      3.354199   281A      3.368183  
     282A      3.371929   283A      3.378700   284A      3.406723  
     285A      3.427163   286A      3.465390   287A      3.469614  
     288A      3.469917   289A      3.476053   290A      3.502629  
     291A      3.512662   292A      3.516345   293A      3.547134  
     294A      3.548298   295A      3.558212   296A      3.576015  
     297A      3.580942   298A      3.590660   299A      3.599170  
     300A      3.600868   301A      3.609694   302A      3.629649  
     303A      3.649108   304A      3.653544   305A      3.676181  
     306A      3.692290   307A      3.692825   308A      3.701727  
     309A      3.735569   310A      3.740490   311A      3.762852  
     312A      3.832470   313A      3.844517   314A      3.868470  
     315A      3.875591   316A      3.877700   317A      3.884137  
     318A      3.891093   319A      3.901371   320A      3.911237  
     321A      3.931750   322A      3.963886   323A      3.988830  
     324A      3.990865   325A      4.007083   326A      4.011781  
     327A      4.040457   328A      4.064177   329A      4.065025  
     330A      4.090264   331A      4.102826   332A      4.128146  
     333A      4.153934   334A      4.170368   335A      4.190843  
     336A      4.193043   337A      4.242856   338A      4.247573  
     339A      4.248156   340A      4.256920   341A      4.270573  
     342A      4.292064   343A      4.300648   344A      4.312026  
     345A      4.323851   346A      4.328965   347A      4.340638  
     348A      4.341518   349A      4.363792   350A      4.388624  
     351A      4.402433   352A      4.402765   353A      4.440449  
     354A      4.446201   355A      4.448438   356A      4.466902  
     357A      4.495234   358A      4.507509   359A      4.507984  
     360A      4.521509   361A      4.547397   362A      4.558364  
     363A      4.576525   364A      4.586490   365A      4.613452  
     366A      4.619239   367A      4.624755   368A      4.635553  
     369A      4.647020   370A      4.680306   371A      4.686910  
     372A      4.698870   373A      4.700713   374A      4.725920  
     375A      4.733205   376A      4.747220   377A      4.763910  
     378A      4.769350   379A      4.770855   380A      4.786964  
     381A      4.789720   382A      4.791779   383A      4.809643  
     384A      4.833600   385A      4.839461   386A      4.861030  
     387A      4.877132   388A      4.889432   389A      4.895123  
     390A      4.913359   391A      4.916628   392A      4.926020  
     393A      4.942592   394A      4.960283   395A      4.973651  
     396A      5.019765   397A      5.029662   398A      5.039857  
     399A      5.047317   400A      5.092090   401A      5.111268  
     402A      5.121513   403A      5.124859   404A      5.154464  
     405A      5.188585   406A      5.194345   407A      5.205935  
     408A      5.215150   409A      5.217929   410A      5.244978  
     411A      5.255644   412A      5.275208   413A      5.300180  
     414A      5.345069   415A      5.347659   416A      5.376523  
     417A      5.419480   418A      5.441465   419A      5.446886  
     420A      5.511746   421A      5.543480   422A      5.584310  
     423A      5.603122   424A      5.638319   425A      5.643958  
     426A      5.662726   427A      5.689391   428A      5.737325  
     429A      5.742738   430A      5.763862   431A      5.773308  
     432A      5.844554   433A      5.879199   434A      5.894478  
     435A      5.902633   436A      5.915774   437A      5.945308  
     438A      5.964488   439A      5.971457   440A      5.983333  
     441A      6.024675   442A      6.028094   443A      6.070567  
     444A      6.078708   445A      6.114041   446A      6.157980  
     447A      6.225710   448A      6.225748   449A      6.234339  
     450A      6.257899   451A      6.299374   452A      6.354933  
     453A      6.389995   454A      6.436364   455A      6.463848  
     456A      6.472376   457A      6.513067   458A      6.527656  
     459A      6.537350   460A      6.555005   461A      6.562808  
     462A      6.621088   463A      6.690518   464A      6.691638  
     465A      6.723194   466A      6.761610   467A      6.774558  
     468A      6.857140   469A      6.933007   470A      6.936141  
     471A      7.118394   472A      7.259338   473A      7.295837  
     474A      7.337572   475A      7.348063   476A      7.396306  
     477A      7.446349   478A      7.449163   479A      7.503338  
     480A      7.515518   481A      7.538547   482A      7.543011  
     483A      7.577414   484A      7.757206   485A      7.795991  
     486A      7.799678   487A      7.849835   488A      7.855593  
     489A      7.868296   490A      7.923937   491A      8.061780  
     492A      8.264454   493A      8.475528   494A      8.866916  
     495A      9.092351   496A      9.107577   497A      9.142128  
     498A      9.457515   499A      9.800079   500A      9.859911  
     501A      9.884792   502A      9.967382   503A     10.204508  
     504A     10.633027   505A     10.934961   506A     11.520902  
     507A     11.559130   508A     11.669815   509A     11.977941  
     510A     12.491897   511A     13.814839   512A     13.831066  
     513A     14.351902   514A     14.720126   515A     16.120440  
     516A     42.892793   517A     46.265865   518A     55.954628  
     519A     60.655698  

    Final Occupation by Irrep:
              A 
    DOCC [    20 ]

  @DF-RHF Final Energy:  -247.10583920929290

   => Energetics <=

    Nuclear Repulsion Energy =            179.1499791512090098
    One-Electron Energy =                -690.8246774144504343
    Two-Electron Energy =                 264.5688590539485858
    Total Energy =                       -247.1058392092928671

Computation Completed


Properties will be evaluated at   0.000000,   0.000000,   0.000000 [a0]

Properties computed using the SCF density matrix

  Nuclear Dipole Moment: [e a0]
     X:  -162.8277      Y:     3.4762      Z:    -0.0027

  Electronic Dipole Moment: [e a0]
     X:   161.9367      Y:    -5.0359      Z:     0.0032

  Dipole Moment: [e a0]
     X:    -0.8910      Y:    -1.5597      Z:     0.0005     Total:     1.7962

  Dipole Moment: [D]
     X:    -2.2647      Y:    -3.9643      Z:     0.0013     Total:     4.5656


*** tstop() called on r282 at Fri Sep 10 18:49:04 2021
Module time:
	user time   =      47.07 seconds =       0.78 minutes
	system time =       0.79 seconds =       0.01 minutes
	total time  =         48 seconds =       0.80 minutes
Total time:
	user time   =     116.56 seconds =       1.94 minutes
	system time =       2.44 seconds =       0.04 minutes
	total time  =        119 seconds =       1.98 minutes

  //>>>>>>>>>>>>>>>>>>>>>>>>>>>>>>>>>>>//
  //            Monomer B HF           //
  //<<<<<<<<<<<<<<<<<<<<<<<<<<<<<<<<<<<//


*** tstart() called on r282
*** at Fri Sep 10 18:49:04 2021

   => Loading Basis Set <=

    Name: JUN-CC-PVTZ
    Role: ORBITAL
    Keyword: BASIS
    atoms 1-2, 7, 13-14    entry C          line   217 file /home/r08543048/miniconda3/share/psi4/basis/jun-cc-pvtz.gbs 
    atoms 3, 15            entry O          line   305 file /home/r08543048/miniconda3/share/psi4/basis/jun-cc-pvtz.gbs 
    atoms 4, 16            entry N          line   261 file /home/r08543048/miniconda3/share/psi4/basis/jun-cc-pvtz.gbs 
    atoms 5-6, 8-12, 17-21 entry H          line    36 file /home/r08543048/miniconda3/share/psi4/basis/jun-cc-pvtz.gbs 


         ---------------------------------------------------------
                                   SCF
               by Justin Turney, Rob Parrish, Andy Simmonett
                          and Daniel G. A. Smith
                              RHF Reference
                        1 Threads,  20980 MiB Core
         ---------------------------------------------------------

  ==> Geometry <==

    Molecular point group: c1
    Full point group: C1

    Geometry (in Angstrom), charge = 0, multiplicity = 1:

       Center              X                  Y                   Z               Mass       
    ------------   -----------------  -----------------  -----------------  -----------------
      Gh(C)          -3.068552531801     0.525404966967     0.000013207509    12.000000000000
      Gh(C)          -1.562567531801     0.358209966967    -0.000206792491    12.000000000000
      Gh(O)          -0.835494531801     1.360442966967    -0.000527792491    15.994914619570
      Gh(N)          -1.070684531801    -0.892359033033    -0.000037792491    14.003074004430
      Gh(H)          -0.057235531801    -1.039902033033    -0.000138792491     1.007825032230
      Gh(H)          -1.688366531801    -1.682247033033     0.000260207509     1.007825032230
      Gh(C)          -3.908514531801    -0.743894033033     0.000439207509    12.000000000000
      Gh(H)          -3.717932531801    -1.350635033033     0.885986207509     1.007825032230
      Gh(H)          -4.968137531801    -0.494249033033     0.000574207509     1.007825032230
      Gh(H)          -3.718248531801    -1.351021033033    -0.884909792491     1.007825032230
      Gh(H)          -3.298973531801     1.141295966967     0.870244207509     1.007825032230
      Gh(H)          -3.299269531801     1.140905966967    -0.870414792491     1.007825032230
         C            4.007706468199    -0.307598033033     0.000529207509    12.000000000000
         C            2.505819468199    -0.168084033033     0.000031207509    12.000000000000
         O            1.782997468199    -1.171853033033    -0.000369792491    15.994914619570
         N            2.011777468199     1.083014966967     0.000088207509    14.003074004430
         H            4.526980468199     0.647872966967     0.000172207509     1.007825032230
         H            4.300153468199    -0.878257033033     0.879416207509     1.007825032230
         H            4.300662468199    -0.879235033033    -0.877543792491     1.007825032230
         H            0.998268468199     1.233538966967    -0.000127792491     1.007825032230
         H            2.633193468199     1.870064966967     0.000429207509     1.007825032230

  Running in c1 symmetry.

  Rotational constants: A =      0.14763  B =      0.01923  C =      0.01717 [cm^-1]
  Rotational constants: A =   4425.79446  B =    576.46039  C =    514.87457 [MHz]
  Nuclear repulsion =  121.757128482815261

  Charge       = 0
  Multiplicity = 1
  Electrons    = 32
  Nalpha       = 16
  Nbeta        = 16

  ==> Algorithm <==

  SCF Algorithm Type is DF.
  DIIS enabled.
  MOM disabled.
  Fractional occupation disabled.
  Guess Type is SAD.
  Energy threshold   = 1.00e-08
  Density threshold  = 1.00e-08
  Integral threshold = 0.00e+00

  ==> Primary Basis <==

  Basis Set: JUN-CC-PVTZ
    Blend: JUN-CC-PVTZ
    Number of shells: 189
    Number of basis function: 519
    Number of Cartesian functions: 585
    Spherical Harmonics?: true
    Max angular momentum: 3

   => Loading Basis Set <=

    Name: (JUN-CC-PVTZ AUX)
    Role: JKFIT
    Keyword: DF_BASIS_SCF
    atoms 1-2, 7, 13-14    entry C          line   152 file /home/r08543048/miniconda3/share/psi4/basis/jun-cc-pvtz-jkfit.gbs 
    atoms 3, 15            entry O          line   272 file /home/r08543048/miniconda3/share/psi4/basis/jun-cc-pvtz-jkfit.gbs 
    atoms 4, 16            entry N          line   212 file /home/r08543048/miniconda3/share/psi4/basis/jun-cc-pvtz-jkfit.gbs 
    atoms 5-6, 8-12, 17-21 entry H          line    70 file /home/r08543048/miniconda3/share/psi4/basis/jun-cc-pvtz-jkfit.gbs 

  ==> Pre-Iterations <==

   -------------------------------------------------------
    Irrep   Nso     Nmo     Nalpha   Nbeta   Ndocc  Nsocc
   -------------------------------------------------------
     A        519     519       0       0       0       0
   -------------------------------------------------------
    Total     519     519      16      16      16       0
   -------------------------------------------------------

  ==> Integral Setup <==

  ==> DiskDFJK: Density-Fitted J/K Matrices <==

    J tasked:                  Yes
    K tasked:                  Yes
    wK tasked:                  No
    OpenMP threads:              1
    Integrals threads:           1
    Memory [MiB]:            15735
    Algorithm:                Core
    Integral Cache:           LOAD
    Schwarz Cutoff:          1E-12
    Fitting Condition:       1E-10

   => Auxiliary Basis Set <=

  Basis Set: (JUN-CC-PVTZ AUX)
    Blend: JUN-CC-PVTZ-JKFIT
    Number of shells: 381
    Number of basis function: 1215
    Number of Cartesian functions: 1464
    Spherical Harmonics?: true
    Max angular momentum: 4

  Minimum eigenvalue in the overlap matrix is 3.4667122503E-05.
  Using Symmetric Orthogonalization.

  SCF Guess: Superposition of Atomic Densities via on-the-fly atomic UHF.

  ==> Iterations <==

                           Total Energy        Delta E     RMS |[F,P]|

   @DF-RHF iter SAD:  -207.24099936983487   -2.07241e+02   0.00000e+00 
   @DF-RHF iter   1:  -207.88439155900400   -6.43392e-01   1.16865e-03 DIIS
   @DF-RHF iter   2:  -208.01243526361867   -1.28044e-01   7.09453e-04 DIIS
   @DF-RHF iter   3:  -208.05713077738105   -4.46955e-02   1.31738e-04 DIIS
   @DF-RHF iter   4:  -208.05966003444919   -2.52926e-03   5.26215e-05 DIIS
   @DF-RHF iter   5:  -208.06016768298983   -5.07649e-04   9.78592e-06 DIIS
   @DF-RHF iter   6:  -208.06019848662737   -3.08036e-05   4.57922e-06 DIIS
   @DF-RHF iter   7:  -208.06020401083575   -5.52421e-06   1.72897e-06 DIIS
   @DF-RHF iter   8:  -208.06020519928992   -1.18845e-06   5.82985e-07 DIIS
   @DF-RHF iter   9:  -208.06020535726276   -1.57973e-07   1.54779e-07 DIIS
   @DF-RHF iter  10:  -208.06020536585399   -8.59123e-09   5.12845e-08 DIIS
   @DF-RHF iter  11:  -208.06020536668976   -8.35769e-10   1.30943e-08 DIIS
   @DF-RHF iter  12:  -208.06020536674274   -5.29781e-11   2.67420e-09 DIIS
  Energy and wave function converged.


  ==> Post-Iterations <==

    Orbital Energies [Eh]
    ---------------------

    Doubly Occupied:                                                      

       1A    -20.510771     2A    -15.594271     3A    -11.353217  
       4A    -11.238318     5A     -1.366803     6A     -1.218045  
       7A     -1.006307     8A     -0.804626     9A     -0.730352  
      10A     -0.662759    11A     -0.615550    12A     -0.577737  
      13A     -0.564990    14A     -0.524136    15A     -0.421052  
      16A     -0.413263  

    Virtual:                                                              

      17A      0.032721    18A      0.039079    19A      0.050470  
      20A      0.064589    21A      0.067303    22A      0.072102  
      23A      0.078432    24A      0.088136    25A      0.092944  
      26A      0.100420    27A      0.107328    28A      0.111904  
      29A      0.117670    30A      0.126504    31A      0.131241  
      32A      0.141706    33A      0.148277    34A      0.149675  
      35A      0.154631    36A      0.155484    37A      0.173954  
      38A      0.174343    39A      0.188383    40A      0.188966  
      41A      0.192177    42A      0.196728    43A      0.199595  
      44A      0.213960    45A      0.214918    46A      0.231054  
      47A      0.248335    48A      0.251977    49A      0.252695  
      50A      0.255817    51A      0.283512    52A      0.285806  
      53A      0.289614    54A      0.297495    55A      0.298340  
      56A      0.306845    57A      0.310420    58A      0.316693  
      59A      0.318836    60A      0.326604    61A      0.330271  
      62A      0.340421    63A      0.344544    64A      0.361206  
      65A      0.362141    66A      0.372272    67A      0.379211  
      68A      0.397150    69A      0.399083    70A      0.401764  
      71A      0.408134    72A      0.417140    73A      0.419250  
      74A      0.430576    75A      0.434173    76A      0.440288  
      77A      0.444084    78A      0.451149    79A      0.457766  
      80A      0.470833    81A      0.483030    82A      0.491409  
      83A      0.498531    84A      0.509060    85A      0.518778  
      86A      0.522033    87A      0.527655    88A      0.530432  
      89A      0.543828    90A      0.547818    91A      0.553144  
      92A      0.560183    93A      0.585687    94A      0.588379  
      95A      0.591796    96A      0.612487    97A      0.618565  
      98A      0.618718    99A      0.629825   100A      0.634092  
     101A      0.640426   102A      0.650732   103A      0.658518  
     104A      0.663280   105A      0.670120   106A      0.677678  
     107A      0.689996   108A      0.710282   109A      0.714623  
     110A      0.727224   111A      0.731672   112A      0.735506  
     113A      0.742726   114A      0.768293   115A      0.782047  
     116A      0.792374   117A      0.805365   118A      0.814277  
     119A      0.826642   120A      0.827720   121A      0.839160  
     122A      0.840265   123A      0.858840   124A      0.874298  
     125A      0.879915   126A      0.888503   127A      0.900716  
     128A      0.901938   129A      0.917736   130A      0.935128  
     131A      0.941432   132A      0.962357   133A      0.971076  
     134A      0.972170   135A      0.988442   136A      0.996683  
     137A      1.002235   138A      1.037267   139A      1.042590  
     140A      1.044931   141A      1.063165   142A      1.077323  
     143A      1.078277   144A      1.091978   145A      1.120870  
     146A      1.131410   147A      1.133284   148A      1.148594  
     149A      1.153527   150A      1.160627   151A      1.178817  
     152A      1.189883   153A      1.199164   154A      1.208015  
     155A      1.217324   156A      1.224459   157A      1.225356  
     158A      1.244275   159A      1.254123   160A      1.260617  
     161A      1.267726   162A      1.278196   163A      1.288767  
     164A      1.296708   165A      1.309484   166A      1.324107  
     167A      1.335316   168A      1.344238   169A      1.352492  
     170A      1.358424   171A      1.372621   172A      1.382641  
     173A      1.397090   174A      1.417148   175A      1.418207  
     176A      1.424625   177A      1.436849   178A      1.440869  
     179A      1.445832   180A      1.460749   181A      1.474660  
     182A      1.492028   183A      1.504168   184A      1.517602  
     185A      1.522946   186A      1.539182   187A      1.544868  
     188A      1.557806   189A      1.564872   190A      1.569863  
     191A      1.585115   192A      1.589683   193A      1.612512  
     194A      1.623256   195A      1.633860   196A      1.646335  
     197A      1.646637   198A      1.660409   199A      1.660630  
     200A      1.666329   201A      1.688311   202A      1.724534  
     203A      1.746616   204A      1.757862   205A      1.773619  
     206A      1.783898   207A      1.788429   208A      1.810583  
     209A      1.840301   210A      1.865775   211A      1.880375  
     212A      1.889180   213A      1.897579   214A      1.898175  
     215A      1.905769   216A      1.933520   217A      1.935531  
     218A      1.944430   219A      1.947336   220A      2.001620  
     221A      2.022929   222A      2.058593   223A      2.060942  
     224A      2.105011   225A      2.133206   226A      2.140215  
     227A      2.157488   228A      2.185090   229A      2.209906  
     230A      2.251931   231A      2.281196   232A      2.298994  
     233A      2.318300   234A      2.350741   235A      2.381468  
     236A      2.401970   237A      2.408992   238A      2.415637  
     239A      2.458847   240A      2.488385   241A      2.489282  
     242A      2.531317   243A      2.561327   244A      2.573777  
     245A      2.602267   246A      2.619889   247A      2.623210  
     248A      2.693142   249A      2.695618   250A      2.749469  
     251A      2.765368   252A      2.785783   253A      2.794368  
     254A      2.827883   255A      2.840430   256A      2.877148  
     257A      2.889386   258A      2.899739   259A      2.959242  
     260A      2.979740   261A      3.006947   262A      3.021589  
     263A      3.039885   264A      3.072609   265A      3.090545  
     266A      3.174518   267A      3.180760   268A      3.201902  
     269A      3.237363   270A      3.243673   271A      3.257250  
     272A      3.323749   273A      3.357014   274A      3.370922  
     275A      3.400002   276A      3.414998   277A      3.416605  
     278A      3.443142   279A      3.465463   280A      3.478054  
     281A      3.506919   282A      3.529950   283A      3.530280  
     284A      3.543782   285A      3.549916   286A      3.563635  
     287A      3.583950   288A      3.601237   289A      3.606090  
     290A      3.617652   291A      3.624837   292A      3.649050  
     293A      3.650490   294A      3.660113   295A      3.690187  
     296A      3.700285   297A      3.712245   298A      3.735516  
     299A      3.748609   300A      3.772677   301A      3.777139  
     302A      3.800057   303A      3.802718   304A      3.810634  
     305A      3.830877   306A      3.849267   307A      3.874865  
     308A      3.877524   309A      3.877738   310A      3.895969  
     311A      3.907928   312A      3.910483   313A      3.933464  
     314A      3.974277   315A      3.985963   316A      4.003390  
     317A      4.028494   318A      4.042095   319A      4.053443  
     320A      4.077527   321A      4.089134   322A      4.124464  
     323A      4.135065   324A      4.151534   325A      4.155196  
     326A      4.156934   327A      4.165147   328A      4.174416  
     329A      4.237524   330A      4.241806   331A      4.268053  
     332A      4.278605   333A      4.290276   334A      4.295141  
     335A      4.303258   336A      4.329880   337A      4.347781  
     338A      4.371667   339A      4.372339   340A      4.386082  
     341A      4.406248   342A      4.421738   343A      4.450480  
     344A      4.467962   345A      4.480970   346A      4.484852  
     347A      4.491616   348A      4.504380   349A      4.506001  
     350A      4.517704   351A      4.529343   352A      4.547064  
     353A      4.557420   354A      4.570265   355A      4.610160  
     356A      4.611508   357A      4.622104   358A      4.639208  
     359A      4.666575   360A      4.675330   361A      4.686073  
     362A      4.697816   363A      4.704732   364A      4.716864  
     365A      4.738249   366A      4.757228   367A      4.759901  
     368A      4.773936   369A      4.776289   370A      4.797113  
     371A      4.800929   372A      4.814082   373A      4.823206  
     374A      4.835765   375A      4.846811   376A      4.879043  
     377A      4.879372   378A      4.886424   379A      4.896818  
     380A      4.919999   381A      4.930465   382A      4.940398  
     383A      4.953266   384A      4.961799   385A      4.963712  
     386A      4.993757   387A      5.003796   388A      5.006649  
     389A      5.014362   390A      5.035512   391A      5.037873  
     392A      5.063309   393A      5.120371   394A      5.129944  
     395A      5.145836   396A      5.150649   397A      5.184552  
     398A      5.192727   399A      5.210975   400A      5.227055  
     401A      5.228074   402A      5.245293   403A      5.246907  
     404A      5.276433   405A      5.314363   406A      5.322340  
     407A      5.341699   408A      5.392837   409A      5.419195  
     410A      5.440276   411A      5.451774   412A      5.481451  
     413A      5.486712   414A      5.541818   415A      5.547090  
     416A      5.580996   417A      5.592169   418A      5.624971  
     419A      5.676957   420A      5.683414   421A      5.693729  
     422A      5.728964   423A      5.733943   424A      5.742282  
     425A      5.774673   426A      5.843007   427A      5.845592  
     428A      5.887658   429A      5.918862   430A      5.930037  
     431A      5.957195   432A      5.971645   433A      6.022854  
     434A      6.060948   435A      6.065065   436A      6.073108  
     437A      6.089461   438A      6.187900   439A      6.188637  
     440A      6.226560   441A      6.231213   442A      6.237896  
     443A      6.319716   444A      6.353882   445A      6.364647  
     446A      6.376784   447A      6.422273   448A      6.427763  
     449A      6.439862   450A      6.450604   451A      6.460449  
     452A      6.472138   453A      6.528742   454A      6.569490  
     455A      6.589786   456A      6.608675   457A      6.655938  
     458A      6.707680   459A      6.735832   460A      6.775640  
     461A      6.796907   462A      6.886182   463A      6.904989  
     464A      6.929683   465A      6.963054   466A      7.121046  
     467A      7.244050   468A      7.286094   469A      7.341502  
     470A      7.360695   471A      7.367826   472A      7.435783  
     473A      7.451498   474A      7.486398   475A      7.498864  
     476A      7.515721   477A      7.542475   478A      7.567318  
     479A      7.673740   480A      7.694649   481A      7.738770  
     482A      7.796155   483A      7.796627   484A      7.828749  
     485A      7.842898   486A      7.870375   487A      8.005507  
     488A      8.008887   489A      8.163084   490A      8.243817  
     491A      8.301249   492A      8.531837   493A      8.938536  
     494A      9.123823   495A      9.147242   496A      9.239315  
     497A      9.494730   498A      9.667501   499A      9.803025  
     500A      9.896652   501A      9.960295   502A     10.004297  
     503A     10.223658   504A     10.701299   505A     10.982067  
     506A     11.550435   507A     11.579906   508A     11.736858  
     509A     12.004621   510A     12.265601   511A     13.851942  
     512A     13.891620   513A     14.834019   514A     15.927160  
     515A     43.008450   516A     45.197396   517A     45.835451  
     518A     56.269787   519A     61.165083  

    Final Occupation by Irrep:
              A 
    DOCC [    16 ]

  @DF-RHF Final Energy:  -208.06020536674274

   => Energetics <=

    Nuclear Repulsion Energy =            121.7571284828152613
    One-Electron Energy =                -524.4302755571932266
    Two-Electron Energy =                 194.6129417076352581
    Total Energy =                       -208.0602053667427356

Computation Completed


Properties will be evaluated at   0.000000,   0.000000,   0.000000 [a0]

Properties computed using the SCF density matrix

  Nuclear Dipole Moment: [e a0]
     X:   159.0901      Y:    -5.0150      Z:     0.0064

  Electronic Dipole Moment: [e a0]
     X:  -158.2972      Y:     6.5722      Z:    -0.0058

  Dipole Moment: [e a0]
     X:     0.7929      Y:     1.5572      Z:     0.0006     Total:     1.7474

  Dipole Moment: [D]
     X:     2.0153      Y:     3.9580      Z:     0.0016     Total:     4.4416


*** tstop() called on r282 at Fri Sep 10 18:49:48 2021
Module time:
	user time   =      43.19 seconds =       0.72 minutes
	system time =       0.70 seconds =       0.01 minutes
	total time  =         44 seconds =       0.73 minutes
Total time:
	user time   =     159.75 seconds =       2.66 minutes
	system time =       3.14 seconds =       0.05 minutes
	total time  =        163 seconds =       2.72 minutes
  Constructing Basis Sets for SAPT...

   => Loading Basis Set <=

    Name: (JUN-CC-PVTZ AUX)
    Role: RIFIT
    Keyword: DF_BASIS_SAPT
    atoms 1-2, 7, 13-14    entry C          line   132 file /home/r08543048/miniconda3/share/psi4/basis/jun-cc-pvtz-ri.gbs 
    atoms 3, 15            entry O          line   244 file /home/r08543048/miniconda3/share/psi4/basis/jun-cc-pvtz-ri.gbs 
    atoms 4, 16            entry N          line   188 file /home/r08543048/miniconda3/share/psi4/basis/jun-cc-pvtz-ri.gbs 
    atoms 5-6, 8-12, 17-21 entry H          line    30 file /home/r08543048/miniconda3/share/psi4/basis/jun-cc-pvtz-ri.gbs 


  //>>>>>>>>>>>>>>>>>>>>>>>>>>>>>>>>>>>//
  //               SAPT0               //
  //<<<<<<<<<<<<<<<<<<<<<<<<<<<<<<<<<<<//


*** tstart() called on r282
*** at Fri Sep 10 18:49:48 2021

        SAPT0  
    Ed Hohenstein
     6 June 2009

      Orbital Information
  --------------------------
    NSO        =       519
    NMO        =       519
    NRI        =      1233
    NOCC A     =        20
    NOCC B     =        16
    FOCC A     =         0
    FOCC B     =         0
    NVIR A     =       499
    NVIR B     =       503

    Elst10,r            =    -0.042546173056 [Eh]
    Exch10              =     0.039034916054 [Eh]
    Exch10 (S^2)        =     0.038537076081 [Eh]

    Iter     Energy [mEh]          dE [mEh]         Residual      Time [s]
       1      -7.88875460       7.888754598      18.830549781             1
       2      -9.40340651       1.514651917      10.936209127             2
       3     -10.08730438       0.683897862       2.721895433             3
       4     -10.00191707      -0.085387310       1.067235778             4
       5      -9.99336708      -0.008549989       0.351034333             5
       6     -10.00050336       0.007136286       0.141568196             7
       7     -10.00245847       0.001955104       0.028427245             8
       8     -10.00169572      -0.000762745       0.006299757             9
       9     -10.00171377       0.000018043       0.001664802            10
      10     -10.00173924       0.000025475       0.000454521            11
      11     -10.00173993       0.000000687       0.000102918            12
      12     -10.00173815      -0.000001779       0.000024986            14
      13     -10.00173831       0.000000162       0.000008061            15
      14     -10.00173838       0.000000074       0.000002147            16
      15     -10.00173837      -0.000000011       0.000000522            17

    CHF Iterations converged


    Iter     Energy [mEh]          dE [mEh]         Residual      Time [s]
       1      -7.78154465       7.781544646      18.647655018             1
       2      -9.27250495       1.490960305      10.791598173             2
       3      -9.93695568       0.664450731       2.694712522             3
       4      -9.85207603      -0.084879653       1.058919148             4
       5      -9.84380430      -0.008271725       0.351900863             5
       6      -9.85094286       0.007138555       0.139816900             7
       7      -9.85280299       0.001860134       0.028113864             8
       8      -9.85208555      -0.000717441       0.006330132             9
       9      -9.85209486       0.000009309       0.001581699            10
      10      -9.85211803       0.000023166       0.000429418            11
      11      -9.85211903       0.000001004       0.000100894            12
      12      -9.85211704      -0.000001990       0.000023388            13
      13      -9.85211734       0.000000295       0.000005405            14
      14      -9.85211735       0.000000010       0.000001456            17
      15      -9.85211733      -0.000000013       0.000000409            18

    CHF Iterations converged

    Ind20,r (A<-B)      =    -0.010001738373 [Eh]
    Ind20,r (B<-A)      =    -0.009852117334 [Eh]
    Ind20,r             =    -0.019853855707 [Eh]
    Exch-Ind20,r (A<-B) =     0.005196826338 [Eh]
    Exch-Ind20,r (B<-A) =     0.005076690246 [Eh]
    Exch-Ind20,r        =     0.010273516583 [Eh]
    Disp20              =    -0.013958902780 [Eh]
    Disp20 (SS)         =    -0.006979451390 [Eh]
    Disp20 (OS)         =    -0.006979451390 [Eh]
    Exch-Disp20         =     0.002686732907 [Eh]
    Exch-Disp20 (SS)    =     0.001697875884 [Eh]
    Exch-Disp20 (OS)    =     0.000988857023 [Eh]

    SAPT Results 
  --------------------------------------------------------------------------------------------------------
    Electrostatics                -42.54617306 [mEh]     -26.69812667 [kcal/mol]    -111.70496197 [kJ/mol]
      Elst10,r                    -42.54617306 [mEh]     -26.69812667 [kcal/mol]    -111.70496197 [kJ/mol]

    Exchange                       39.03491605 [mEh]      24.49477963 [kcal/mol]     102.48615798 [kJ/mol]
      Exch10                       39.03491605 [mEh]      24.49477963 [kcal/mol]     102.48615798 [kJ/mol]
      Exch10(S^2)                  38.53707608 [mEh]      24.18238033 [kcal/mol]     101.17907931 [kJ/mol]

    Induction                     -16.66470406 [mEh]     -10.45725967 [kcal/mol]     -43.75317447 [kJ/mol]
      Ind20,r                     -19.85385571 [mEh]     -12.45848255 [kcal/mol]     -52.12629098 [kJ/mol]
      Exch-Ind20,r                 10.27351658 [mEh]       6.44672899 [kcal/mol]      26.97311407 [kJ/mol]
      delta HF,r (2)               -7.08436493 [mEh]      -4.44550611 [kcal/mol]     -18.59999757 [kJ/mol]

    Dispersion                    -11.27216987 [mEh]      -7.07339339 [kcal/mol]     -29.59507792 [kJ/mol]
      Disp20                      -13.95890278 [mEh]      -8.75934374 [kcal/mol]     -36.64909420 [kJ/mol]
      Exch-Disp20                   2.68673291 [mEh]       1.68595035 [kcal/mol]       7.05401628 [kJ/mol]
      Disp20 (SS)                  -6.97945139 [mEh]      -4.37967187 [kcal/mol]     -18.32454710 [kJ/mol]
      Disp20 (OS)                  -6.97945139 [mEh]      -4.37967187 [kcal/mol]     -18.32454710 [kJ/mol]
      Exch-Disp20 (SS)              1.69787588 [mEh]       1.06543320 [kcal/mol]       4.45777252 [kJ/mol]
      Exch-Disp20 (OS)              0.98885702 [mEh]       0.62051715 [kcal/mol]       2.59624375 [kJ/mol]

  Total HF                        -20.17596106 [mEh]     -12.66060671 [kcal/mol]     -52.97197846 [kJ/mol]
  Total SAPT0                     -31.44813093 [mEh]     -19.73400009 [kcal/mol]     -82.56705639 [kJ/mol]

  Special recipe for scaled SAPT0 (see Manual):
    Electrostatics sSAPT0         -42.54617306 [mEh]     -26.69812667 [kcal/mol]    -111.70496197 [kJ/mol]
    Exchange sSAPT0                39.03491605 [mEh]      24.49477963 [kcal/mol]     102.48615798 [kJ/mol]
    Induction sSAPT0              -16.26138409 [mEh]     -10.20417257 [kcal/mol]     -42.69425804 [kJ/mol]
    Dispersion sSAPT0             -11.16669352 [mEh]      -7.00720598 [kcal/mol]     -29.31814981 [kJ/mol]
  Total sSAPT0                    -30.93933461 [mEh]     -19.41472558 [kcal/mol]     -81.23121183 [kJ/mol]
  --------------------------------------------------------------------------------------------------------

*** tstop() called on r282 at Fri Sep 10 18:52:16 2021
Module time:
	user time   =     125.29 seconds =       2.09 minutes
	system time =      20.70 seconds =       0.34 minutes
	total time  =        148 seconds =       2.47 minutes
Total time:
	user time   =     285.18 seconds =       4.75 minutes
	system time =      23.84 seconds =       0.40 minutes
	total time  =        311 seconds =       5.18 minutes

    Psi4 stopped on: Friday, 10 September 2021 06:52PM
    Psi4 wall time for execution: 0:05:11.16

*** Psi4 exiting successfully. Buy a developer a beer!
