
    -----------------------------------------------------------------------
          Psi4: An Open-Source Ab Initio Electronic Structure Package
                               Psi4 1.3.2 release

                         Git: Rev {HEAD} ecbda83 


    R. M. Parrish, L. A. Burns, D. G. A. Smith, A. C. Simmonett,
    A. E. DePrince III, E. G. Hohenstein, U. Bozkaya, A. Yu. Sokolov,
    R. Di Remigio, R. M. Richard, J. F. Gonthier, A. M. James,
    H. R. McAlexander, A. Kumar, M. Saitow, X. Wang, B. P. Pritchard,
    P. Verma, H. F. Schaefer III, K. Patkowski, R. A. King, E. F. Valeev,
    F. A. Evangelista, J. M. Turney, T. D. Crawford, and C. D. Sherrill,
    J. Chem. Theory Comput. 13(7) pp 3185--3197 (2017).
    (doi: 10.1021/acs.jctc.7b00174)


                         Additional Contributions by
    P. Kraus, H. Kruse, M. H. Lechner, M. C. Schieber, R. A. Shaw,
    A. Alenaizan, R. Galvelis, Z. L. Glick, S. Lehtola, and J. P. Misiewicz

    -----------------------------------------------------------------------


    Psi4 started on: Friday, 10 September 2021 06:52PM

    Process ID: 56991
    Host:       r282
    PSIDATADIR: /home/r08543048/miniconda3/share/psi4
    Memory:     500.0 MiB
    Threads:    1
    
  ==> Input File <==

--------------------------------------------------------------------------
# Any line starting with the # character is a comment line
#! Sample  computation

memory 22 gb

molecule Dimer {
0 1
 C  2.487676    0.604521    0.000299
 C  0.991376    0.368178    0.000124
 O  0.218688    1.335600    0.000097
 N  0.558575   -0.904348   -0.000075
 H -0.444636   -1.100787   -0.000209
 H  1.212163   -1.664800   -0.000138
 C  3.385156   -0.624743   -0.000176
 H  3.223216   -1.239415   -0.885944
 H  4.431995   -0.326206   -0.000081
 H  3.223263   -1.240076    0.885143
 H  2.689461    1.230644   -0.869728
 H  2.689364    1.229885    0.870898



    
    
    
 --
0 1
 C  -3.033258   -0.319376   -0.000083
 O  -2.305221   -1.312714   -0.000353
 N  -2.603784    0.950228    0.000176
 H  -3.275466    1.696020    0.000342
 H  -1.599437    1.158242    0.000162
 H  -4.126894   -0.419235   -0.000090
 
 
 
 
 
 







units angstrom

no_reorient
symmetry c1
}

set globals{
  basis jun-cc-pvtz
}

energy('sapt0')


--------------------------------------------------------------------------

  Memory set to  20.489 GiB by Python driver.

  //>>>>>>>>>>>>>>>>>>>>>>>>>>>>>>>>>>>//
  //              Dimer HF             //
  //<<<<<<<<<<<<<<<<<<<<<<<<<<<<<<<<<<<//


*** tstart() called on r282
*** at Fri Sep 10 18:52:17 2021

   => Loading Basis Set <=

    Name: JUN-CC-PVTZ
    Role: ORBITAL
    Keyword: BASIS
    atoms 1-2, 7, 13       entry C          line   217 file /home/r08543048/miniconda3/share/psi4/basis/jun-cc-pvtz.gbs 
    atoms 3, 14            entry O          line   305 file /home/r08543048/miniconda3/share/psi4/basis/jun-cc-pvtz.gbs 
    atoms 4, 15            entry N          line   261 file /home/r08543048/miniconda3/share/psi4/basis/jun-cc-pvtz.gbs 
    atoms 5-6, 8-12, 16-18 entry H          line    36 file /home/r08543048/miniconda3/share/psi4/basis/jun-cc-pvtz.gbs 


         ---------------------------------------------------------
                                   SCF
               by Justin Turney, Rob Parrish, Andy Simmonett
                          and Daniel G. A. Smith
                              RHF Reference
                        1 Threads,  20980 MiB Core
         ---------------------------------------------------------

  ==> Geometry <==

    Molecular point group: c1
    Full point group: C1

    Geometry (in Angstrom), charge = 0, multiplicity = 1:

       Center              X                  Y                   Z               Mass       
    ------------   -----------------  -----------------  -----------------  -----------------
         C            2.555056671215     0.598842664670     0.000302003278    12.000000000000
         C            1.058756671215     0.362499664670     0.000127003278    12.000000000000
         O            0.286068671215     1.329921664670     0.000100003278    15.994914619570
         N            0.625955671215    -0.910026335330    -0.000071996722    14.003074004430
         H           -0.377255328785    -1.106465335330    -0.000205996722     1.007825032230
         H            1.279543671215    -1.670478335330    -0.000134996722     1.007825032230
         C            3.452536671215    -0.630421335330    -0.000172996722    12.000000000000
         H            3.290596671215    -1.245093335330    -0.885940996722     1.007825032230
         H            4.499375671215    -0.331884335330    -0.000077996722     1.007825032230
         H            3.290643671215    -1.245754335330     0.885146003278     1.007825032230
         H            2.756841671215     1.224965664670    -0.869724996722     1.007825032230
         H            2.756744671215     1.224206664670     0.870901003278     1.007825032230
         C           -2.965877328785    -0.325054335330    -0.000079996722    12.000000000000
         O           -2.237840328785    -1.318392335330    -0.000349996722    15.994914619570
         N           -2.536403328785     0.944549664670     0.000179003278    14.003074004430
         H           -3.208085328785     1.690341664670     0.000345003278     1.007825032230
         H           -1.532056328785     1.152563664670     0.000165003278     1.007825032230
         H           -4.059513328785    -0.424913335330    -0.000086996722     1.007825032230

  Running in c1 symmetry.

  Rotational constants: A =      0.15365  B =      0.02766  C =      0.02365 [cm^-1]
  Rotational constants: A =   4606.32866  B =    829.35231  C =    708.94054 [MHz]
  Nuclear repulsion =  373.240776396454976

  Charge       = 0
  Multiplicity = 1
  Electrons    = 64
  Nalpha       = 32
  Nbeta        = 32

  ==> Algorithm <==

  SCF Algorithm Type is DF.
  DIIS enabled.
  MOM disabled.
  Fractional occupation disabled.
  Guess Type is SAD.
  Energy threshold   = 1.00e-08
  Density threshold  = 1.00e-08
  Integral threshold = 0.00e+00

  ==> Primary Basis <==

  Basis Set: JUN-CC-PVTZ
    Blend: JUN-CC-PVTZ
    Number of shells: 164
    Number of basis function: 452
    Number of Cartesian functions: 510
    Spherical Harmonics?: true
    Max angular momentum: 3

   => Loading Basis Set <=

    Name: (JUN-CC-PVTZ AUX)
    Role: JKFIT
    Keyword: DF_BASIS_SCF
    atoms 1-2, 7, 13       entry C          line   152 file /home/r08543048/miniconda3/share/psi4/basis/jun-cc-pvtz-jkfit.gbs 
    atoms 3, 14            entry O          line   272 file /home/r08543048/miniconda3/share/psi4/basis/jun-cc-pvtz-jkfit.gbs 
    atoms 4, 15            entry N          line   212 file /home/r08543048/miniconda3/share/psi4/basis/jun-cc-pvtz-jkfit.gbs 
    atoms 5-6, 8-12, 16-18 entry H          line    70 file /home/r08543048/miniconda3/share/psi4/basis/jun-cc-pvtz-jkfit.gbs 

  ==> Pre-Iterations <==

   -------------------------------------------------------
    Irrep   Nso     Nmo     Nalpha   Nbeta   Ndocc  Nsocc
   -------------------------------------------------------
     A        452     452       0       0       0       0
   -------------------------------------------------------
    Total     452     452      32      32      32       0
   -------------------------------------------------------

  ==> Integral Setup <==

  ==> DiskDFJK: Density-Fitted J/K Matrices <==

    J tasked:                  Yes
    K tasked:                  Yes
    wK tasked:                  No
    OpenMP threads:              1
    Integrals threads:           1
    Memory [MiB]:            15735
    Algorithm:                Core
    Integral Cache:           SAVE
    Schwarz Cutoff:          1E-12
    Fitting Condition:       1E-10

   => Auxiliary Basis Set <=

  Basis Set: (JUN-CC-PVTZ AUX)
    Blend: JUN-CC-PVTZ-JKFIT
    Number of shells: 332
    Number of basis function: 1060
    Number of Cartesian functions: 1278
    Spherical Harmonics?: true
    Max angular momentum: 4

  Minimum eigenvalue in the overlap matrix is 3.6782087963E-05.
  Using Symmetric Orthogonalization.

  SCF Guess: Superposition of Atomic Densities via on-the-fly atomic UHF.

  ==> Iterations <==

                           Total Energy        Delta E     RMS |[F,P]|

   @DF-RHF iter SAD:  -414.76897037998066   -4.14769e+02   0.00000e+00 
   @DF-RHF iter   1:  -415.82686484312251   -1.05789e+00   1.77858e-03 DIIS
   @DF-RHF iter   2:  -416.05228484325238   -2.25420e-01   1.01171e-03 DIIS
   @DF-RHF iter   3:  -416.12330911957650   -7.10243e-02   1.85211e-04 DIIS
   @DF-RHF iter   4:  -416.12722281246545   -3.91369e-03   7.96145e-05 DIIS
   @DF-RHF iter   5:  -416.12798381283517   -7.61000e-04   1.48330e-05 DIIS
   @DF-RHF iter   6:  -416.12803717733959   -5.33645e-05   6.78943e-06 DIIS
   @DF-RHF iter   7:  -416.12804634815723   -9.17082e-06   2.49584e-06 DIIS
   @DF-RHF iter   8:  -416.12804854984569   -2.20169e-06   9.27741e-07 DIIS
   @DF-RHF iter   9:  -416.12804885064071   -3.00795e-07   3.37308e-07 DIIS
   @DF-RHF iter  10:  -416.12804887453456   -2.38938e-08   1.39234e-07 DIIS
   @DF-RHF iter  11:  -416.12804887822574   -3.69118e-09   3.70841e-08 DIIS
   @DF-RHF iter  12:  -416.12804887852752   -3.01782e-10   1.12964e-08 DIIS
   @DF-RHF iter  13:  -416.12804887855248   -2.49543e-11   3.24674e-09 DIIS
  Energy and wave function converged.


  ==> Post-Iterations <==

    Orbital Energies [Eh]
    ---------------------

    Doubly Occupied:                                                      

       1A    -20.524712     2A    -20.513671     3A    -15.575348  
       4A    -15.570963     5A    -11.352068     6A    -11.350957  
       7A    -11.240176     8A    -11.233306     9A     -1.377421  
      10A     -1.371283    11A     -1.210611    12A     -1.203874  
      13A     -1.056411    14A     -0.902739    15A     -0.842455  
      16A     -0.785877    17A     -0.741354    18A     -0.726334  
      19A     -0.686031    20A     -0.642963    21A     -0.634384  
      22A     -0.605908    23A     -0.584097    24A     -0.565831  
      25A     -0.557021    26A     -0.554924    27A     -0.522137  
      28A     -0.499608    29A     -0.443027    30A     -0.416596  
      31A     -0.414438    32A     -0.403563  

    Virtual:                                                              

      33A      0.045521    34A      0.057337    35A      0.060255  
      36A      0.072092    37A      0.074455    38A      0.076060  
      39A      0.087174    40A      0.100741    41A      0.104034  
      42A      0.107561    43A      0.115114    44A      0.119619  
      45A      0.133012    46A      0.149705    47A      0.156283  
      48A      0.159915    49A      0.164314    50A      0.174752  
      51A      0.185489    52A      0.196169    53A      0.203417  
      54A      0.205371    55A      0.212578    56A      0.223120  
      57A      0.237757    58A      0.243920    59A      0.245677  
      60A      0.254416    61A      0.260157    62A      0.262319  
      63A      0.268320    64A      0.278009    65A      0.291759  
      66A      0.296115    67A      0.297832    68A      0.302434  
      69A      0.308107    70A      0.321247    71A      0.334043  
      72A      0.334246    73A      0.341731    74A      0.346974  
      75A      0.355548    76A      0.361749    77A      0.365624  
      78A      0.381884    79A      0.394805    80A      0.402152  
      81A      0.417530    82A      0.419600    83A      0.430719  
      84A      0.434567    85A      0.442485    86A      0.461008  
      87A      0.465366    88A      0.476943    89A      0.477796  
      90A      0.495505    91A      0.507391    92A      0.513176  
      93A      0.519489    94A      0.521526    95A      0.526318  
      96A      0.539568    97A      0.554084    98A      0.556419  
      99A      0.578796   100A      0.582808   101A      0.594139  
     102A      0.600939   103A      0.608168   104A      0.617286  
     105A      0.619948   106A      0.629325   107A      0.632305  
     108A      0.640678   109A      0.641993   110A      0.648521  
     111A      0.671087   112A      0.686603   113A      0.703541  
     114A      0.711812   115A      0.715500   116A      0.741416  
     117A      0.762934   118A      0.763711   119A      0.775599  
     120A      0.779769   121A      0.785903   122A      0.796881  
     123A      0.807742   124A      0.823557   125A      0.844776  
     126A      0.849698   127A      0.866294   128A      0.877631  
     129A      0.879042   130A      0.891199   131A      0.892307  
     132A      0.903403   133A      0.912470   134A      0.918893  
     135A      0.935878   136A      0.949240   137A      0.956683  
     138A      0.964247   139A      0.965168   140A      0.978977  
     141A      1.016871   142A      1.022024   143A      1.047449  
     144A      1.047487   145A      1.057240   146A      1.067810  
     147A      1.081280   148A      1.089133   149A      1.093385  
     150A      1.100172   151A      1.137503   152A      1.140949  
     153A      1.146565   154A      1.157806   155A      1.177404  
     156A      1.192136   157A      1.214098   158A      1.216520  
     159A      1.231707   160A      1.273437   161A      1.280823  
     162A      1.283667   163A      1.293206   164A      1.319730  
     165A      1.321768   166A      1.330280   167A      1.335316  
     168A      1.338843   169A      1.368172   170A      1.372620  
     171A      1.377856   172A      1.390126   173A      1.399922  
     174A      1.406645   175A      1.408613   176A      1.429192  
     177A      1.438208   178A      1.455285   179A      1.455660  
     180A      1.469603   181A      1.477987   182A      1.480728  
     183A      1.504590   184A      1.512869   185A      1.525620  
     186A      1.542340   187A      1.555255   188A      1.561997  
     189A      1.586448   190A      1.588233   191A      1.608689  
     192A      1.632769   193A      1.661560   194A      1.664621  
     195A      1.694329   196A      1.709538   197A      1.711169  
     198A      1.753134   199A      1.767870   200A      1.788966  
     201A      1.789656   202A      1.793369   203A      1.823141  
     204A      1.834314   205A      1.843642   206A      1.894376  
     207A      1.913823   208A      1.916975   209A      1.928817  
     210A      1.980650   211A      1.983478   212A      2.006086  
     213A      2.022327   214A      2.078983   215A      2.102702  
     216A      2.157617   217A      2.178666   218A      2.237498  
     219A      2.282973   220A      2.294875   221A      2.321238  
     222A      2.328063   223A      2.359533   224A      2.392602  
     225A      2.401439   226A      2.410867   227A      2.468146  
     228A      2.477065   229A      2.543940   230A      2.627607  
     231A      2.635782   232A      2.679120   233A      2.722747  
     234A      2.748673   235A      2.780462   236A      2.795868  
     237A      2.812650   238A      2.858690   239A      2.868131  
     240A      2.902884   241A      2.937229   242A      2.959672  
     243A      3.000313   244A      3.015098   245A      3.041111  
     246A      3.052146   247A      3.076201   248A      3.099033  
     249A      3.117913   250A      3.121235   251A      3.151536  
     252A      3.153946   253A      3.181404   254A      3.205505  
     255A      3.218520   256A      3.232990   257A      3.235670  
     258A      3.271215   259A      3.323790   260A      3.332247  
     261A      3.343112   262A      3.371863   263A      3.377251  
     264A      3.390572   265A      3.410502   266A      3.423724  
     267A      3.433654   268A      3.443988   269A      3.462860  
     270A      3.472994   271A      3.474779   272A      3.488944  
     273A      3.492592   274A      3.499657   275A      3.513613  
     276A      3.523271   277A      3.526184   278A      3.552629  
     279A      3.556042   280A      3.566384   281A      3.575034  
     282A      3.579399   283A      3.587471   284A      3.596949  
     285A      3.602098   286A      3.610072   287A      3.639951  
     288A      3.656651   289A      3.678694   290A      3.689946  
     291A      3.701631   292A      3.707584   293A      3.735277  
     294A      3.748480   295A      3.767309   296A      3.804602  
     297A      3.838094   298A      3.843591   299A      3.872004  
     300A      3.878510   301A      3.891803   302A      3.898065  
     303A      3.915435   304A      3.930524   305A      3.974684  
     306A      3.975977   307A      3.995534   308A      3.999594  
     309A      4.004080   310A      4.043142   311A      4.072944  
     312A      4.086869   313A      4.126949   314A      4.147544  
     315A      4.160041   316A      4.180511   317A      4.195067  
     318A      4.204553   319A      4.248644   320A      4.249543  
     321A      4.252192   322A      4.261439   323A      4.270446  
     324A      4.276676   325A      4.308051   326A      4.315729  
     327A      4.327451   328A      4.355721   329A      4.364697  
     330A      4.395213   331A      4.409091   332A      4.409253  
     333A      4.415431   334A      4.445149   335A      4.464418  
     336A      4.481630   337A      4.498971   338A      4.501007  
     339A      4.526329   340A      4.531740   341A      4.550233  
     342A      4.565805   343A      4.570833   344A      4.587636  
     345A      4.612029   346A      4.625325   347A      4.645947  
     348A      4.659578   349A      4.673340   350A      4.683457  
     351A      4.716795   352A      4.728431   353A      4.730791  
     354A      4.744787   355A      4.778902   356A      4.781189  
     357A      4.782321   358A      4.845805   359A      4.876026  
     360A      4.896396   361A      4.923965   362A      4.926929  
     363A      4.976695   364A      5.008430   365A      5.037131  
     366A      5.068856   367A      5.115400   368A      5.187598  
     369A      5.206950   370A      5.210370   371A      5.212185  
     372A      5.223361   373A      5.244826   374A      5.255374  
     375A      5.264778   376A      5.280375   377A      5.285574  
     378A      5.328535   379A      5.350606   380A      5.350887  
     381A      5.386728   382A      5.424983   383A      5.450634  
     384A      5.489601   385A      5.513736   386A      5.532288  
     387A      5.544249   388A      5.544299   389A      5.597328  
     390A      5.639333   391A      5.642999   392A      5.728389  
     393A      5.729228   394A      5.740730   395A      5.744560  
     396A      5.761571   397A      5.772358   398A      5.811138  
     399A      5.869062   400A      5.893377   401A      5.895229  
     402A      5.939521   403A      5.966088   404A      5.967185  
     405A      6.004235   406A      6.010763   407A      6.030270  
     408A      6.037893   409A      6.054759   410A      6.101170  
     411A      6.136789   412A      6.161318   413A      6.236370  
     414A      6.237459   415A      6.251588   416A      6.377011  
     417A      6.418478   418A      6.476049   419A      6.535268  
     420A      6.538308   421A      6.578290   422A      6.632540  
     423A      6.693565   424A      6.733061   425A      6.760729  
     426A      6.766723   427A      6.854075   428A      7.020926  
     429A      7.195862   430A      7.226397   431A      7.244993  
     432A      7.279381   433A      7.304205   434A      7.374161  
     435A      7.413629   436A      7.433402   437A      7.485512  
     438A      7.497679   439A      7.581927   440A      7.636172  
     441A      7.768925   442A      7.791855   443A      7.890289  
     444A      7.926933   445A     12.427021   446A     12.679183  
     447A     13.808711   448A     14.200507   449A     14.347006  
     450A     14.725440   451A     15.951869   452A     16.129370  

    Final Occupation by Irrep:
              A 
    DOCC [    32 ]

  @DF-RHF Final Energy:  -416.12804887855248

   => Energetics <=

    Nuclear Repulsion Energy =            373.2407763964549758
    One-Electron Energy =               -1308.5174790104779277
    Two-Electron Energy =                 519.1486537354704751
    Total Energy =                       -416.1280488785524767

Computation Completed


Properties will be evaluated at   0.000000,   0.000000,   0.000000 [a0]

Properties computed using the SCF density matrix

  Nuclear Dipole Moment: [e a0]
     X:     8.1492      Y:    -0.6868      Z:     0.0004

  Electronic Dipole Moment: [e a0]
     X:    -7.7708      Y:     0.8028      Z:    -0.0001

  Dipole Moment: [e a0]
     X:     0.3783      Y:     0.1160      Z:     0.0003     Total:     0.3957

  Dipole Moment: [D]
     X:     0.9617      Y:     0.2949      Z:     0.0007     Total:     1.0059


*** tstop() called on r282 at Fri Sep 10 18:53:03 2021
Module time:
	user time   =      45.30 seconds =       0.76 minutes
	system time =       1.19 seconds =       0.02 minutes
	total time  =         46 seconds =       0.77 minutes
Total time:
	user time   =      45.30 seconds =       0.76 minutes
	system time =       1.19 seconds =       0.02 minutes
	total time  =         46 seconds =       0.77 minutes

  //>>>>>>>>>>>>>>>>>>>>>>>>>>>>>>>>>>>//
  //            Monomer A HF           //
  //<<<<<<<<<<<<<<<<<<<<<<<<<<<<<<<<<<<//


*** tstart() called on r282
*** at Fri Sep 10 18:53:03 2021

   => Loading Basis Set <=

    Name: JUN-CC-PVTZ
    Role: ORBITAL
    Keyword: BASIS
    atoms 1-2, 7, 13       entry C          line   217 file /home/r08543048/miniconda3/share/psi4/basis/jun-cc-pvtz.gbs 
    atoms 3, 14            entry O          line   305 file /home/r08543048/miniconda3/share/psi4/basis/jun-cc-pvtz.gbs 
    atoms 4, 15            entry N          line   261 file /home/r08543048/miniconda3/share/psi4/basis/jun-cc-pvtz.gbs 
    atoms 5-6, 8-12, 16-18 entry H          line    36 file /home/r08543048/miniconda3/share/psi4/basis/jun-cc-pvtz.gbs 


         ---------------------------------------------------------
                                   SCF
               by Justin Turney, Rob Parrish, Andy Simmonett
                          and Daniel G. A. Smith
                              RHF Reference
                        1 Threads,  20980 MiB Core
         ---------------------------------------------------------

  ==> Geometry <==

    Molecular point group: c1
    Full point group: C1

    Geometry (in Angstrom), charge = 0, multiplicity = 1:

       Center              X                  Y                   Z               Mass       
    ------------   -----------------  -----------------  -----------------  -----------------
         C            2.555056671215     0.598842664670     0.000302003278    12.000000000000
         C            1.058756671215     0.362499664670     0.000127003278    12.000000000000
         O            0.286068671215     1.329921664670     0.000100003278    15.994914619570
         N            0.625955671215    -0.910026335330    -0.000071996722    14.003074004430
         H           -0.377255328785    -1.106465335330    -0.000205996722     1.007825032230
         H            1.279543671215    -1.670478335330    -0.000134996722     1.007825032230
         C            3.452536671215    -0.630421335330    -0.000172996722    12.000000000000
         H            3.290596671215    -1.245093335330    -0.885940996722     1.007825032230
         H            4.499375671215    -0.331884335330    -0.000077996722     1.007825032230
         H            3.290643671215    -1.245754335330     0.885146003278     1.007825032230
         H            2.756841671215     1.224965664670    -0.869724996722     1.007825032230
         H            2.756744671215     1.224206664670     0.870901003278     1.007825032230
      Gh(C)          -2.965877328785    -0.325054335330    -0.000079996722    12.000000000000
      Gh(O)          -2.237840328785    -1.318392335330    -0.000349996722    15.994914619570
      Gh(N)          -2.536403328785     0.944549664670     0.000179003278    14.003074004430
      Gh(H)          -3.208085328785     1.690341664670     0.000345003278     1.007825032230
      Gh(H)          -1.532056328785     1.152563664670     0.000165003278     1.007825032230
      Gh(H)          -4.059513328785    -0.424913335330    -0.000086996722     1.007825032230

  Running in c1 symmetry.

  Rotational constants: A =      0.15365  B =      0.02766  C =      0.02365 [cm^-1]
  Rotational constants: A =   4606.32866  B =    829.35231  C =    708.94054 [MHz]
  Nuclear repulsion =  179.168351785093904

  Charge       = 0
  Multiplicity = 1
  Electrons    = 40
  Nalpha       = 20
  Nbeta        = 20

  ==> Algorithm <==

  SCF Algorithm Type is DF.
  DIIS enabled.
  MOM disabled.
  Fractional occupation disabled.
  Guess Type is SAD.
  Energy threshold   = 1.00e-08
  Density threshold  = 1.00e-08
  Integral threshold = 0.00e+00

  ==> Primary Basis <==

  Basis Set: JUN-CC-PVTZ
    Blend: JUN-CC-PVTZ
    Number of shells: 164
    Number of basis function: 452
    Number of Cartesian functions: 510
    Spherical Harmonics?: true
    Max angular momentum: 3

   => Loading Basis Set <=

    Name: (JUN-CC-PVTZ AUX)
    Role: JKFIT
    Keyword: DF_BASIS_SCF
    atoms 1-2, 7, 13       entry C          line   152 file /home/r08543048/miniconda3/share/psi4/basis/jun-cc-pvtz-jkfit.gbs 
    atoms 3, 14            entry O          line   272 file /home/r08543048/miniconda3/share/psi4/basis/jun-cc-pvtz-jkfit.gbs 
    atoms 4, 15            entry N          line   212 file /home/r08543048/miniconda3/share/psi4/basis/jun-cc-pvtz-jkfit.gbs 
    atoms 5-6, 8-12, 16-18 entry H          line    70 file /home/r08543048/miniconda3/share/psi4/basis/jun-cc-pvtz-jkfit.gbs 

  ==> Pre-Iterations <==

   -------------------------------------------------------
    Irrep   Nso     Nmo     Nalpha   Nbeta   Ndocc  Nsocc
   -------------------------------------------------------
     A        452     452       0       0       0       0
   -------------------------------------------------------
    Total     452     452      20      20      20       0
   -------------------------------------------------------

  ==> Integral Setup <==

  ==> DiskDFJK: Density-Fitted J/K Matrices <==

    J tasked:                  Yes
    K tasked:                  Yes
    wK tasked:                  No
    OpenMP threads:              1
    Integrals threads:           1
    Memory [MiB]:            15735
    Algorithm:                Core
    Integral Cache:           LOAD
    Schwarz Cutoff:          1E-12
    Fitting Condition:       1E-10

   => Auxiliary Basis Set <=

  Basis Set: (JUN-CC-PVTZ AUX)
    Blend: JUN-CC-PVTZ-JKFIT
    Number of shells: 332
    Number of basis function: 1060
    Number of Cartesian functions: 1278
    Spherical Harmonics?: true
    Max angular momentum: 4

  Minimum eigenvalue in the overlap matrix is 3.6782087963E-05.
  Using Symmetric Orthogonalization.

  SCF Guess: Superposition of Atomic Densities via on-the-fly atomic UHF.

  ==> Iterations <==

                           Total Energy        Delta E     RMS |[F,P]|

   @DF-RHF iter SAD:  -246.33478383976612   -2.46335e+02   0.00000e+00 
   @DF-RHF iter   1:  -246.89285766920975   -5.58074e-01   1.43881e-03 DIIS
   @DF-RHF iter   2:  -247.05442630694307   -1.61569e-01   8.24172e-04 DIIS
   @DF-RHF iter   3:  -247.10230537642738   -4.78791e-02   1.59185e-04 DIIS
   @DF-RHF iter   4:  -247.10525349299164   -2.94812e-03   7.09813e-05 DIIS
   @DF-RHF iter   5:  -247.10588583174945   -6.32339e-04   1.20255e-05 DIIS
   @DF-RHF iter   6:  -247.10592396061890   -3.81289e-05   4.95870e-06 DIIS
   @DF-RHF iter   7:  -247.10592901748197   -5.05686e-06   2.06728e-06 DIIS
   @DF-RHF iter   8:  -247.10593025351801   -1.23604e-06   7.65977e-07 DIIS
   @DF-RHF iter   9:  -247.10593045872650   -2.05208e-07   1.70570e-07 DIIS
   @DF-RHF iter  10:  -247.10593046863812   -9.91162e-09   4.61758e-08 DIIS
   @DF-RHF iter  11:  -247.10593046915378   -5.15655e-10   1.36002e-08 DIIS
   @DF-RHF iter  12:  -247.10593046919726   -4.34852e-11   3.94348e-09 DIIS
  Energy and wave function converged.


  ==> Post-Iterations <==

    Orbital Energies [Eh]
    ---------------------

    Doubly Occupied:                                                      

       1A    -20.506733     2A    -15.590998     3A    -11.348574  
       4A    -11.241366     5A    -11.236614     6A     -1.363274  
       7A     -1.216519     8A     -1.059069     9A     -0.903812  
      10A     -0.795578    11A     -0.735696    12A     -0.645397  
      13A     -0.644583    14A     -0.594767    15A     -0.558616  
      16A     -0.552631    17A     -0.524629    18A     -0.502665  
      19A     -0.414088    20A     -0.409116  

    Virtual:                                                              

      21A      0.037329    22A      0.044373    23A      0.059287  
      24A      0.067409    25A      0.068002    26A      0.074350  
      27A      0.081289    28A      0.093955    29A      0.104822  
      30A      0.107102    31A      0.113219    32A      0.121385  
      33A      0.133746    34A      0.136983    35A      0.148741  
      36A      0.151623    37A      0.162164    38A      0.168841  
      39A      0.179061    40A      0.182651    41A      0.193844  
      42A      0.198983    43A      0.211352    44A      0.211640  
      45A      0.215923    46A      0.222961    47A      0.239439  
      48A      0.244148    49A      0.248951    50A      0.254976  
      51A      0.273535    52A      0.286495    53A      0.294872  
      54A      0.295256    55A      0.299582    56A      0.302901  
      57A      0.316169    58A      0.325111    59A      0.333878  
      60A      0.342423    61A      0.347153    62A      0.353198  
      63A      0.360860    64A      0.369730    65A      0.373840  
      66A      0.382617    67A      0.385581    68A      0.390906  
      69A      0.401664    70A      0.405999    71A      0.431905  
      72A      0.434157    73A      0.439041    74A      0.453532  
      75A      0.462306    76A      0.477367    77A      0.478976  
      78A      0.483641    79A      0.494948    80A      0.502678  
      81A      0.505632    82A      0.518360    83A      0.526922  
      84A      0.527917    85A      0.540016    86A      0.556794  
      87A      0.561575    88A      0.568827    89A      0.601437  
      90A      0.608380    91A      0.609594    92A      0.620133  
      93A      0.621095    94A      0.626530    95A      0.654731  
      96A      0.657575    97A      0.669760    98A      0.682198  
      99A      0.698877   100A      0.716908   101A      0.717503  
     102A      0.753301   103A      0.756662   104A      0.760487  
     105A      0.774797   106A      0.775713   107A      0.782327  
     108A      0.786081   109A      0.797785   110A      0.803848  
     111A      0.810030   112A      0.828853   113A      0.842421  
     114A      0.844515   115A      0.860809   116A      0.869145  
     117A      0.877054   118A      0.901138   119A      0.909182  
     120A      0.911205   121A      0.921101   122A      0.929941  
     123A      0.939544   124A      0.952464   125A      0.957533  
     126A      0.979629   127A      0.987753   128A      0.993480  
     129A      1.017960   130A      1.019592   131A      1.029903  
     132A      1.040460   133A      1.043602   134A      1.067576  
     135A      1.076734   136A      1.078470   137A      1.121299  
     138A      1.126238   139A      1.134251   140A      1.147388  
     141A      1.169798   142A      1.179697   143A      1.201571  
     144A      1.218059   145A      1.224134   146A      1.232775  
     147A      1.238376   148A      1.282446   149A      1.301907  
     150A      1.310867   151A      1.325715   152A      1.326500  
     153A      1.332658   154A      1.361510   155A      1.361949  
     156A      1.382332   157A      1.389002   158A      1.411527  
     159A      1.426506   160A      1.433607   161A      1.441504  
     162A      1.443586   163A      1.445424   164A      1.455021  
     165A      1.488542   166A      1.495326   167A      1.502127  
     168A      1.507415   169A      1.512079   170A      1.541332  
     171A      1.554737   172A      1.565795   173A      1.569282  
     174A      1.584544   175A      1.597878   176A      1.619779  
     177A      1.639610   178A      1.648865   179A      1.662327  
     180A      1.674998   181A      1.697983   182A      1.706174  
     183A      1.734881   184A      1.737463   185A      1.743066  
     186A      1.768703   187A      1.787683   188A      1.804419  
     189A      1.818405   190A      1.833395   191A      1.853049  
     192A      1.885184   193A      1.890355   194A      1.906786  
     195A      1.937518   196A      1.942034   197A      1.949831  
     198A      1.989663   199A      2.021087   200A      2.034638  
     201A      2.059204   202A      2.063070   203A      2.127201  
     204A      2.202439   205A      2.225166   206A      2.250169  
     207A      2.253037   208A      2.321859   209A      2.338605  
     210A      2.368320   211A      2.429908   212A      2.432572  
     213A      2.479529   214A      2.513431   215A      2.538833  
     216A      2.568195   217A      2.636714   218A      2.663450  
     219A      2.679367   220A      2.721842   221A      2.766604  
     222A      2.776054   223A      2.786499   224A      2.795782  
     225A      2.812700   226A      2.828391   227A      2.857828  
     228A      2.869036   229A      2.871630   230A      2.929466  
     231A      2.954763   232A      2.976330   233A      2.979563  
     234A      3.024150   235A      3.041490   236A      3.065052  
     237A      3.088859   238A      3.097556   239A      3.115587  
     240A      3.136380   241A      3.158433   242A      3.192721  
     243A      3.227566   244A      3.230771   245A      3.232292  
     246A      3.269649   247A      3.320514   248A      3.340680  
     249A      3.349432   250A      3.371595   251A      3.377103  
     252A      3.403252   253A      3.424000   254A      3.435648  
     255A      3.460093   256A      3.464620   257A      3.469067  
     258A      3.477556   259A      3.511658   260A      3.516308  
     261A      3.545342   262A      3.551955   263A      3.557653  
     264A      3.573312   265A      3.581028   266A      3.589762  
     267A      3.600057   268A      3.649039   269A      3.654085  
     270A      3.679584   271A      3.683468   272A      3.698169  
     273A      3.705710   274A      3.724740   275A      3.737979  
     276A      3.761951   277A      3.794498   278A      3.840437  
     279A      3.868066   280A      3.875209   281A      3.883714  
     282A      3.901341   283A      3.911417   284A      3.962601  
     285A      3.984155   286A      3.994055   287A      3.997570  
     288A      4.022501   289A      4.037976   290A      4.041302  
     291A      4.063603   292A      4.074321   293A      4.121746  
     294A      4.171212   295A      4.185619   296A      4.186453  
     297A      4.207042   298A      4.244501   299A      4.246178  
     300A      4.255735   301A      4.280821   302A      4.301378  
     303A      4.311905   304A      4.322258   305A      4.356100  
     306A      4.358516   307A      4.390381   308A      4.392724  
     309A      4.406953   310A      4.407762   311A      4.433441  
     312A      4.441728   313A      4.454868   314A      4.481844  
     315A      4.488858   316A      4.495031   317A      4.505323  
     318A      4.526227   319A      4.546967   320A      4.554915  
     321A      4.576922   322A      4.610199   323A      4.624051  
     324A      4.628222   325A      4.639411   326A      4.649907  
     327A      4.678794   328A      4.693815   329A      4.712785  
     330A      4.735128   331A      4.741535   332A      4.750008  
     333A      4.762321   334A      4.778197   335A      4.791490  
     336A      4.793811   337A      4.837988   338A      4.853160  
     339A      4.889580   340A      4.896355   341A      4.907929  
     342A      4.915171   343A      4.920502   344A      4.948618  
     345A      4.973608   346A      4.976350   347A      5.026187  
     348A      5.073572   349A      5.074544   350A      5.090934  
     351A      5.110825   352A      5.142657   353A      5.172421  
     354A      5.198872   355A      5.205115   356A      5.213605  
     357A      5.242624   358A      5.256042   359A      5.272214  
     360A      5.342594   361A      5.343953   362A      5.369161  
     363A      5.414102   364A      5.447074   365A      5.489441  
     366A      5.507466   367A      5.542842   368A      5.562836  
     369A      5.594244   370A      5.637755   371A      5.644102  
     372A      5.699666   373A      5.735238   374A      5.742766  
     375A      5.763304   376A      5.765248   377A      5.834279  
     378A      5.859855   379A      5.894368   380A      5.894421  
     381A      5.902818   382A      5.938466   383A      5.958949  
     384A      5.966939   385A      6.031617   386A      6.074245  
     387A      6.074278   388A      6.090371   389A      6.123015  
     390A      6.173798   391A      6.220443   392A      6.233799  
     393A      6.301945   394A      6.339639   395A      6.392745  
     396A      6.447678   397A      6.472041   398A      6.528749  
     399A      6.529201   400A      6.548081   401A      6.549001  
     402A      6.584197   403A      6.598195   404A      6.642617  
     405A      6.724118   406A      6.775167   407A      6.788338  
     408A      6.888164   409A      6.931991   410A      6.948603  
     411A      7.123020   412A      7.263166   413A      7.292385  
     414A      7.322506   415A      7.341827   416A      7.393049  
     417A      7.454371   418A      7.469872   419A      7.506861  
     420A      7.548182   421A      7.594493   422A      7.774904  
     423A      7.795510   424A      7.828186   425A      7.868811  
     426A      8.138208   427A      8.360072   428A      8.431354  
     429A      8.881814   430A      9.054915   431A      9.107271  
     432A      9.310965   433A      9.463557   434A      9.762450  
     435A      9.855086   436A      9.886000   437A     10.145941  
     438A     10.547343   439A     10.867722   440A     11.390711  
     441A     11.519967   442A     11.689988   443A     11.927048  
     444A     12.458085   445A     13.715257   446A     13.822345  
     447A     14.349252   448A     14.717817   449A     16.107523  
     450A     44.732566   451A     55.677147   452A     60.185091  

    Final Occupation by Irrep:
              A 
    DOCC [    20 ]

  @DF-RHF Final Energy:  -247.10593046919726

   => Energetics <=

    Nuclear Repulsion Energy =            179.1683517850939040
    One-Electron Energy =                -690.8591152566350502
    Two-Electron Energy =                 264.5848330023438848
    Total Energy =                       -247.1059304691972329

Computation Completed


Properties will be evaluated at   0.000000,   0.000000,   0.000000 [a0]

Properties computed using the SCF density matrix

  Nuclear Dipole Moment: [e a0]
     X:   125.7893      Y:     5.8661      Z:     0.0034

  Electronic Dipole Moment: [e a0]
     X:  -124.8260      Y:    -7.3829      Z:    -0.0035

  Dipole Moment: [e a0]
     X:     0.9633      Y:    -1.5168      Z:    -0.0001     Total:     1.7968

  Dipole Moment: [D]
     X:     2.4486      Y:    -3.8552      Z:    -0.0002     Total:     4.5671


*** tstop() called on r282 at Fri Sep 10 18:53:31 2021
Module time:
	user time   =      27.19 seconds =       0.45 minutes
	system time =       0.53 seconds =       0.01 minutes
	total time  =         28 seconds =       0.47 minutes
Total time:
	user time   =      72.49 seconds =       1.21 minutes
	system time =       1.72 seconds =       0.03 minutes
	total time  =         74 seconds =       1.23 minutes

  //>>>>>>>>>>>>>>>>>>>>>>>>>>>>>>>>>>>//
  //            Monomer B HF           //
  //<<<<<<<<<<<<<<<<<<<<<<<<<<<<<<<<<<<//


*** tstart() called on r282
*** at Fri Sep 10 18:53:31 2021

   => Loading Basis Set <=

    Name: JUN-CC-PVTZ
    Role: ORBITAL
    Keyword: BASIS
    atoms 1-2, 7, 13       entry C          line   217 file /home/r08543048/miniconda3/share/psi4/basis/jun-cc-pvtz.gbs 
    atoms 3, 14            entry O          line   305 file /home/r08543048/miniconda3/share/psi4/basis/jun-cc-pvtz.gbs 
    atoms 4, 15            entry N          line   261 file /home/r08543048/miniconda3/share/psi4/basis/jun-cc-pvtz.gbs 
    atoms 5-6, 8-12, 16-18 entry H          line    36 file /home/r08543048/miniconda3/share/psi4/basis/jun-cc-pvtz.gbs 


         ---------------------------------------------------------
                                   SCF
               by Justin Turney, Rob Parrish, Andy Simmonett
                          and Daniel G. A. Smith
                              RHF Reference
                        1 Threads,  20980 MiB Core
         ---------------------------------------------------------

  ==> Geometry <==

    Molecular point group: c1
    Full point group: C1

    Geometry (in Angstrom), charge = 0, multiplicity = 1:

       Center              X                  Y                   Z               Mass       
    ------------   -----------------  -----------------  -----------------  -----------------
      Gh(C)           2.555056671215     0.598842664670     0.000302003278    12.000000000000
      Gh(C)           1.058756671215     0.362499664670     0.000127003278    12.000000000000
      Gh(O)           0.286068671215     1.329921664670     0.000100003278    15.994914619570
      Gh(N)           0.625955671215    -0.910026335330    -0.000071996722    14.003074004430
      Gh(H)          -0.377255328785    -1.106465335330    -0.000205996722     1.007825032230
      Gh(H)           1.279543671215    -1.670478335330    -0.000134996722     1.007825032230
      Gh(C)           3.452536671215    -0.630421335330    -0.000172996722    12.000000000000
      Gh(H)           3.290596671215    -1.245093335330    -0.885940996722     1.007825032230
      Gh(H)           4.499375671215    -0.331884335330    -0.000077996722     1.007825032230
      Gh(H)           3.290643671215    -1.245754335330     0.885146003278     1.007825032230
      Gh(H)           2.756841671215     1.224965664670    -0.869724996722     1.007825032230
      Gh(H)           2.756744671215     1.224206664670     0.870901003278     1.007825032230
         C           -2.965877328785    -0.325054335330    -0.000079996722    12.000000000000
         O           -2.237840328785    -1.318392335330    -0.000349996722    15.994914619570
         N           -2.536403328785     0.944549664670     0.000179003278    14.003074004430
         H           -3.208085328785     1.690341664670     0.000345003278     1.007825032230
         H           -1.532056328785     1.152563664670     0.000165003278     1.007825032230
         H           -4.059513328785    -0.424913335330    -0.000086996722     1.007825032230

  Running in c1 symmetry.

  Rotational constants: A =      0.15365  B =      0.02766  C =      0.02365 [cm^-1]
  Rotational constants: A =   4606.32866  B =    829.35231  C =    708.94054 [MHz]
  Nuclear repulsion =   71.081546019496528

  Charge       = 0
  Multiplicity = 1
  Electrons    = 24
  Nalpha       = 12
  Nbeta        = 12

  ==> Algorithm <==

  SCF Algorithm Type is DF.
  DIIS enabled.
  MOM disabled.
  Fractional occupation disabled.
  Guess Type is SAD.
  Energy threshold   = 1.00e-08
  Density threshold  = 1.00e-08
  Integral threshold = 0.00e+00

  ==> Primary Basis <==

  Basis Set: JUN-CC-PVTZ
    Blend: JUN-CC-PVTZ
    Number of shells: 164
    Number of basis function: 452
    Number of Cartesian functions: 510
    Spherical Harmonics?: true
    Max angular momentum: 3

   => Loading Basis Set <=

    Name: (JUN-CC-PVTZ AUX)
    Role: JKFIT
    Keyword: DF_BASIS_SCF
    atoms 1-2, 7, 13       entry C          line   152 file /home/r08543048/miniconda3/share/psi4/basis/jun-cc-pvtz-jkfit.gbs 
    atoms 3, 14            entry O          line   272 file /home/r08543048/miniconda3/share/psi4/basis/jun-cc-pvtz-jkfit.gbs 
    atoms 4, 15            entry N          line   212 file /home/r08543048/miniconda3/share/psi4/basis/jun-cc-pvtz-jkfit.gbs 
    atoms 5-6, 8-12, 16-18 entry H          line    70 file /home/r08543048/miniconda3/share/psi4/basis/jun-cc-pvtz-jkfit.gbs 

  ==> Pre-Iterations <==

   -------------------------------------------------------
    Irrep   Nso     Nmo     Nalpha   Nbeta   Ndocc  Nsocc
   -------------------------------------------------------
     A        452     452       0       0       0       0
   -------------------------------------------------------
    Total     452     452      12      12      12       0
   -------------------------------------------------------

  ==> Integral Setup <==

  ==> DiskDFJK: Density-Fitted J/K Matrices <==

    J tasked:                  Yes
    K tasked:                  Yes
    wK tasked:                  No
    OpenMP threads:              1
    Integrals threads:           1
    Memory [MiB]:            15735
    Algorithm:                Core
    Integral Cache:           LOAD
    Schwarz Cutoff:          1E-12
    Fitting Condition:       1E-10

   => Auxiliary Basis Set <=

  Basis Set: (JUN-CC-PVTZ AUX)
    Blend: JUN-CC-PVTZ-JKFIT
    Number of shells: 332
    Number of basis function: 1060
    Number of Cartesian functions: 1278
    Spherical Harmonics?: true
    Max angular momentum: 4

  Minimum eigenvalue in the overlap matrix is 3.6782087963E-05.
  Using Symmetric Orthogonalization.

  SCF Guess: Superposition of Atomic Densities via on-the-fly atomic UHF.

  ==> Iterations <==

                           Total Energy        Delta E     RMS |[F,P]|

   @DF-RHF iter SAD:  -168.21187729938688   -1.68212e+02   0.00000e+00 
   @DF-RHF iter   1:  -168.87766477750213   -6.65787e-01   1.18564e-03 DIIS
   @DF-RHF iter   2:  -168.95383226777508   -7.61675e-02   8.30827e-04 DIIS
   @DF-RHF iter   3:  -169.00009873707847   -4.62665e-02   1.16689e-04 DIIS
   @DF-RHF iter   4:  -169.00157173005675   -1.47299e-03   4.97123e-05 DIIS
   @DF-RHF iter   5:  -169.00187547596394   -3.03746e-04   1.02394e-05 DIIS
   @DF-RHF iter   6:  -169.00190690599550   -3.14300e-05   4.88692e-06 DIIS
   @DF-RHF iter   7:  -169.00191349758902   -6.59159e-06   1.97620e-06 DIIS
   @DF-RHF iter   8:  -169.00191464549241   -1.14790e-06   6.01986e-07 DIIS
   @DF-RHF iter   9:  -169.00191475587218   -1.10380e-07   1.65944e-07 DIIS
   @DF-RHF iter  10:  -169.00191476457812   -8.70594e-09   4.00456e-08 DIIS
   @DF-RHF iter  11:  -169.00191476499199   -4.13877e-10   7.02014e-09 DIIS
  Energy and wave function converged.


  ==> Post-Iterations <==

    Orbital Energies [Eh]
    ---------------------

    Doubly Occupied:                                                      

       1A    -20.526344     2A    -15.603247     3A    -11.356906  
       4A     -1.374468     5A     -1.226768     6A     -0.854442  
       7A     -0.756077     8A     -0.676896     9A     -0.601434  
      10A     -0.571170    11A     -0.434837    12A     -0.421286  

    Virtual:                                                              

      13A      0.031610    14A      0.043127    15A      0.055081  
      16A      0.066505    17A      0.066946    18A      0.072597  
      19A      0.083645    20A      0.094010    21A      0.101171  
      22A      0.101819    23A      0.107980    24A      0.115140  
      25A      0.124947    26A      0.141708    27A      0.147360  
      28A      0.150111    29A      0.154825    30A      0.158500  
      31A      0.174473    32A      0.180354    33A      0.183192  
      34A      0.193918    35A      0.195238    36A      0.198636  
      37A      0.210177    38A      0.223619    39A      0.236165  
      40A      0.242812    41A      0.251102    42A      0.255956  
      43A      0.258820    44A      0.275051    45A      0.275778  
      46A      0.292212    47A      0.297214    48A      0.306125  
      49A      0.306599    50A      0.328137    51A      0.334460  
      52A      0.340345    53A      0.358589    54A      0.359096  
      55A      0.369050    56A      0.385801    57A      0.385949  
      58A      0.393009    59A      0.401501    60A      0.412049  
      61A      0.416595    62A      0.420710    63A      0.434821  
      64A      0.445076    65A      0.446086    66A      0.452974  
      67A      0.453214    68A      0.466269    69A      0.471809  
      70A      0.484525    71A      0.496670    72A      0.501845  
      73A      0.516302    74A      0.519359    75A      0.539652  
      76A      0.542867    77A      0.548215    78A      0.564813  
      79A      0.564838    80A      0.574662    81A      0.589263  
      82A      0.598324    83A      0.614970    84A      0.615896  
      85A      0.621506    86A      0.635245    87A      0.640068  
      88A      0.646337    89A      0.649706    90A      0.654126  
      91A      0.666923    92A      0.681162    93A      0.706121  
      94A      0.727143    95A      0.731981    96A      0.770716  
      97A      0.770934    98A      0.787763    99A      0.799635  
     100A      0.812742   101A      0.816812   102A      0.836450  
     103A      0.842100   104A      0.856503   105A      0.868370  
     106A      0.884428   107A      0.889878   108A      0.890147  
     109A      0.899639   110A      0.912781   111A      0.926845  
     112A      0.939755   113A      0.962303   114A      0.963423  
     115A      0.993336   116A      1.004107   117A      1.020424  
     118A      1.029755   119A      1.031541   120A      1.053401  
     121A      1.062344   122A      1.069722   123A      1.083192  
     124A      1.104582   125A      1.117352   126A      1.133732  
     127A      1.143863   128A      1.145703   129A      1.164105  
     130A      1.186413   131A      1.187650   132A      1.212400  
     133A      1.217453   134A      1.233323   135A      1.238111  
     136A      1.240644   137A      1.242969   138A      1.273871  
     139A      1.280004   140A      1.280092   141A      1.288733  
     142A      1.306221   143A      1.318428   144A      1.321295  
     145A      1.344457   146A      1.357507   147A      1.367361  
     148A      1.388789   149A      1.393930   150A      1.410624  
     151A      1.423803   152A      1.425322   153A      1.429701  
     154A      1.446233   155A      1.449932   156A      1.477849  
     157A      1.499723   158A      1.521744   159A      1.527056  
     160A      1.538275   161A      1.547232   162A      1.582095  
     163A      1.590625   164A      1.595528   165A      1.602754  
     166A      1.617114   167A      1.624185   168A      1.626609  
     169A      1.640022   170A      1.666505   171A      1.685952  
     172A      1.728570   173A      1.743922   174A      1.752572  
     175A      1.758809   176A      1.781165   177A      1.784829  
     178A      1.790617   179A      1.816376   180A      1.867481  
     181A      1.882743   182A      1.890039   183A      1.896778  
     184A      1.914759   185A      1.915283   186A      1.924773  
     187A      1.972732   188A      2.002678   189A      2.033897  
     190A      2.053664   191A      2.086999   192A      2.124935  
     193A      2.128334   194A      2.142293   195A      2.153620  
     196A      2.169921   197A      2.237391   198A      2.255021  
     199A      2.284778   200A      2.294399   201A      2.333870  
     202A      2.338516   203A      2.348793   204A      2.381060  
     205A      2.396183   206A      2.407348   207A      2.467356  
     208A      2.467894   209A      2.491322   210A      2.531119  
     211A      2.537716   212A      2.571033   213A      2.597610  
     214A      2.613150   215A      2.672894   216A      2.686378  
     217A      2.725652   218A      2.754550   219A      2.757425  
     220A      2.804054   221A      2.867620   222A      2.873958  
     223A      2.893481   224A      2.909322   225A      2.989718  
     226A      3.035205   227A      3.079347   228A      3.140979  
     229A      3.144320   230A      3.149480   231A      3.213525  
     232A      3.244748   233A      3.348059   234A      3.382979  
     235A      3.403298   236A      3.428361   237A      3.446580  
     238A      3.461168   239A      3.488224   240A      3.506580  
     241A      3.521379   242A      3.533684   243A      3.547314  
     244A      3.548127   245A      3.595842   246A      3.603034  
     247A      3.606179   248A      3.614062   249A      3.652924  
     250A      3.687483   251A      3.690655   252A      3.698866  
     253A      3.713012   254A      3.744266   255A      3.780569  
     256A      3.799547   257A      3.804687   258A      3.817983  
     259A      3.824334   260A      3.845854   261A      3.868768  
     262A      3.872144   263A      3.885358   264A      3.897675  
     265A      3.907348   266A      3.931663   267A      3.947328  
     268A      3.962680   269A      3.982569   270A      4.010546  
     271A      4.039591   272A      4.070432   273A      4.087887  
     274A      4.119768   275A      4.132529   276A      4.147503  
     277A      4.165660   278A      4.176306   279A      4.225476  
     280A      4.228818   281A      4.242072   282A      4.253525  
     283A      4.266090   284A      4.289132   285A      4.294376  
     286A      4.322555   287A      4.341707   288A      4.369006  
     289A      4.379895   290A      4.425093   291A      4.460203  
     292A      4.473703   293A      4.473902   294A      4.490373  
     295A      4.499985   296A      4.508603   297A      4.513537  
     298A      4.538486   299A      4.552676   300A      4.576858  
     301A      4.608209   302A      4.618449   303A      4.642086  
     304A      4.660572   305A      4.670867   306A      4.677430  
     307A      4.682098   308A      4.712065   309A      4.727315  
     310A      4.730763   311A      4.735848   312A      4.751254  
     313A      4.769922   314A      4.791547   315A      4.797914  
     316A      4.803897   317A      4.827778   318A      4.842417  
     319A      4.848706   320A      4.874726   321A      4.875260  
     322A      4.885175   323A      4.910975   324A      4.919754  
     325A      4.936758   326A      4.944556   327A      4.957271  
     328A      4.986761   329A      4.997529   330A      5.001770  
     331A      5.004372   332A      5.004544   333A      5.021634  
     334A      5.035777   335A      5.047964   336A      5.054467  
     337A      5.125352   338A      5.142106   339A      5.178890  
     340A      5.182163   341A      5.188499   342A      5.203426  
     343A      5.229772   344A      5.244302   345A      5.246428  
     346A      5.269879   347A      5.295874   348A      5.317960  
     349A      5.330614   350A      5.389047   351A      5.431756  
     352A      5.445320   353A      5.485488   354A      5.519288  
     355A      5.545376   356A      5.548313   357A      5.589047  
     358A      5.682038   359A      5.717838   360A      5.730648  
     361A      5.735419   362A      5.841278   363A      5.846884  
     364A      5.902503   365A      5.910745   366A      5.941955  
     367A      5.953117   368A      5.993171   369A      6.020754  
     370A      6.022296   371A      6.042875   372A      6.074970  
     373A      6.087064   374A      6.138679   375A      6.186000  
     376A      6.223359   377A      6.226805   378A      6.245075  
     379A      6.337920   380A      6.363360   381A      6.374903  
     382A      6.382223   383A      6.424102   384A      6.439267  
     385A      6.455705   386A      6.464644   387A      6.521074  
     388A      6.562052   389A      6.571898   390A      6.592360  
     391A      6.675526   392A      6.683208   393A      6.731469  
     394A      6.763819   395A      6.804168   396A      6.893181  
     397A      6.925955   398A      6.929582   399A      7.022402  
     400A      7.117757   401A      7.192212   402A      7.234051  
     403A      7.292095   404A      7.336514   405A      7.341099  
     406A      7.434576   407A      7.436090   408A      7.455954  
     409A      7.484836   410A      7.539728   411A      7.551718  
     412A      7.621138   413A      7.672087   414A      7.692322  
     415A      7.733666   416A      7.788095   417A      7.792621  
     418A      7.826379   419A      7.832467   420A      7.862685  
     421A      8.003581   422A      8.003755   423A      8.153750  
     424A      8.236719   425A      8.295737   426A      8.524190  
     427A      8.930610   428A      9.118560   429A      9.138746  
     430A      9.235369   431A      9.481592   432A      9.664547  
     433A      9.796512   434A      9.890753   435A      9.950066  
     436A     10.001984   437A     10.224776   438A     10.688260  
     439A     10.969841   440A     11.538457   441A     11.575335  
     442A     11.729802   443A     11.995814   444A     12.685461  
     445A     13.839895   446A     14.194640   447A     15.927552  
     448A     42.946964   449A     45.190217   450A     45.826934  
     451A     56.229437   452A     61.127093  

    Final Occupation by Irrep:
              A 
    DOCC [    12 ]

  @DF-RHF Final Energy:  -169.00191476499199

   => Energetics <=

    Nuclear Repulsion Energy =             71.0815460194965283
    One-Electron Energy =                -371.3591682563568384
    Two-Electron Energy =                 131.2757074718683441
    Total Energy =                       -169.0019147649919944

Computation Completed


Properties will be evaluated at   0.000000,   0.000000,   0.000000 [a0]

Properties computed using the SCF density matrix

  Nuclear Dipole Moment: [e a0]
     X:  -117.6401      Y:    -6.5529      Z:    -0.0030

  Electronic Dipole Moment: [e a0]
     X:   117.0086      Y:     8.2056      Z:     0.0034

  Dipole Moment: [e a0]
     X:    -0.6315      Y:     1.6528      Z:     0.0004     Total:     1.7693

  Dipole Moment: [D]
     X:    -1.6051      Y:     4.2009      Z:     0.0010     Total:     4.4971


*** tstop() called on r282 at Fri Sep 10 18:53:55 2021
Module time:
	user time   =      23.34 seconds =       0.39 minutes
	system time =       0.50 seconds =       0.01 minutes
	total time  =         24 seconds =       0.40 minutes
Total time:
	user time   =      95.84 seconds =       1.60 minutes
	system time =       2.22 seconds =       0.04 minutes
	total time  =         98 seconds =       1.63 minutes
  Constructing Basis Sets for SAPT...

   => Loading Basis Set <=

    Name: (JUN-CC-PVTZ AUX)
    Role: RIFIT
    Keyword: DF_BASIS_SAPT
    atoms 1-2, 7, 13       entry C          line   132 file /home/r08543048/miniconda3/share/psi4/basis/jun-cc-pvtz-ri.gbs 
    atoms 3, 14            entry O          line   244 file /home/r08543048/miniconda3/share/psi4/basis/jun-cc-pvtz-ri.gbs 
    atoms 4, 15            entry N          line   188 file /home/r08543048/miniconda3/share/psi4/basis/jun-cc-pvtz-ri.gbs 
    atoms 5-6, 8-12, 16-18 entry H          line    30 file /home/r08543048/miniconda3/share/psi4/basis/jun-cc-pvtz-ri.gbs 


  //>>>>>>>>>>>>>>>>>>>>>>>>>>>>>>>>>>>//
  //               SAPT0               //
  //<<<<<<<<<<<<<<<<<<<<<<<<<<<<<<<<<<<//


*** tstart() called on r282
*** at Fri Sep 10 18:53:55 2021

        SAPT0  
    Ed Hohenstein
     6 June 2009

      Orbital Information
  --------------------------
    NSO        =       452
    NMO        =       452
    NRI        =      1076
    NOCC A     =        20
    NOCC B     =        12
    FOCC A     =         0
    FOCC B     =         0
    NVIR A     =       432
    NVIR B     =       440

    Elst10,r            =    -0.041840039432 [Eh]
    Exch10              =     0.037961697890 [Eh]
    Exch10 (S^2)        =     0.037483990460 [Eh]

    Iter     Energy [mEh]          dE [mEh]         Residual      Time [s]
       1      -7.87108886       7.871088863      19.199380780             1
       2      -9.37417749       1.503088631      11.191057844             2
       3     -10.10038792       0.726210428       2.738799942             3
       4     -10.01627494      -0.084112979       1.074979811             4
       5     -10.00760282      -0.008672127       0.330301022             4
       6     -10.01524973       0.007646911       0.128981365             5
       7     -10.01668273       0.001433001       0.028475277             6
       8     -10.01592839      -0.000754338       0.006216821             7
       9     -10.01595680       0.000028411       0.001485061             7
      10     -10.01597784       0.000021036       0.000404706             8
      11     -10.01597757      -0.000000265       0.000098366             9
      12     -10.01597595      -0.000001626       0.000022702            10
      13     -10.01597615       0.000000206       0.000006818            11
      14     -10.01597620       0.000000045       0.000001940            11
      15     -10.01597618      -0.000000014       0.000000440            12

    CHF Iterations converged


    Iter     Energy [mEh]          dE [mEh]         Residual      Time [s]
       1      -7.45000336       7.450003362      18.522840616             1
       2      -8.80032568       1.350322318      10.669919067             1
       3      -9.48504226       0.684716580       2.700101036             2
       4      -9.40367307      -0.081369192       1.121020565             3
       5      -9.39404805      -0.009625015       0.370155945             3
       6      -9.40160960       0.007561550       0.141904369             4
       7      -9.40373984       0.002130241       0.026256829             5
       8      -9.40299017      -0.000749671       0.006114855             5
       9      -9.40300951       0.000019341       0.002022026             6
      10      -9.40304735       0.000037834       0.000379427             7
      11      -9.40304177      -0.000005578       0.000064492             7
      12      -9.40304212       0.000000351       0.000016577             8
      13      -9.40304220       0.000000074       0.000004159             9
      14      -9.40304216      -0.000000031       0.000000769             9

    CHF Iterations converged

    Ind20,r (A<-B)      =    -0.010015976184 [Eh]
    Ind20,r (B<-A)      =    -0.009403042164 [Eh]
    Ind20,r             =    -0.019419018348 [Eh]
    Exch-Ind20,r (A<-B) =     0.005216466109 [Eh]
    Exch-Ind20,r (B<-A) =     0.004807919790 [Eh]
    Exch-Ind20,r        =     0.010024385898 [Eh]
    Disp20              =    -0.013528997186 [Eh]
    Disp20 (SS)         =    -0.006764498593 [Eh]
    Disp20 (OS)         =    -0.006764498593 [Eh]
    Exch-Disp20         =     0.002585765709 [Eh]
    Exch-Disp20 (SS)    =     0.001635864591 [Eh]
    Exch-Disp20 (OS)    =     0.000949901118 [Eh]

    SAPT Results 
  --------------------------------------------------------------------------------------------------------
    Electrostatics                -41.84003943 [mEh]     -26.25502113 [kcal/mol]    -109.85100839 [kJ/mol]
      Elst10,r                    -41.84003943 [mEh]     -26.25502113 [kcal/mol]    -109.85100839 [kJ/mol]

    Exchange                       37.96169789 [mEh]      23.82132507 [kcal/mol]      99.66842408 [kJ/mol]
      Exch10                       37.96169789 [mEh]      23.82132507 [kcal/mol]      99.66842408 [kJ/mol]
      Exch10(S^2)                  37.48399046 [mEh]      23.52155913 [kcal/mol]      98.41420340 [kJ/mol]

    Induction                     -16.32530282 [mEh]     -10.24428218 [kcal/mol]     -42.86207665 [kJ/mol]
      Ind20,r                     -19.41901835 [mEh]     -12.18561798 [kcal/mol]     -50.98462565 [kJ/mol]
      Exch-Ind20,r                 10.02438590 [mEh]       6.29039712 [kcal/mol]      26.31902155 [kJ/mol]
      delta HF,r (2)               -6.93067037 [mEh]      -4.34906132 [kcal/mol]     -18.19647255 [kJ/mol]

    Dispersion                    -10.94323148 [mEh]      -6.86698143 [kcal/mol]     -28.73145029 [kJ/mol]
      Disp20                      -13.52899719 [mEh]      -8.48957390 [kcal/mol]     -35.52037722 [kJ/mol]
      Exch-Disp20                   2.58576571 [mEh]       1.62259248 [kcal/mol]       6.78892693 [kJ/mol]
      Disp20 (SS)                  -6.76449859 [mEh]      -4.24478695 [kcal/mol]     -17.76018861 [kJ/mol]
      Disp20 (OS)                  -6.76449859 [mEh]      -4.24478695 [kcal/mol]     -17.76018861 [kJ/mol]
      Exch-Disp20 (SS)              1.63586459 [mEh]       1.02652053 [kcal/mol]       4.29496189 [kJ/mol]
      Exch-Disp20 (OS)              0.94990112 [mEh]       0.59607195 [kcal/mol]       2.49396504 [kJ/mol]

  Total HF                        -20.20364436 [mEh]     -12.67797824 [kcal/mol]     -53.04466097 [kJ/mol]
  Total SAPT0                     -31.14687584 [mEh]     -19.54495967 [kcal/mol]     -81.77611125 [kJ/mol]

  Special recipe for scaled SAPT0 (see Manual):
    Electrostatics sSAPT0         -41.84003943 [mEh]     -26.25502113 [kcal/mol]    -109.85100839 [kJ/mol]
    Exchange sSAPT0                37.96169789 [mEh]      23.82132507 [kcal/mol]      99.66842408 [kJ/mol]
    Induction sSAPT0              -15.93713616 [mEh]     -10.00070392 [kcal/mol]     -41.84294522 [kJ/mol]
    Dispersion sSAPT0             -10.84310484 [mEh]      -6.80415101 [kcal/mol]     -28.46856784 [kJ/mol]
  Total sSAPT0                    -30.65858254 [mEh]     -19.23855100 [kcal/mol]     -80.49409737 [kJ/mol]
  --------------------------------------------------------------------------------------------------------

*** tstop() called on r282 at Fri Sep 10 18:55:22 2021
Module time:
	user time   =      72.57 seconds =       1.21 minutes
	system time =      13.81 seconds =       0.23 minutes
	total time  =         87 seconds =       1.45 minutes
Total time:
	user time   =     168.53 seconds =       2.81 minutes
	system time =      16.03 seconds =       0.27 minutes
	total time  =        185 seconds =       3.08 minutes

    Psi4 stopped on: Friday, 10 September 2021 06:55PM
    Psi4 wall time for execution: 0:03:04.98

*** Psi4 exiting successfully. Buy a developer a beer!
