
    -----------------------------------------------------------------------
          Psi4: An Open-Source Ab Initio Electronic Structure Package
                               Psi4 1.3.2 release

                         Git: Rev {HEAD} ecbda83 


    R. M. Parrish, L. A. Burns, D. G. A. Smith, A. C. Simmonett,
    A. E. DePrince III, E. G. Hohenstein, U. Bozkaya, A. Yu. Sokolov,
    R. Di Remigio, R. M. Richard, J. F. Gonthier, A. M. James,
    H. R. McAlexander, A. Kumar, M. Saitow, X. Wang, B. P. Pritchard,
    P. Verma, H. F. Schaefer III, K. Patkowski, R. A. King, E. F. Valeev,
    F. A. Evangelista, J. M. Turney, T. D. Crawford, and C. D. Sherrill,
    J. Chem. Theory Comput. 13(7) pp 3185--3197 (2017).
    (doi: 10.1021/acs.jctc.7b00174)


                         Additional Contributions by
    P. Kraus, H. Kruse, M. H. Lechner, M. C. Schieber, R. A. Shaw,
    A. Alenaizan, R. Galvelis, Z. L. Glick, S. Lehtola, and J. P. Misiewicz

    -----------------------------------------------------------------------


    Psi4 started on: Friday, 10 September 2021 06:55PM

    Process ID: 56995
    Host:       r282
    PSIDATADIR: /home/r08543048/miniconda3/share/psi4
    Memory:     500.0 MiB
    Threads:    1
    
  ==> Input File <==

--------------------------------------------------------------------------
# Any line starting with the # character is a comment line
#! Sample  computation

memory 22 gb

molecule Dimer {
0 1
 C  3.022104   -0.088705    0.000350
 C  1.514442   -0.070405   -0.000215
 O  0.874253   -1.128615   -0.000277
 N  0.922262    1.137857   -0.000038
 H  3.462836    0.905365   -0.000355
 H  3.359265   -0.633723    0.879458
 H  3.359850   -0.635308   -0.877527
 H -0.097317    1.208891    0.000026
 H  1.477825    1.972682    0.000287






    
    
    
 --
0 1
 C  -2.568123    0.098971   -0.000048
 O  -1.971327    1.176189   -0.000315
 N  -1.981871   -1.106435    0.000262
 H  -2.553550   -1.931376    0.000501
 H  -0.960080   -1.186123    0.000238
 H  -3.665515    0.059883    0.000017
 
 
 
 
 
 







units angstrom

no_reorient
symmetry c1
}

set globals{
  basis jun-cc-pvtz
}

energy('sapt0')


--------------------------------------------------------------------------

  Memory set to  20.489 GiB by Python driver.

  //>>>>>>>>>>>>>>>>>>>>>>>>>>>>>>>>>>>//
  //              Dimer HF             //
  //<<<<<<<<<<<<<<<<<<<<<<<<<<<<<<<<<<<//


*** tstart() called on r282
*** at Fri Sep 10 18:55:23 2021

   => Loading Basis Set <=

    Name: JUN-CC-PVTZ
    Role: ORBITAL
    Keyword: BASIS
    atoms 1-2, 10    entry C          line   217 file /home/r08543048/miniconda3/share/psi4/basis/jun-cc-pvtz.gbs 
    atoms 3, 11      entry O          line   305 file /home/r08543048/miniconda3/share/psi4/basis/jun-cc-pvtz.gbs 
    atoms 4, 12      entry N          line   261 file /home/r08543048/miniconda3/share/psi4/basis/jun-cc-pvtz.gbs 
    atoms 5-9, 13-15 entry H          line    36 file /home/r08543048/miniconda3/share/psi4/basis/jun-cc-pvtz.gbs 


         ---------------------------------------------------------
                                   SCF
               by Justin Turney, Rob Parrish, Andy Simmonett
                          and Daniel G. A. Smith
                              RHF Reference
                        1 Threads,  20980 MiB Core
         ---------------------------------------------------------

  ==> Geometry <==

    Molecular point group: c1
    Full point group: C1

    Geometry (in Angstrom), charge = 0, multiplicity = 1:

       Center              X                  Y                   Z               Mass       
    ------------   -----------------  -----------------  -----------------  -----------------
         C            3.063875651458    -0.090989231964     0.000375203147    12.000000000000
         C            1.556213651458    -0.072689231964    -0.000189796853    12.000000000000
         O            0.916024651458    -1.130899231964    -0.000251796853    15.994914619570
         N            0.964033651458     1.135572768036    -0.000012796853    14.003074004430
         H            3.504607651458     0.903080768036    -0.000329796853     1.007825032230
         H            3.401036651458    -0.636007231964     0.879483203147     1.007825032230
         H            3.401621651458    -0.637592231964    -0.877501796853     1.007825032230
         H           -0.055545348542     1.206606768036     0.000051203147     1.007825032230
         H            1.519596651458     1.970397768036     0.000312203147     1.007825032230
         C           -2.526351348542     0.096686768036    -0.000022796853    12.000000000000
         O           -1.929555348542     1.173904768036    -0.000289796853    15.994914619570
         N           -1.940099348542    -1.108719231964     0.000287203147    14.003074004430
         H           -2.511778348542    -1.933660231964     0.000526203147     1.007825032230
         H           -0.918308348542    -1.188407231964     0.000263203147     1.007825032230
         H           -3.623743348542     0.057598768036     0.000042203147     1.007825032230

  Running in c1 symmetry.

  Rotational constants: A =      0.18395  B =      0.04041  C =      0.03333 [cm^-1]
  Rotational constants: A =   5514.55825  B =   1211.39068  C =    999.32086 [MHz]
  Nuclear repulsion =  299.502915999870254

  Charge       = 0
  Multiplicity = 1
  Electrons    = 56
  Nalpha       = 28
  Nbeta        = 28

  ==> Algorithm <==

  SCF Algorithm Type is DF.
  DIIS enabled.
  MOM disabled.
  Fractional occupation disabled.
  Guess Type is SAD.
  Energy threshold   = 1.00e-08
  Density threshold  = 1.00e-08
  Integral threshold = 0.00e+00

  ==> Primary Basis <==

  Basis Set: JUN-CC-PVTZ
    Blend: JUN-CC-PVTZ
    Number of shells: 139
    Number of basis function: 385
    Number of Cartesian functions: 435
    Spherical Harmonics?: true
    Max angular momentum: 3

   => Loading Basis Set <=

    Name: (JUN-CC-PVTZ AUX)
    Role: JKFIT
    Keyword: DF_BASIS_SCF
    atoms 1-2, 10    entry C          line   152 file /home/r08543048/miniconda3/share/psi4/basis/jun-cc-pvtz-jkfit.gbs 
    atoms 3, 11      entry O          line   272 file /home/r08543048/miniconda3/share/psi4/basis/jun-cc-pvtz-jkfit.gbs 
    atoms 4, 12      entry N          line   212 file /home/r08543048/miniconda3/share/psi4/basis/jun-cc-pvtz-jkfit.gbs 
    atoms 5-9, 13-15 entry H          line    70 file /home/r08543048/miniconda3/share/psi4/basis/jun-cc-pvtz-jkfit.gbs 

  ==> Pre-Iterations <==

   -------------------------------------------------------
    Irrep   Nso     Nmo     Nalpha   Nbeta   Ndocc  Nsocc
   -------------------------------------------------------
     A        385     385       0       0       0       0
   -------------------------------------------------------
    Total     385     385      28      28      28       0
   -------------------------------------------------------

  ==> Integral Setup <==

  ==> DiskDFJK: Density-Fitted J/K Matrices <==

    J tasked:                  Yes
    K tasked:                  Yes
    wK tasked:                  No
    OpenMP threads:              1
    Integrals threads:           1
    Memory [MiB]:            15735
    Algorithm:                Core
    Integral Cache:           SAVE
    Schwarz Cutoff:          1E-12
    Fitting Condition:       1E-10

   => Auxiliary Basis Set <=

  Basis Set: (JUN-CC-PVTZ AUX)
    Blend: JUN-CC-PVTZ-JKFIT
    Number of shells: 283
    Number of basis function: 905
    Number of Cartesian functions: 1092
    Spherical Harmonics?: true
    Max angular momentum: 4

  Minimum eigenvalue in the overlap matrix is 5.4546034317E-05.
  Using Symmetric Orthogonalization.

  SCF Guess: Superposition of Atomic Densities via on-the-fly atomic UHF.

  ==> Iterations <==

                           Total Energy        Delta E     RMS |[F,P]|

   @DF-RHF iter SAD:  -375.67432227996392   -3.75674e+02   0.00000e+00 
   @DF-RHF iter   1:  -376.81849236879145   -1.14417e+00   1.99684e-03 DIIS
   @DF-RHF iter   2:  -377.01129750348770   -1.92805e-01   1.17212e-03 DIIS
   @DF-RHF iter   3:  -377.07819606036014   -6.68986e-02   2.08090e-04 DIIS
   @DF-RHF iter   4:  -377.08163583645722   -3.43978e-03   8.42900e-05 DIIS
   @DF-RHF iter   5:  -377.08228530931103   -6.49473e-04   1.69306e-05 DIIS
   @DF-RHF iter   6:  -377.08233250860854   -4.71993e-05   8.07661e-06 DIIS
   @DF-RHF iter   7:  -377.08234253382693   -1.00252e-05   2.83788e-06 DIIS
   @DF-RHF iter   8:  -377.08234458188565   -2.04806e-06   9.95298e-07 DIIS
   @DF-RHF iter   9:  -377.08234481732700   -2.35441e-07   4.32345e-07 DIIS
   @DF-RHF iter  10:  -377.08234484230792   -2.49809e-08   1.45787e-07 DIIS
   @DF-RHF iter  11:  -377.08234484599029   -3.68237e-09   3.96006e-08 DIIS
   @DF-RHF iter  12:  -377.08234484621994   -2.29647e-10   1.37763e-08 DIIS
   @DF-RHF iter  13:  -377.08234484624705   -2.71143e-11   3.02146e-09 DIIS
  Energy and wave function converged.


  ==> Post-Iterations <==

    Orbital Energies [Eh]
    ---------------------

    Doubly Occupied:                                                      

       1A    -20.525827     2A    -20.517449     3A    -15.576757  
       4A    -15.573615     5A    -11.355474     6A    -11.353190  
       7A    -11.236842     8A     -1.379086     9A     -1.374100  
      10A     -1.211778    11A     -1.205086    12A     -1.005226  
      13A     -0.844934    14A     -0.794863    15A     -0.742345  
      16A     -0.721931    17A     -0.690961    18A     -0.645198  
      19A     -0.615554    20A     -0.603803    21A     -0.579583  
      22A     -0.565827    23A     -0.560870    24A     -0.523106  
      25A     -0.446008    26A     -0.421999    27A     -0.416391  
      28A     -0.405987  

    Virtual:                                                              

      29A      0.044419    30A      0.057283    31A      0.068657  
      32A      0.075777    33A      0.077847    34A      0.085082  
      35A      0.087952    36A      0.110521    37A      0.115505  
      38A      0.119618    39A      0.128736    40A      0.147789  
      41A      0.154154    42A      0.159794    43A      0.164556  
      44A      0.178475    45A      0.179736    46A      0.194883  
      47A      0.195679    48A      0.205749    49A      0.233124  
      50A      0.240961    51A      0.247257    52A      0.254154  
      53A      0.258449    54A      0.261484    55A      0.274191  
      56A      0.278417    57A      0.282404    58A      0.289656  
      59A      0.293547    60A      0.319507    61A      0.319851  
      62A      0.321823    63A      0.337797    64A      0.341900  
      65A      0.342186    66A      0.354510    67A      0.371133  
      68A      0.388616    69A      0.403200    70A      0.405094  
      71A      0.413304    72A      0.432832    73A      0.439661  
      74A      0.449329    75A      0.462792    76A      0.467284  
      77A      0.492592    78A      0.498547    79A      0.503336  
      80A      0.515985    81A      0.532214    82A      0.532380  
      83A      0.545941    84A      0.575551    85A      0.581880  
      86A      0.599213    87A      0.600345    88A      0.611736  
      89A      0.614570    90A      0.616050    91A      0.625656  
      92A      0.626769    93A      0.634652    94A      0.642166  
      95A      0.657692    96A      0.666910    97A      0.682085  
      98A      0.702745    99A      0.712162   100A      0.728268  
     101A      0.750655   102A      0.756359   103A      0.774322  
     104A      0.789379   105A      0.803435   106A      0.823690  
     107A      0.826607   108A      0.853690   109A      0.855178  
     110A      0.868488   111A      0.878671   112A      0.888524  
     113A      0.900218   114A      0.908627   115A      0.927025  
     116A      0.939285   117A      0.940405   118A      0.954081  
     119A      0.970251   120A      0.998398   121A      1.017317  
     122A      1.022285   123A      1.041437   124A      1.051603  
     125A      1.066739   126A      1.075585   127A      1.089849  
     128A      1.107298   129A      1.123436   130A      1.140139  
     131A      1.141999   132A      1.157417   133A      1.188206  
     134A      1.203066   135A      1.205974   136A      1.230123  
     137A      1.234913   138A      1.242189   139A      1.270325  
     140A      1.281372   141A      1.286244   142A      1.318866  
     143A      1.326640   144A      1.333620   145A      1.341351  
     146A      1.360979   147A      1.365199   148A      1.373067  
     149A      1.404485   150A      1.407903   151A      1.409712  
     152A      1.429712   153A      1.437293   154A      1.450665  
     155A      1.465393   156A      1.478865   157A      1.488914  
     158A      1.497069   159A      1.520735   160A      1.544738  
     161A      1.572177   162A      1.588411   163A      1.622375  
     164A      1.623517   165A      1.657632   166A      1.661397  
     167A      1.664283   168A      1.691511   169A      1.699356  
     170A      1.753344   171A      1.778641   172A      1.779468  
     173A      1.793204   174A      1.859642   175A      1.879598  
     176A      1.880158   177A      1.890125   178A      1.935507  
     179A      1.975239   180A      1.985264   181A      2.021347  
     182A      2.061761   183A      2.152872   184A      2.157021  
     185A      2.221513   186A      2.273753   187A      2.276326  
     188A      2.301395   189A      2.316793   190A      2.338110  
     191A      2.386007   192A      2.386231   193A      2.401067  
     194A      2.447902   195A      2.460265   196A      2.540675  
     197A      2.614924   198A      2.621030   199A      2.666243  
     200A      2.700571   201A      2.742688   202A      2.762759  
     203A      2.774507   204A      2.822354   205A      2.842275  
     206A      2.899920   207A      2.965664   208A      2.979200  
     209A      3.003495   210A      3.050252   211A      3.076821  
     212A      3.090506   213A      3.148677   214A      3.151491  
     215A      3.164841   216A      3.194442   217A      3.199980  
     218A      3.220862   219A      3.255648   220A      3.263768  
     221A      3.295827   222A      3.338015   223A      3.352872  
     224A      3.395203   225A      3.402808   226A      3.417323  
     227A      3.443958   228A      3.445279   229A      3.460394  
     230A      3.472673   231A      3.474163   232A      3.491507  
     233A      3.511312   234A      3.517288   235A      3.533367  
     236A      3.540823   237A      3.555099   238A      3.556827  
     239A      3.579616   240A      3.580644   241A      3.604229  
     242A      3.618350   243A      3.624207   244A      3.653918  
     245A      3.655382   246A      3.669232   247A      3.694528  
     248A      3.723243   249A      3.729867   250A      3.775309  
     251A      3.803833   252A      3.805855   253A      3.816638  
     254A      3.836361   255A      3.866203   256A      3.876306  
     257A      3.904807   258A      3.919932   259A      3.970187  
     260A      3.980236   261A      3.999492   262A      4.009281  
     263A      4.026573   264A      4.055650   265A      4.113552  
     266A      4.119926   267A      4.147775   268A      4.168866  
     269A      4.179613   270A      4.188057   271A      4.244572  
     272A      4.246751   273A      4.262700   274A      4.263855  
     275A      4.288407   276A      4.306169   277A      4.322185  
     278A      4.341329   279A      4.374708   280A      4.396994  
     281A      4.404868   282A      4.416493   283A      4.428757  
     284A      4.444807   285A      4.471399   286A      4.496404  
     287A      4.509554   288A      4.518293   289A      4.529403  
     290A      4.536343   291A      4.571212   292A      4.578087  
     293A      4.593947   294A      4.633978   295A      4.661653  
     296A      4.675115   297A      4.722797   298A      4.725562  
     299A      4.751199   300A      4.752046   301A      4.767470  
     302A      4.776962   303A      4.831055   304A      4.860123  
     305A      4.939412   306A      4.957726   307A      5.007562  
     308A      5.059670   309A      5.131709   310A      5.159843  
     311A      5.202691   312A      5.209849   313A      5.223864  
     314A      5.230288   315A      5.236670   316A      5.265308  
     317A      5.275685   318A      5.279496   319A      5.322251  
     320A      5.340326   321A      5.436630   322A      5.446728  
     323A      5.487007   324A      5.489584   325A      5.531103  
     326A      5.532373   327A      5.544459   328A      5.583473  
     329A      5.625896   330A      5.682846   331A      5.684236  
     332A      5.724943   333A      5.729721   334A      5.769435  
     335A      5.771312   336A      5.787793   337A      5.869562  
     338A      5.924853   339A      5.947176   340A      5.961597  
     341A      6.000133   342A      6.008813   343A      6.035631  
     344A      6.043474   345A      6.091545   346A      6.100082  
     347A      6.154527   348A      6.204152   349A      6.238893  
     350A      6.250392   351A      6.330863   352A      6.398313  
     353A      6.426715   354A      6.451117   355A      6.568370  
     356A      6.608951   357A      6.687505   358A      6.720546  
     359A      6.760184   360A      6.767308   361A      6.837357  
     362A      7.013516   363A      7.190656   364A      7.223862  
     365A      7.233318   366A      7.268304   367A      7.290995  
     368A      7.364812   369A      7.380553   370A      7.431494  
     371A      7.468001   372A      7.495617   373A      7.547224  
     374A      7.627602   375A      7.760542   376A      7.784356  
     377A      7.872721   378A      7.910359   379A     12.205443  
     380A     12.659532   381A     13.843890   382A     14.194923  
     383A     14.823738   384A     15.918556   385A     15.949748  

    Final Occupation by Irrep:
              A 
    DOCC [    28 ]

  @DF-RHF Final Energy:  -377.08234484624705

   => Energetics <=

    Nuclear Repulsion Energy =            299.5029159998702539
    One-Electron Energy =               -1109.3829424351124544
    Two-Electron Energy =                 432.7976815889950899
    Total Energy =                       -377.0823448462470537

Computation Completed


Properties will be evaluated at   0.000000,   0.000000,   0.000000 [a0]

Properties computed using the SCF density matrix

  Nuclear Dipole Moment: [e a0]
     X:     4.4205      Y:    -0.2417      Z:     0.0027

  Electronic Dipole Moment: [e a0]
     X:    -4.1298      Y:     0.1532      Z:    -0.0018

  Dipole Moment: [e a0]
     X:     0.2906      Y:    -0.0885      Z:     0.0009     Total:     0.3038

  Dipole Moment: [D]
     X:     0.7387      Y:    -0.2251      Z:     0.0022     Total:     0.7722


*** tstop() called on r282 at Fri Sep 10 18:55:51 2021
Module time:
	user time   =      28.05 seconds =       0.47 minutes
	system time =       0.78 seconds =       0.01 minutes
	total time  =         28 seconds =       0.47 minutes
Total time:
	user time   =      28.05 seconds =       0.47 minutes
	system time =       0.78 seconds =       0.01 minutes
	total time  =         28 seconds =       0.47 minutes

  //>>>>>>>>>>>>>>>>>>>>>>>>>>>>>>>>>>>//
  //            Monomer A HF           //
  //<<<<<<<<<<<<<<<<<<<<<<<<<<<<<<<<<<<//


*** tstart() called on r282
*** at Fri Sep 10 18:55:51 2021

   => Loading Basis Set <=

    Name: JUN-CC-PVTZ
    Role: ORBITAL
    Keyword: BASIS
    atoms 1-2, 10    entry C          line   217 file /home/r08543048/miniconda3/share/psi4/basis/jun-cc-pvtz.gbs 
    atoms 3, 11      entry O          line   305 file /home/r08543048/miniconda3/share/psi4/basis/jun-cc-pvtz.gbs 
    atoms 4, 12      entry N          line   261 file /home/r08543048/miniconda3/share/psi4/basis/jun-cc-pvtz.gbs 
    atoms 5-9, 13-15 entry H          line    36 file /home/r08543048/miniconda3/share/psi4/basis/jun-cc-pvtz.gbs 


         ---------------------------------------------------------
                                   SCF
               by Justin Turney, Rob Parrish, Andy Simmonett
                          and Daniel G. A. Smith
                              RHF Reference
                        1 Threads,  20980 MiB Core
         ---------------------------------------------------------

  ==> Geometry <==

    Molecular point group: c1
    Full point group: C1

    Geometry (in Angstrom), charge = 0, multiplicity = 1:

       Center              X                  Y                   Z               Mass       
    ------------   -----------------  -----------------  -----------------  -----------------
         C            3.063875651458    -0.090989231964     0.000375203147    12.000000000000
         C            1.556213651458    -0.072689231964    -0.000189796853    12.000000000000
         O            0.916024651458    -1.130899231964    -0.000251796853    15.994914619570
         N            0.964033651458     1.135572768036    -0.000012796853    14.003074004430
         H            3.504607651458     0.903080768036    -0.000329796853     1.007825032230
         H            3.401036651458    -0.636007231964     0.879483203147     1.007825032230
         H            3.401621651458    -0.637592231964    -0.877501796853     1.007825032230
         H           -0.055545348542     1.206606768036     0.000051203147     1.007825032230
         H            1.519596651458     1.970397768036     0.000312203147     1.007825032230
      Gh(C)          -2.526351348542     0.096686768036    -0.000022796853    12.000000000000
      Gh(O)          -1.929555348542     1.173904768036    -0.000289796853    15.994914619570
      Gh(N)          -1.940099348542    -1.108719231964     0.000287203147    14.003074004430
      Gh(H)          -2.511778348542    -1.933660231964     0.000526203147     1.007825032230
      Gh(H)          -0.918308348542    -1.188407231964     0.000263203147     1.007825032230
      Gh(H)          -3.623743348542     0.057598768036     0.000042203147     1.007825032230

  Running in c1 symmetry.

  Rotational constants: A =      0.18395  B =      0.04041  C =      0.03333 [cm^-1]
  Rotational constants: A =   5514.55825  B =   1211.39068  C =    999.32086 [MHz]
  Nuclear repulsion =  121.772733421712672

  Charge       = 0
  Multiplicity = 1
  Electrons    = 32
  Nalpha       = 16
  Nbeta        = 16

  ==> Algorithm <==

  SCF Algorithm Type is DF.
  DIIS enabled.
  MOM disabled.
  Fractional occupation disabled.
  Guess Type is SAD.
  Energy threshold   = 1.00e-08
  Density threshold  = 1.00e-08
  Integral threshold = 0.00e+00

  ==> Primary Basis <==

  Basis Set: JUN-CC-PVTZ
    Blend: JUN-CC-PVTZ
    Number of shells: 139
    Number of basis function: 385
    Number of Cartesian functions: 435
    Spherical Harmonics?: true
    Max angular momentum: 3

   => Loading Basis Set <=

    Name: (JUN-CC-PVTZ AUX)
    Role: JKFIT
    Keyword: DF_BASIS_SCF
    atoms 1-2, 10    entry C          line   152 file /home/r08543048/miniconda3/share/psi4/basis/jun-cc-pvtz-jkfit.gbs 
    atoms 3, 11      entry O          line   272 file /home/r08543048/miniconda3/share/psi4/basis/jun-cc-pvtz-jkfit.gbs 
    atoms 4, 12      entry N          line   212 file /home/r08543048/miniconda3/share/psi4/basis/jun-cc-pvtz-jkfit.gbs 
    atoms 5-9, 13-15 entry H          line    70 file /home/r08543048/miniconda3/share/psi4/basis/jun-cc-pvtz-jkfit.gbs 

  ==> Pre-Iterations <==

   -------------------------------------------------------
    Irrep   Nso     Nmo     Nalpha   Nbeta   Ndocc  Nsocc
   -------------------------------------------------------
     A        385     385       0       0       0       0
   -------------------------------------------------------
    Total     385     385      16      16      16       0
   -------------------------------------------------------

  ==> Integral Setup <==

  ==> DiskDFJK: Density-Fitted J/K Matrices <==

    J tasked:                  Yes
    K tasked:                  Yes
    wK tasked:                  No
    OpenMP threads:              1
    Integrals threads:           1
    Memory [MiB]:            15735
    Algorithm:                Core
    Integral Cache:           LOAD
    Schwarz Cutoff:          1E-12
    Fitting Condition:       1E-10

   => Auxiliary Basis Set <=

  Basis Set: (JUN-CC-PVTZ AUX)
    Blend: JUN-CC-PVTZ-JKFIT
    Number of shells: 283
    Number of basis function: 905
    Number of Cartesian functions: 1092
    Spherical Harmonics?: true
    Max angular momentum: 4

  Minimum eigenvalue in the overlap matrix is 5.4546034317E-05.
  Using Symmetric Orthogonalization.

  SCF Guess: Superposition of Atomic Densities via on-the-fly atomic UHF.

  ==> Iterations <==

                           Total Energy        Delta E     RMS |[F,P]|

   @DF-RHF iter SAD:  -207.24273683138730   -2.07243e+02   0.00000e+00 
   @DF-RHF iter   1:  -207.88457018353719   -6.41833e-01   1.57558e-03 DIIS
   @DF-RHF iter   2:  -208.01264648963229   -1.28076e-01   9.55844e-04 DIIS
   @DF-RHF iter   3:  -208.05728378547522   -4.46373e-02   1.77566e-04 DIIS
   @DF-RHF iter   4:  -208.05981073331432   -2.52695e-03   7.09184e-05 DIIS
   @DF-RHF iter   5:  -208.06031772665895   -5.06993e-04   1.31750e-05 DIIS
   @DF-RHF iter   6:  -208.06034841210641   -3.06854e-05   6.16130e-06 DIIS
   @DF-RHF iter   7:  -208.06035391275159   -5.50065e-06   2.32664e-06 DIIS
   @DF-RHF iter   8:  -208.06035509669979   -1.18395e-06   7.84529e-07 DIIS
   @DF-RHF iter   9:  -208.06035525415979   -1.57460e-07   2.08117e-07 DIIS
   @DF-RHF iter  10:  -208.06035526271197   -8.55218e-09   6.88856e-08 DIIS
   @DF-RHF iter  11:  -208.06035526353870   -8.26731e-10   1.75845e-08 DIIS
   @DF-RHF iter  12:  -208.06035526358988   -5.11875e-11   3.59334e-09 DIIS
  Energy and wave function converged.


  ==> Post-Iterations <==

    Orbital Energies [Eh]
    ---------------------

    Doubly Occupied:                                                      

       1A    -20.510913     2A    -15.594008     3A    -11.353308  
       4A    -11.238253     5A     -1.366940     6A     -1.218215  
       7A     -1.006545     8A     -0.805003     9A     -0.730471  
      10A     -0.662985    11A     -0.615643    12A     -0.577967  
      13A     -0.565029    14A     -0.524095    15A     -0.421175  
      16A     -0.413367  

    Virtual:                                                              

      17A      0.036874    18A      0.044492    19A      0.062405  
      20A      0.072950    21A      0.074026    22A      0.081800  
      23A      0.083923    24A      0.105569    25A      0.114235  
      26A      0.122752    27A      0.124353    28A      0.142599  
      29A      0.143671    30A      0.151499    31A      0.164831  
      32A      0.167350    33A      0.174959    34A      0.178562  
      35A      0.192734    36A      0.204545    37A      0.211851  
      38A      0.219490    39A      0.226277    40A      0.231704  
      41A      0.246784    42A      0.269451    43A      0.277955  
      44A      0.284903    45A      0.289488    46A      0.291781  
      47A      0.298051    48A      0.316241    49A      0.323194  
      50A      0.328525    51A      0.341086    52A      0.347227  
      53A      0.356034    54A      0.370345    55A      0.380090  
      56A      0.381791    57A      0.387572    58A      0.401325  
      59A      0.412380    60A      0.423377    61A      0.430457  
      62A      0.448064    63A      0.462047    64A      0.471216  
      65A      0.475966    66A      0.486732    67A      0.498123  
      68A      0.498875    69A      0.508710    70A      0.531016  
      71A      0.533644    72A      0.558168    73A      0.568858  
      74A      0.596977    75A      0.607734    76A      0.610404  
      77A      0.614131    78A      0.622924    79A      0.642389  
      80A      0.655312    81A      0.660147    82A      0.671351  
      83A      0.685454    84A      0.706328    85A      0.718161  
      86A      0.721491    87A      0.748361    88A      0.761914  
      89A      0.764951    90A      0.773163    91A      0.787636  
      92A      0.807762    93A      0.807918    94A      0.814350  
      95A      0.835978    96A      0.841764    97A      0.852875  
      98A      0.871228    99A      0.882952   100A      0.884506  
     101A      0.905827   102A      0.930913   103A      0.934616  
     104A      0.944680   105A      0.946815   106A      0.975062  
     107A      0.982376   108A      1.002556   109A      1.012281  
     110A      1.020726   111A      1.034481   112A      1.043418  
     113A      1.057698   114A      1.084440   115A      1.098642  
     116A      1.133077   117A      1.133724   118A      1.160508  
     119A      1.170464   120A      1.185670   121A      1.192080  
     122A      1.210145   123A      1.225303   124A      1.229398  
     125A      1.238890   126A      1.248746   127A      1.313809  
     128A      1.317306   129A      1.325545   130A      1.354515  
     131A      1.357121   132A      1.370021   133A      1.370485  
     134A      1.408866   135A      1.412738   136A      1.423509  
     137A      1.439040   138A      1.443132   139A      1.453670  
     140A      1.494000   141A      1.503657   142A      1.503909  
     143A      1.529843   144A      1.552936   145A      1.559759  
     146A      1.562475   147A      1.592000   148A      1.604993  
     149A      1.635288   150A      1.649135   151A      1.654836  
     152A      1.659377   153A      1.675028   154A      1.694274  
     155A      1.704860   156A      1.744032   157A      1.749518  
     158A      1.778598   159A      1.794354   160A      1.866523  
     161A      1.877681   162A      1.887718   163A      1.891932  
     164A      1.902618   165A      1.944460   166A      1.947729  
     167A      2.001610   168A      2.031524   169A      2.059376  
     170A      2.061905   171A      2.177441   172A      2.211943  
     173A      2.241628   174A      2.247769   175A      2.315786  
     176A      2.335455   177A      2.336059   178A      2.401429  
     179A      2.413937   180A      2.472037   181A      2.510353  
     182A      2.514442   183A      2.553284   184A      2.622149  
     185A      2.655809   186A      2.666461   187A      2.712417  
     188A      2.742785   189A      2.758370   190A      2.780786  
     191A      2.786578   192A      2.820288   193A      2.828128  
     194A      2.845649   195A      2.863286   196A      2.957499  
     197A      2.974478   198A      2.978744   199A      3.000510  
     200A      3.048410   201A      3.089614   202A      3.101954  
     203A      3.150407   204A      3.180749   205A      3.199422  
     206A      3.225786   207A      3.254285   208A      3.276723  
     209A      3.317753   210A      3.353163   211A      3.354303  
     212A      3.404787   213A      3.415530   214A      3.430245  
     215A      3.436753   216A      3.460956   217A      3.478843  
     218A      3.512802   219A      3.529898   220A      3.544705  
     221A      3.559553   222A      3.579623   223A      3.610455  
     224A      3.636275   225A      3.647028   226A      3.654688  
     227A      3.666852   228A      3.694878   229A      3.722428  
     230A      3.734202   231A      3.771707   232A      3.789908  
     233A      3.801718   234A      3.803676   235A      3.871748  
     236A      3.886399   237A      3.900090   238A      3.952585  
     239A      3.978790   240A      3.992263   241A      4.009626  
     242A      4.035477   243A      4.037214   244A      4.057244  
     245A      4.118830   246A      4.119048   247A      4.159581  
     248A      4.166936   249A      4.200098   250A      4.237723  
     251A      4.265041   252A      4.277546   253A      4.301369  
     254A      4.308808   255A      4.349099   256A      4.365130  
     257A      4.382668   258A      4.400612   259A      4.406134  
     260A      4.407632   261A      4.447079   262A      4.451511  
     263A      4.465628   264A      4.489091   265A      4.501539  
     266A      4.505499   267A      4.516146   268A      4.532244  
     269A      4.569669   270A      4.595896   271A      4.607609  
     272A      4.641366   273A      4.653961   274A      4.706337  
     275A      4.712008   276A      4.734032   277A      4.755303  
     278A      4.757906   279A      4.775523   280A      4.788472  
     281A      4.791629   282A      4.813465   283A      4.850463  
     284A      4.895116   285A      4.898194   286A      4.906059  
     287A      4.942143   288A      4.942914   289A      4.978553  
     290A      5.067306   291A      5.073153   292A      5.074512  
     293A      5.130341   294A      5.138935   295A      5.164588  
     296A      5.168603   297A      5.209092   298A      5.221273  
     299A      5.228041   300A      5.283070   301A      5.327430  
     302A      5.419208   303A      5.438705   304A      5.482791  
     305A      5.487169   306A      5.528482   307A      5.558488  
     308A      5.590897   309A      5.634842   310A      5.682969  
     311A      5.688358   312A      5.698883   313A      5.736056  
     314A      5.773647   315A      5.815771   316A      5.864033  
     317A      5.884554   318A      5.931173   319A      5.953610  
     320A      5.960738   321A      6.044227   322A      6.064794  
     323A      6.085675   324A      6.101145   325A      6.169940  
     326A      6.188761   327A      6.236783   328A      6.300266  
     329A      6.330254   330A      6.338321   331A      6.423214  
     332A      6.442422   333A      6.446433   334A      6.542282  
     335A      6.543103   336A      6.579193   337A      6.585194  
     338A      6.624677   339A      6.705819   340A      6.770301  
     341A      6.775950   342A      6.883292   343A      6.930913  
     344A      6.937068   345A      7.117282   346A      7.247828  
     347A      7.280475   348A      7.316311   349A      7.340311  
     350A      7.365795   351A      7.450991   352A      7.464007  
     353A      7.491107   354A      7.497156   355A      7.582681  
     356A      7.770104   357A      7.794678   358A      7.822085  
     359A      7.854626   360A      8.132946   361A      8.358251  
     362A      8.426986   363A      8.878231   364A      9.052520  
     365A      9.102984   366A      9.305370   367A      9.456039  
     368A      9.760481   369A      9.853294   370A      9.882057  
     371A     10.142187   372A     10.542982   373A     10.863047  
     374A     11.386687   375A     11.518157   376A     11.687870  
     377A     11.920132   378A     12.230917   379A     13.713530  
     380A     13.861266   381A     14.823254   382A     15.905537  
     383A     44.710936   384A     55.656010   385A     60.148627  

    Final Occupation by Irrep:
              A 
    DOCC [    16 ]

  @DF-RHF Final Energy:  -208.06035526358988

   => Energetics <=

    Nuclear Repulsion Energy =            121.7727334217126725
    One-Electron Energy =                -524.4583424584562863
    Two-Electron Energy =                 194.6252537731537018
    Total Energy =                       -208.0603552635898836

Computation Completed


Properties will be evaluated at   0.000000,   0.000000,   0.000000 [a0]

Properties computed using the SCF density matrix

  Nuclear Dipole Moment: [e a0]
     X:   101.2294      Y:     1.3724      Z:     0.0019

  Electronic Dipole Moment: [e a0]
     X:  -100.5624      Y:     0.2430      Z:    -0.0014

  Dipole Moment: [e a0]
     X:     0.6669      Y:     1.6153      Z:     0.0005     Total:     1.7476

  Dipole Moment: [D]
     X:     1.6952      Y:     4.1058      Z:     0.0013     Total:     4.4420


*** tstop() called on r282 at Fri Sep 10 18:56:06 2021
Module time:
	user time   =      14.53 seconds =       0.24 minutes
	system time =       0.37 seconds =       0.01 minutes
	total time  =         15 seconds =       0.25 minutes
Total time:
	user time   =      42.58 seconds =       0.71 minutes
	system time =       1.15 seconds =       0.02 minutes
	total time  =         43 seconds =       0.72 minutes

  //>>>>>>>>>>>>>>>>>>>>>>>>>>>>>>>>>>>//
  //            Monomer B HF           //
  //<<<<<<<<<<<<<<<<<<<<<<<<<<<<<<<<<<<//


*** tstart() called on r282
*** at Fri Sep 10 18:56:06 2021

   => Loading Basis Set <=

    Name: JUN-CC-PVTZ
    Role: ORBITAL
    Keyword: BASIS
    atoms 1-2, 10    entry C          line   217 file /home/r08543048/miniconda3/share/psi4/basis/jun-cc-pvtz.gbs 
    atoms 3, 11      entry O          line   305 file /home/r08543048/miniconda3/share/psi4/basis/jun-cc-pvtz.gbs 
    atoms 4, 12      entry N          line   261 file /home/r08543048/miniconda3/share/psi4/basis/jun-cc-pvtz.gbs 
    atoms 5-9, 13-15 entry H          line    36 file /home/r08543048/miniconda3/share/psi4/basis/jun-cc-pvtz.gbs 


         ---------------------------------------------------------
                                   SCF
               by Justin Turney, Rob Parrish, Andy Simmonett
                          and Daniel G. A. Smith
                              RHF Reference
                        1 Threads,  20980 MiB Core
         ---------------------------------------------------------

  ==> Geometry <==

    Molecular point group: c1
    Full point group: C1

    Geometry (in Angstrom), charge = 0, multiplicity = 1:

       Center              X                  Y                   Z               Mass       
    ------------   -----------------  -----------------  -----------------  -----------------
      Gh(C)           3.063875651458    -0.090989231964     0.000375203147    12.000000000000
      Gh(C)           1.556213651458    -0.072689231964    -0.000189796853    12.000000000000
      Gh(O)           0.916024651458    -1.130899231964    -0.000251796853    15.994914619570
      Gh(N)           0.964033651458     1.135572768036    -0.000012796853    14.003074004430
      Gh(H)           3.504607651458     0.903080768036    -0.000329796853     1.007825032230
      Gh(H)           3.401036651458    -0.636007231964     0.879483203147     1.007825032230
      Gh(H)           3.401621651458    -0.637592231964    -0.877501796853     1.007825032230
      Gh(H)          -0.055545348542     1.206606768036     0.000051203147     1.007825032230
      Gh(H)           1.519596651458     1.970397768036     0.000312203147     1.007825032230
         C           -2.526351348542     0.096686768036    -0.000022796853    12.000000000000
         O           -1.929555348542     1.173904768036    -0.000289796853    15.994914619570
         N           -1.940099348542    -1.108719231964     0.000287203147    14.003074004430
         H           -2.511778348542    -1.933660231964     0.000526203147     1.007825032230
         H           -0.918308348542    -1.188407231964     0.000263203147     1.007825032230
         H           -3.623743348542     0.057598768036     0.000042203147     1.007825032230

  Running in c1 symmetry.

  Rotational constants: A =      0.18395  B =      0.04041  C =      0.03333 [cm^-1]
  Rotational constants: A =   5514.55825  B =   1211.39068  C =    999.32086 [MHz]
  Nuclear repulsion =   71.083937507383993

  Charge       = 0
  Multiplicity = 1
  Electrons    = 24
  Nalpha       = 12
  Nbeta        = 12

  ==> Algorithm <==

  SCF Algorithm Type is DF.
  DIIS enabled.
  MOM disabled.
  Fractional occupation disabled.
  Guess Type is SAD.
  Energy threshold   = 1.00e-08
  Density threshold  = 1.00e-08
  Integral threshold = 0.00e+00

  ==> Primary Basis <==

  Basis Set: JUN-CC-PVTZ
    Blend: JUN-CC-PVTZ
    Number of shells: 139
    Number of basis function: 385
    Number of Cartesian functions: 435
    Spherical Harmonics?: true
    Max angular momentum: 3

   => Loading Basis Set <=

    Name: (JUN-CC-PVTZ AUX)
    Role: JKFIT
    Keyword: DF_BASIS_SCF
    atoms 1-2, 10    entry C          line   152 file /home/r08543048/miniconda3/share/psi4/basis/jun-cc-pvtz-jkfit.gbs 
    atoms 3, 11      entry O          line   272 file /home/r08543048/miniconda3/share/psi4/basis/jun-cc-pvtz-jkfit.gbs 
    atoms 4, 12      entry N          line   212 file /home/r08543048/miniconda3/share/psi4/basis/jun-cc-pvtz-jkfit.gbs 
    atoms 5-9, 13-15 entry H          line    70 file /home/r08543048/miniconda3/share/psi4/basis/jun-cc-pvtz-jkfit.gbs 

  ==> Pre-Iterations <==

   -------------------------------------------------------
    Irrep   Nso     Nmo     Nalpha   Nbeta   Ndocc  Nsocc
   -------------------------------------------------------
     A        385     385       0       0       0       0
   -------------------------------------------------------
    Total     385     385      12      12      12       0
   -------------------------------------------------------

  ==> Integral Setup <==

  ==> DiskDFJK: Density-Fitted J/K Matrices <==

    J tasked:                  Yes
    K tasked:                  Yes
    wK tasked:                  No
    OpenMP threads:              1
    Integrals threads:           1
    Memory [MiB]:            15735
    Algorithm:                Core
    Integral Cache:           LOAD
    Schwarz Cutoff:          1E-12
    Fitting Condition:       1E-10

   => Auxiliary Basis Set <=

  Basis Set: (JUN-CC-PVTZ AUX)
    Blend: JUN-CC-PVTZ-JKFIT
    Number of shells: 283
    Number of basis function: 905
    Number of Cartesian functions: 1092
    Spherical Harmonics?: true
    Max angular momentum: 4

  Minimum eigenvalue in the overlap matrix is 5.4546034317E-05.
  Using Symmetric Orthogonalization.

  SCF Guess: Superposition of Atomic Densities via on-the-fly atomic UHF.

  ==> Iterations <==

                           Total Energy        Delta E     RMS |[F,P]|

   @DF-RHF iter SAD:  -168.21222614462263   -1.68212e+02   0.00000e+00 
   @DF-RHF iter   1:  -168.87774366401155   -6.65518e-01   1.39197e-03 DIIS
   @DF-RHF iter   2:  -168.95391263530541   -7.61690e-02   9.75182e-04 DIIS
   @DF-RHF iter   3:  -169.00015395821248   -4.62413e-02   1.36985e-04 DIIS
   @DF-RHF iter   4:  -169.00162618721779   -1.47223e-03   5.83498e-05 DIIS
   @DF-RHF iter   5:  -169.00192968937424   -3.03502e-04   1.20128e-05 DIIS
   @DF-RHF iter   6:  -169.00196106778751   -3.13784e-05   5.73301e-06 DIIS
   @DF-RHF iter   7:  -169.00196764881395   -6.58103e-06   2.31863e-06 DIIS
   @DF-RHF iter   8:  -169.00196879536094   -1.14655e-06   7.05970e-07 DIIS
   @DF-RHF iter   9:  -169.00196890550041   -1.10139e-07   1.94574e-07 DIIS
   @DF-RHF iter  10:  -169.00196891418386   -8.68346e-09   4.69652e-08 DIIS
   @DF-RHF iter  11:  -169.00196891459569   -4.11831e-10   8.23360e-09 DIIS
  Energy and wave function converged.


  ==> Post-Iterations <==

    Orbital Energies [Eh]
    ---------------------

    Doubly Occupied:                                                      

       1A    -20.526391     2A    -15.603166     3A    -11.356926  
       4A     -1.374536     5A     -1.226812     6A     -0.854587  
       7A     -0.756089     8A     -0.676994     9A     -0.601516  
      10A     -0.571179    11A     -0.434873    12A     -0.421319  

    Virtual:                                                              

      13A      0.032603    14A      0.045432    15A      0.060510  
      16A      0.069743    17A      0.070490    18A      0.077561  
      19A      0.084966    20A      0.104032    21A      0.108116  
      22A      0.111013    23A      0.129150    24A      0.142129  
      25A      0.145699    26A      0.147597    27A      0.159366  
      28A      0.165589    29A      0.171018    30A      0.182938  
      31A      0.184602    32A      0.192204    33A      0.212870  
      34A      0.216095    35A      0.221892    36A      0.230047  
      37A      0.254815    38A      0.256103    39A      0.258164  
      40A      0.269238    41A      0.275760    42A      0.284985  
      43A      0.307294    44A      0.311977    45A      0.329107  
      46A      0.341444    47A      0.353414    48A      0.355005  
      49A      0.361888    50A      0.366024    51A      0.382704  
      52A      0.389856    53A      0.398984    54A      0.406320  
      55A      0.417102    56A      0.429199    57A      0.445263  
      58A      0.446852    59A      0.451727    60A      0.452621  
      61A      0.462263    62A      0.477048    63A      0.500401  
      64A      0.503288    65A      0.506669    66A      0.518155  
      67A      0.555647    68A      0.569466    69A      0.571027  
      70A      0.583901    71A      0.587572    72A      0.598841  
      73A      0.605803    74A      0.609233    75A      0.619539  
      76A      0.639730    77A      0.643277    78A      0.647450  
      79A      0.673256    80A      0.694990    81A      0.720228  
      82A      0.724938    83A      0.741014    84A      0.774295  
      85A      0.788707    86A      0.796534    87A      0.797959  
      88A      0.810941    89A      0.823820    90A      0.844899  
      91A      0.850410    92A      0.878398    93A      0.878514  
      94A      0.890394    95A      0.903060    96A      0.918784  
      97A      0.934352    98A      0.941593    99A      0.950736  
     100A      0.981314   101A      1.001982   102A      1.007412  
     103A      1.014261   104A      1.016686   105A      1.040360  
     106A      1.057066   107A      1.069375   108A      1.070242  
     109A      1.084309   110A      1.089559   111A      1.097826  
     112A      1.140097   113A      1.149765   114A      1.178563  
     115A      1.181885   116A      1.202728   117A      1.207105  
     118A      1.216036   119A      1.230598   120A      1.245312  
     121A      1.274002   122A      1.286250   123A      1.305151  
     124A      1.313310   125A      1.319720   126A      1.340233  
     127A      1.358325   128A      1.358389   129A      1.380306  
     130A      1.406301   131A      1.413544   132A      1.424324  
     133A      1.429547   134A      1.455116   135A      1.483012  
     136A      1.491625   137A      1.507693   138A      1.528274  
     139A      1.536798   140A      1.544264   141A      1.583818  
     142A      1.586258   143A      1.600404   144A      1.628876  
     145A      1.643931   146A      1.648052   147A      1.664412  
     148A      1.690103   149A      1.721395   150A      1.743754  
     151A      1.761577   152A      1.769381   153A      1.783392  
     154A      1.826814   155A      1.848349   156A      1.860960  
     157A      1.870763   158A      1.910474   159A      1.918379  
     160A      1.922543   161A      1.973422   162A      1.994760  
     163A      2.015045   164A      2.050398   165A      2.072565  
     166A      2.082855   167A      2.136440   168A      2.169466  
     169A      2.236009   170A      2.261393   171A      2.289600  
     172A      2.322418   173A      2.338214   174A      2.359157  
     175A      2.364669   176A      2.393566   177A      2.436528  
     178A      2.443809   179A      2.485610   180A      2.503089  
     181A      2.530422   182A      2.571882   183A      2.638803  
     184A      2.674089   185A      2.694585   186A      2.720903  
     187A      2.742538   188A      2.783659   189A      2.857329  
     190A      2.859886   191A      2.868004   192A      2.903261  
     193A      2.969736   194A      3.017289   195A      3.072122  
     196A      3.108930   197A      3.140205   198A      3.148240  
     199A      3.199877   200A      3.233825   201A      3.328286  
     202A      3.358115   203A      3.397084   204A      3.427809  
     205A      3.439562   206A      3.461067   207A      3.483759  
     208A      3.487930   209A      3.512761   210A      3.534376  
     211A      3.550896   212A      3.587558   213A      3.597292  
     214A      3.605751   215A      3.611609   216A      3.626077  
     217A      3.663499   218A      3.680585   219A      3.708813  
     220A      3.727607   221A      3.799592   222A      3.819702  
     223A      3.836872   224A      3.839069   225A      3.881662  
     226A      3.883046   227A      3.900643   228A      3.927771  
     229A      3.928077   230A      3.961058   231A      3.972351  
     232A      4.008607   233A      4.009908   234A      4.067803  
     235A      4.099637   236A      4.113040   237A      4.156311  
     238A      4.156738   239A      4.227434   240A      4.227812  
     241A      4.234528   242A      4.244990   243A      4.275140  
     244A      4.295269   245A      4.304478   246A      4.319817  
     247A      4.327027   248A      4.335248   249A      4.385070  
     250A      4.409715   251A      4.429810   252A      4.463525  
     253A      4.489179   254A      4.496894   255A      4.505128  
     256A      4.534526   257A      4.547291   258A      4.580623  
     259A      4.614638   260A      4.625191   261A      4.652914  
     262A      4.661799   263A      4.689641   264A      4.705702  
     265A      4.716198   266A      4.732985   267A      4.747714  
     268A      4.763214   269A      4.770998   270A      4.773704  
     271A      4.784215   272A      4.814308   273A      4.829512  
     274A      4.829911   275A      4.851672   276A      4.861637  
     277A      4.884933   278A      4.914087   279A      4.930830  
     280A      4.944888   281A      4.987742   282A      5.002718  
     283A      5.011154   284A      5.043513   285A      5.044095  
     286A      5.084114   287A      5.116378   288A      5.126370  
     289A      5.149269   290A      5.176209   291A      5.187777  
     292A      5.188206   293A      5.221718   294A      5.243995  
     295A      5.265872   296A      5.286012   297A      5.315912  
     298A      5.432683   299A      5.482408   300A      5.500739  
     301A      5.519036   302A      5.617157   303A      5.659619  
     304A      5.680844   305A      5.732681   306A      5.843159  
     307A      5.871461   308A      5.910787   309A      5.947053  
     310A      5.954201   311A      5.980901   312A      5.986024  
     313A      6.018809   314A      6.027371   315A      6.035566  
     316A      6.085245   317A      6.128876   318A      6.162959  
     319A      6.221501   320A      6.244865   321A      6.254081  
     322A      6.296269   323A      6.351277   324A      6.375534  
     325A      6.432529   326A      6.457452   327A      6.504261  
     328A      6.534077   329A      6.551182   330A      6.585378  
     331A      6.671233   332A      6.684878   333A      6.687681  
     334A      6.752218   335A      6.763583   336A      6.869889  
     337A      6.928256   338A      7.011115   339A      7.112849  
     340A      7.189874   341A      7.232598   342A      7.288678  
     343A      7.322304   344A      7.341139   345A      7.429768  
     346A      7.430341   347A      7.453336   348A      7.490345  
     349A      7.537155   350A      7.537783   351A      7.618810  
     352A      7.751730   353A      7.781679   354A      7.791497  
     355A      7.835877   356A      7.847137   357A      7.855650  
     358A      7.915903   359A      8.049831   360A      8.253123  
     361A      8.465094   362A      8.857098   363A      9.084602  
     364A      9.100066   365A      9.134930   366A      9.435517  
     367A      9.791283   368A      9.850587   369A      9.876681  
     370A      9.953899   371A     10.200373   372A     10.612670  
     373A     10.919501   374A     11.503041   375A     11.552092  
     376A     11.661105   377A     11.965672   378A     12.672354  
     379A     13.794814   380A     14.186404   381A     15.915297  
     382A     42.812625   383A     46.241758   384A     55.896103  
     385A     60.583260  

    Final Occupation by Irrep:
              A 
    DOCC [    12 ]

  @DF-RHF Final Energy:  -169.00196891459569

   => Energetics <=

    Nuclear Repulsion Energy =             71.0839375073839932
    One-Electron Energy =                -371.3630325774070116
    Two-Electron Energy =                 131.2771261554273110
    Total Energy =                       -169.0019689145956931

Computation Completed


Properties will be evaluated at   0.000000,   0.000000,   0.000000 [a0]

Properties computed using the SCF density matrix

  Nuclear Dipole Moment: [e a0]
     X:   -96.8089      Y:    -1.6141      Z:     0.0007

  Electronic Dipole Moment: [e a0]
     X:    96.3908      Y:    -0.1048      Z:    -0.0003

  Dipole Moment: [e a0]
     X:    -0.4181      Y:    -1.7189      Z:     0.0004     Total:     1.7691

  Dipole Moment: [D]
     X:    -1.0627      Y:    -4.3691      Z:     0.0011     Total:     4.4965


*** tstop() called on r282 at Fri Sep 10 18:56:20 2021
Module time:
	user time   =      13.07 seconds =       0.22 minutes
	system time =       0.27 seconds =       0.00 minutes
	total time  =         14 seconds =       0.23 minutes
Total time:
	user time   =      55.65 seconds =       0.93 minutes
	system time =       1.42 seconds =       0.02 minutes
	total time  =         57 seconds =       0.95 minutes
  Constructing Basis Sets for SAPT...

   => Loading Basis Set <=

    Name: (JUN-CC-PVTZ AUX)
    Role: RIFIT
    Keyword: DF_BASIS_SAPT
    atoms 1-2, 10    entry C          line   132 file /home/r08543048/miniconda3/share/psi4/basis/jun-cc-pvtz-ri.gbs 
    atoms 3, 11      entry O          line   244 file /home/r08543048/miniconda3/share/psi4/basis/jun-cc-pvtz-ri.gbs 
    atoms 4, 12      entry N          line   188 file /home/r08543048/miniconda3/share/psi4/basis/jun-cc-pvtz-ri.gbs 
    atoms 5-9, 13-15 entry H          line    30 file /home/r08543048/miniconda3/share/psi4/basis/jun-cc-pvtz-ri.gbs 


  //>>>>>>>>>>>>>>>>>>>>>>>>>>>>>>>>>>>//
  //               SAPT0               //
  //<<<<<<<<<<<<<<<<<<<<<<<<<<<<<<<<<<<//


*** tstart() called on r282
*** at Fri Sep 10 18:56:20 2021

        SAPT0  
    Ed Hohenstein
     6 June 2009

      Orbital Information
  --------------------------
    NSO        =       385
    NMO        =       385
    NRI        =       919
    NOCC A     =        16
    NOCC B     =        12
    FOCC A     =         0
    FOCC B     =         0
    NVIR A     =       369
    NVIR B     =       373

    Elst10,r            =    -0.041238789016 [Eh]
    Exch10              =     0.037178784173 [Eh]
    Exch10 (S^2)        =     0.036720967700 [Eh]

    Iter     Energy [mEh]          dE [mEh]         Residual      Time [s]
       1      -7.64305020       7.643050202      18.947582797             0
       2      -9.09629278       1.453242580      11.021680186             0
       3      -9.80199710       0.705704319       2.689813955             1
       4      -9.71937041      -0.082626688       1.057162996             1
       5      -9.71164909      -0.007721319       0.323178064             2
       6      -9.71913634       0.007487248       0.122618950             2
       7      -9.72032430       0.001187960       0.027788631             3
       8      -9.71965283      -0.000671471       0.006453941             3
       9      -9.71965161      -0.000001223       0.001684481             3
      10      -9.71967710       0.000025493       0.000446646             4
      11      -9.71967869       0.000001589       0.000096311             4
      12      -9.71967686      -0.000001826       0.000022526             5
      13      -9.71967706       0.000000198       0.000007016             5
      14      -9.71967712       0.000000062       0.000001919             6
      15      -9.71967711      -0.000000016       0.000000430             6

    CHF Iterations converged


    Iter     Energy [mEh]          dE [mEh]         Residual      Time [s]
       1      -7.33130443       7.331304435      18.452827421             1
       2      -8.65964365       1.328339217      10.642035420             1
       3      -9.34239985       0.682756193       2.678742306             1
       4      -9.26213141      -0.080268433       1.111192380             2
       5      -9.25300970      -0.009121710       0.360000695             2
       6      -9.26049161       0.007481908       0.138416293             3
       7      -9.26247385       0.001982244       0.025988479             3
       8      -9.26173363      -0.000740230       0.005904032             3
       9      -9.26175952       0.000025897       0.001969761             4
      10      -9.26179476       0.000035234       0.000372722             4
      11      -9.26178921      -0.000005541       0.000061621             5
      12      -9.26178966       0.000000447       0.000014382             5
      13      -9.26178967       0.000000009       0.000003277             5
      14      -9.26178965      -0.000000022       0.000000682             6

    CHF Iterations converged

    Ind20,r (A<-B)      =    -0.009719677107 [Eh]
    Ind20,r (B<-A)      =    -0.009261789648 [Eh]
    Ind20,r             =    -0.018981466755 [Eh]
    Exch-Ind20,r (A<-B) =     0.005033434117 [Eh]
    Exch-Ind20,r (B<-A) =     0.004747555925 [Eh]
    Exch-Ind20,r        =     0.009780990042 [Eh]
    Disp20              =    -0.013270812984 [Eh]
    Disp20 (SS)         =    -0.006635406492 [Eh]
    Disp20 (OS)         =    -0.006635406492 [Eh]
    Exch-Disp20         =     0.002524963535 [Eh]
    Exch-Disp20 (SS)    =     0.001597545713 [Eh]
    Exch-Disp20 (OS)    =     0.000927417822 [Eh]

    SAPT Results 
  --------------------------------------------------------------------------------------------------------
    Electrostatics                -41.23878902 [mEh]     -25.87773079 [kcal/mol]    -108.27242564 [kJ/mol]
      Elst10,r                    -41.23878902 [mEh]     -25.87773079 [kcal/mol]    -108.27242564 [kJ/mol]

    Exchange                       37.17878417 [mEh]      23.33003929 [kcal/mol]      97.61288440 [kJ/mol]
      Exch10                       37.17878417 [mEh]      23.33003929 [kcal/mol]      97.61288440 [kJ/mol]
      Exch10(S^2)                  36.72096770 [mEh]      23.04275512 [kcal/mol]      96.41088741 [kJ/mol]

    Induction                     -15.96066322 [mEh]     -10.01546738 [kcal/mol]     -41.90471551 [kJ/mol]
      Ind20,r                     -18.98146676 [mEh]     -11.91105022 [kcal/mol]     -49.83583410 [kJ/mol]
      Exch-Ind20,r                  9.78099004 [mEh]       6.13766391 [kcal/mol]      25.67998582 [kJ/mol]
      delta HF,r (2)               -6.76018651 [mEh]      -4.24208108 [kcal/mol]     -17.74886722 [kJ/mol]

    Dispersion                    -10.74584945 [mEh]      -6.74312233 [kcal/mol]     -28.21322384 [kJ/mol]
      Disp20                      -13.27081298 [mEh]      -8.32756087 [kcal/mol]     -34.84251469 [kJ/mol]
      Exch-Disp20                   2.52496354 [mEh]       1.58443854 [kcal/mol]       6.62929085 [kJ/mol]
      Disp20 (SS)                  -6.63540649 [mEh]      -4.16378044 [kcal/mol]     -17.42125734 [kJ/mol]
      Disp20 (OS)                  -6.63540649 [mEh]      -4.16378044 [kcal/mol]     -17.42125734 [kJ/mol]
      Exch-Disp20 (SS)              1.59754571 [mEh]       1.00247507 [kcal/mol]       4.19435569 [kJ/mol]
      Exch-Disp20 (OS)              0.92741782 [mEh]       0.58196347 [kcal/mol]       2.43493516 [kJ/mol]

  Total HF                        -20.02066806 [mEh]     -12.56315888 [kcal/mol]     -52.56425675 [kJ/mol]
  Total SAPT0                     -30.76651751 [mEh]     -19.30628121 [kcal/mol]     -80.77748059 [kJ/mol]

  Special recipe for scaled SAPT0 (see Manual):
    Electrostatics sSAPT0         -41.23878902 [mEh]     -25.87773079 [kcal/mol]    -108.27242564 [kJ/mol]
    Exchange sSAPT0                37.17878417 [mEh]      23.33003929 [kcal/mol]      97.61288440 [kJ/mol]
    Induction sSAPT0              -15.59025155 [mEh]      -9.78303055 [kcal/mol]     -40.93219981 [kJ/mol]
    Dispersion sSAPT0             -10.65022764 [mEh]      -6.68311874 [kcal/mol]     -27.96216882 [kJ/mol]
  Total sSAPT0                    -30.30048403 [mEh]     -19.01384079 [kcal/mol]     -79.55390987 [kJ/mol]
  --------------------------------------------------------------------------------------------------------

*** tstop() called on r282 at Fri Sep 10 18:57:09 2021
Module time:
	user time   =      40.57 seconds =       0.68 minutes
	system time =       8.21 seconds =       0.14 minutes
	total time  =         49 seconds =       0.82 minutes
Total time:
	user time   =      96.32 seconds =       1.61 minutes
	system time =       9.63 seconds =       0.16 minutes
	total time  =        106 seconds =       1.77 minutes

    Psi4 stopped on: Friday, 10 September 2021 06:57PM
    Psi4 wall time for execution: 0:01:46.11

*** Psi4 exiting successfully. Buy a developer a beer!
