
    -----------------------------------------------------------------------
          Psi4: An Open-Source Ab Initio Electronic Structure Package
                               Psi4 1.3.2 release

                         Git: Rev {HEAD} ecbda83 


    R. M. Parrish, L. A. Burns, D. G. A. Smith, A. C. Simmonett,
    A. E. DePrince III, E. G. Hohenstein, U. Bozkaya, A. Yu. Sokolov,
    R. Di Remigio, R. M. Richard, J. F. Gonthier, A. M. James,
    H. R. McAlexander, A. Kumar, M. Saitow, X. Wang, B. P. Pritchard,
    P. Verma, H. F. Schaefer III, K. Patkowski, R. A. King, E. F. Valeev,
    F. A. Evangelista, J. M. Turney, T. D. Crawford, and C. D. Sherrill,
    J. Chem. Theory Comput. 13(7) pp 3185--3197 (2017).
    (doi: 10.1021/acs.jctc.7b00174)


                         Additional Contributions by
    P. Kraus, H. Kruse, M. H. Lechner, M. C. Schieber, R. A. Shaw,
    A. Alenaizan, R. Galvelis, Z. L. Glick, S. Lehtola, and J. P. Misiewicz

    -----------------------------------------------------------------------


    Psi4 started on: Thursday, 09 September 2021 12:23PM

    Process ID: 54100
    Host:       r282
    PSIDATADIR: /home/r08543048/miniconda3/share/psi4
    Memory:     500.0 MiB
    Threads:    1
    
  ==> Input File <==

--------------------------------------------------------------------------
# Any line starting with the # character is a comment line
#! Sample  computation

memory 22 gb

molecule Dimer {
 
0 1                               
 C    3.50547300    0.64706500    0.00057200
 C    2.01244700    0.38807000   -0.00008300
 O    1.22568200    1.34439300   -0.00052200
 N    1.59761400   -0.88990900   -0.00011900
 H    0.59429300   -1.09901900   -0.00029700
 H    2.26265000   -1.64040300    0.00038900
 C    4.42145300   -0.56848300    0.00023900
 H    5.46387000   -0.25456400    0.00056300
 H    4.26829700   -1.18632700    0.88538700
 H    4.26858500   -1.18558400   -0.88547500
 H    3.69825600    1.27621600   -0.86934900
 H    3.69765800    1.27525800    0.87132700















 --
0 1
 C    -3.50546200   -0.64707200    0.00013600
 C    -2.01243500   -0.38805700   -0.00029700
 O    -1.22566500   -1.34437600   -0.00037900
 N    -1.59763200    0.88993000   -0.00063100
 H    -0.59432400    1.09907600   -0.00075400
 H    -2.26270000    1.64039700   -0.00046000
 C    -4.42146500    0.56844800    0.00080000
 H    -4.26888900    1.18610000   -0.88458600
 H    -5.46387600    0.25450800    0.00121100
 H    -4.26805300    1.18575600    0.88627600
 H    -3.69822600   -1.27549600   -0.87032500
 H    -3.69761500   -1.27602300    0.87034400

















 
 
 
units angstrom

no_reorient
symmetry c1
}

set globals{
  basis jun-cc-pVTZ
  scf_type DF 
  freeze_core True
}

energy('sapt0')


--------------------------------------------------------------------------

  Memory set to  20.489 GiB by Python driver.

  //>>>>>>>>>>>>>>>>>>>>>>>>>>>>>>>>>>>//
  //              Dimer HF             //
  //<<<<<<<<<<<<<<<<<<<<<<<<<<<<<<<<<<<//


*** tstart() called on r282
*** at Thu Sep  9 12:23:33 2021

   => Loading Basis Set <=

    Name: JUN-CC-PVTZ
    Role: ORBITAL
    Keyword: BASIS
    atoms 1-2, 7, 13-14, 19       entry C          line   217 file /home/r08543048/miniconda3/share/psi4/basis/jun-cc-pvtz.gbs 
    atoms 3, 15                   entry O          line   305 file /home/r08543048/miniconda3/share/psi4/basis/jun-cc-pvtz.gbs 
    atoms 4, 16                   entry N          line   261 file /home/r08543048/miniconda3/share/psi4/basis/jun-cc-pvtz.gbs 
    atoms 5-6, 8-12, 17-18, 20-24 entry H          line    36 file /home/r08543048/miniconda3/share/psi4/basis/jun-cc-pvtz.gbs 


         ---------------------------------------------------------
                                   SCF
               by Justin Turney, Rob Parrish, Andy Simmonett
                          and Daniel G. A. Smith
                              RHF Reference
                        1 Threads,  20980 MiB Core
         ---------------------------------------------------------

  ==> Geometry <==

    Molecular point group: c1
    Full point group: C1

    Geometry (in Angstrom), charge = 0, multiplicity = 1:

       Center              X                  Y                   Z               Mass       
    ------------   -----------------  -----------------  -----------------  -----------------
         C            3.505472471073     0.647064232360     0.000600920599    12.000000000000
         C            2.012446471073     0.388069232360    -0.000054079401    12.000000000000
         O            1.225681471073     1.344392232360    -0.000493079401    15.994914619570
         N            1.597613471073    -0.889909767640    -0.000090079401    14.003074004430
         H            0.594292471073    -1.099019767640    -0.000268079401     1.007825032230
         H            2.262649471073    -1.640403767640     0.000417920599     1.007825032230
         C            4.421452471073    -0.568483767640     0.000267920599    12.000000000000
         H            5.463869471073    -0.254564767640     0.000591920599     1.007825032230
         H            4.268296471073    -1.186327767640     0.885415920599     1.007825032230
         H            4.268584471073    -1.185584767640    -0.885446079401     1.007825032230
         H            3.698255471073     1.276215232360    -0.869320079401     1.007825032230
         H            3.697657471073     1.275257232360     0.871355920599     1.007825032230
         C           -3.505462528927    -0.647072767640     0.000164920599    12.000000000000
         C           -2.012435528927    -0.388057767640    -0.000268079401    12.000000000000
         O           -1.225665528927    -1.344376767640    -0.000350079401    15.994914619570
         N           -1.597632528927     0.889929232360    -0.000602079401    14.003074004430
         H           -0.594324528927     1.099075232360    -0.000725079401     1.007825032230
         H           -2.262700528927     1.640396232360    -0.000431079401     1.007825032230
         C           -4.421465528927     0.568447232360     0.000828920599    12.000000000000
         H           -4.268889528927     1.186099232360    -0.884557079401     1.007825032230
         H           -5.463876528927     0.254507232360     0.001239920599     1.007825032230
         H           -4.268053528927     1.185755232360     0.886304920599     1.007825032230
         H           -3.698226528927    -1.275496767640    -0.870296079401     1.007825032230
         H           -3.697615528927    -1.276023767640     0.870372920599     1.007825032230

  Running in c1 symmetry.

  Rotational constants: A =      0.13201  B =      0.01420  C =      0.01294 [cm^-1]
  Rotational constants: A =   3957.66337  B =    425.76463  C =    388.07857 [MHz]
  Nuclear repulsion =  532.669618490869880

  Charge       = 0
  Multiplicity = 1
  Electrons    = 80
  Nalpha       = 40
  Nbeta        = 40

  ==> Algorithm <==

  SCF Algorithm Type is DF.
  DIIS enabled.
  MOM disabled.
  Fractional occupation disabled.
  Guess Type is SAD.
  Energy threshold   = 1.00e-08
  Density threshold  = 1.00e-08
  Integral threshold = 0.00e+00

  ==> Primary Basis <==

  Basis Set: JUN-CC-PVTZ
    Blend: JUN-CC-PVTZ
    Number of shells: 214
    Number of basis function: 586
    Number of Cartesian functions: 660
    Spherical Harmonics?: true
    Max angular momentum: 3

   => Loading Basis Set <=

    Name: (JUN-CC-PVTZ AUX)
    Role: JKFIT
    Keyword: DF_BASIS_SCF
    atoms 1-2, 7, 13-14, 19       entry C          line   152 file /home/r08543048/miniconda3/share/psi4/basis/jun-cc-pvtz-jkfit.gbs 
    atoms 3, 15                   entry O          line   272 file /home/r08543048/miniconda3/share/psi4/basis/jun-cc-pvtz-jkfit.gbs 
    atoms 4, 16                   entry N          line   212 file /home/r08543048/miniconda3/share/psi4/basis/jun-cc-pvtz-jkfit.gbs 
    atoms 5-6, 8-12, 17-18, 20-24 entry H          line    70 file /home/r08543048/miniconda3/share/psi4/basis/jun-cc-pvtz-jkfit.gbs 

  ==> Pre-Iterations <==

   -------------------------------------------------------
    Irrep   Nso     Nmo     Nalpha   Nbeta   Ndocc  Nsocc
   -------------------------------------------------------
     A        586     586       0       0       0       0
   -------------------------------------------------------
    Total     586     586      40      40      40       0
   -------------------------------------------------------

  ==> Integral Setup <==

  ==> DiskDFJK: Density-Fitted J/K Matrices <==

    J tasked:                  Yes
    K tasked:                  Yes
    wK tasked:                  No
    OpenMP threads:              1
    Integrals threads:           1
    Memory [MiB]:            15735
    Algorithm:                Core
    Integral Cache:           SAVE
    Schwarz Cutoff:          1E-12
    Fitting Condition:       1E-10

   => Auxiliary Basis Set <=

  Basis Set: (JUN-CC-PVTZ AUX)
    Blend: JUN-CC-PVTZ-JKFIT
    Number of shells: 430
    Number of basis function: 1370
    Number of Cartesian functions: 1650
    Spherical Harmonics?: true
    Max angular momentum: 4

  Minimum eigenvalue in the overlap matrix is 3.0496707318E-05.
  Using Symmetric Orthogonalization.

  SCF Guess: Superposition of Atomic Densities via on-the-fly atomic UHF.

  ==> Iterations <==

                           Total Energy        Delta E     RMS |[F,P]|

   @DF-RHF iter SAD:  -492.89493404256069   -4.92895e+02   0.00000e+00 
   @DF-RHF iter   1:  -493.84248596462538   -9.47552e-01   1.50771e-03 DIIS
   @DF-RHF iter   2:  -494.15060854098073   -3.08123e-01   7.86589e-04 DIIS
   @DF-RHF iter   3:  -494.22583578022829   -7.52272e-02   1.54292e-04 DIIS
   @DF-RHF iter   4:  -494.23082679651247   -4.99102e-03   7.06418e-05 DIIS
   @DF-RHF iter   5:  -494.23180434209257   -9.77546e-04   1.23248e-05 DIIS
   @DF-RHF iter   6:  -494.23186426123402   -5.99191e-05   5.01980e-06 DIIS
   @DF-RHF iter   7:  -494.23187205223849   -7.79100e-06   1.89236e-06 DIIS
   @DF-RHF iter   8:  -494.23187402875192   -1.97651e-06   7.49299e-07 DIIS
   @DF-RHF iter   9:  -494.23187437883007   -3.50078e-07   1.79747e-07 DIIS
   @DF-RHF iter  10:  -494.23187439865819   -1.98281e-08   5.63865e-08 DIIS
   @DF-RHF iter  11:  -494.23187439987760   -1.21941e-09   1.72318e-08 DIIS
   @DF-RHF iter  12:  -494.23187439997940   -1.01807e-10   4.71954e-09 DIIS
  Energy and wave function converged.


  ==> Post-Iterations <==

    Orbital Energies [Eh]
    ---------------------

    Doubly Occupied:                                                      

       1A    -20.508598     2A    -20.508595     3A    -15.565108  
       4A    -15.565104     5A    -11.345973     6A    -11.345971  
       7A    -11.236810     8A    -11.236809     9A    -11.230543  
      10A    -11.230541    11A     -1.369781    12A     -1.364754  
      13A     -1.204305    14A     -1.197386    15A     -1.054099  
      16A     -1.051762    17A     -0.901497    18A     -0.895859  
      19A     -0.787300    20A     -0.776534    21A     -0.725519  
      22A     -0.720347    23A     -0.664301    24A     -0.639922  
      25A     -0.639049    26A     -0.629221    27A     -0.595047  
      28A     -0.577419    29A     -0.556546    30A     -0.551826  
      31A     -0.551379    32A     -0.550672    33A     -0.520850  
      34A     -0.516841    35A     -0.497535    36A     -0.494444  
      37A     -0.428692    38A     -0.407493    39A     -0.407467  
      40A     -0.396685  

    Virtual:                                                              

      41A      0.044915    42A      0.048145    43A      0.060107  
      44A      0.063441    45A      0.071728    46A      0.071798  
      47A      0.076679    48A      0.084118    49A      0.098645  
      50A      0.104193    51A      0.106253    52A      0.107192  
      53A      0.111547    54A      0.113815    55A      0.116780  
      56A      0.132288    57A      0.144645    58A      0.146082  
      59A      0.156052    60A      0.167571    61A      0.169028  
      62A      0.173347    63A      0.185134    64A      0.188420  
      65A      0.195763    66A      0.202718    67A      0.206361  
      68A      0.207287    69A      0.210640    70A      0.218747  
      71A      0.235886    72A      0.238837    73A      0.243763  
      74A      0.260562    75A      0.265417    76A      0.266092  
      77A      0.269998    78A      0.271683    79A      0.282727  
      80A      0.287028    81A      0.289858    82A      0.295809  
      83A      0.295941    84A      0.302581    85A      0.309252  
      86A      0.313342    87A      0.314421    88A      0.315917  
      89A      0.322652    90A      0.333660    91A      0.335975  
      92A      0.343234    93A      0.359545    94A      0.362912  
      95A      0.363163    96A      0.364301    97A      0.373849  
      98A      0.376569    99A      0.379390   100A      0.391630  
     101A      0.394569   102A      0.405250   103A      0.411992  
     104A      0.428062   105A      0.430137   106A      0.441306  
     107A      0.442076   108A      0.448868   109A      0.449474  
     110A      0.457559   111A      0.461942   112A      0.478362  
     113A      0.485411   114A      0.500040   115A      0.503622  
     116A      0.505091   117A      0.509930   118A      0.515929  
     119A      0.519838   120A      0.532451   121A      0.538203  
     122A      0.539475   123A      0.543905   124A      0.551889  
     125A      0.553779   126A      0.565322   127A      0.571146  
     128A      0.588977   129A      0.606243   130A      0.611902  
     131A      0.619683   132A      0.620718   133A      0.621099  
     134A      0.621148   135A      0.637858   136A      0.640028  
     137A      0.644733   138A      0.645470   139A      0.661572  
     140A      0.663473   141A      0.677576   142A      0.690867  
     143A      0.702914   144A      0.709878   145A      0.711345  
     146A      0.720111   147A      0.728879   148A      0.739236  
     149A      0.758307   150A      0.761041   151A      0.764849  
     152A      0.771415   153A      0.776338   154A      0.782563  
     155A      0.786448   156A      0.789266   157A      0.800858  
     158A      0.804061   159A      0.817805   160A      0.820463  
     161A      0.826340   162A      0.844426   163A      0.857110  
     164A      0.871516   165A      0.886372   166A      0.891369  
     167A      0.909072   168A      0.909184   169A      0.909535  
     170A      0.919063   171A      0.922420   172A      0.929401  
     173A      0.932756   174A      0.937835   175A      0.945589  
     176A      0.956976   177A      0.966810   178A      0.970773  
     179A      0.989899   180A      0.990646   181A      0.992405  
     182A      1.003925   183A      1.033342   184A      1.046004  
     185A      1.049748   186A      1.069454   187A      1.077309  
     188A      1.086893   189A      1.087027   190A      1.090017  
     191A      1.099152   192A      1.103509   193A      1.136342  
     194A      1.143862   195A      1.145498   196A      1.154148  
     197A      1.156552   198A      1.171545   199A      1.185036  
     200A      1.211643   201A      1.212788   202A      1.217416  
     203A      1.253412   204A      1.267810   205A      1.272086  
     206A      1.273482   207A      1.297938   208A      1.299641  
     209A      1.305462   210A      1.325372   211A      1.326848  
     212A      1.334089   213A      1.347470   214A      1.349142  
     215A      1.367542   216A      1.371715   217A      1.378277  
     218A      1.385338   219A      1.386553   220A      1.394530  
     221A      1.397260   222A      1.401721   223A      1.418448  
     224A      1.419536   225A      1.437075   226A      1.440180  
     227A      1.448309   228A      1.460182   229A      1.474521  
     230A      1.474900   231A      1.476753   232A      1.479402  
     233A      1.506127   234A      1.506160   235A      1.509849  
     236A      1.512123   237A      1.528161   238A      1.549804  
     239A      1.551369   240A      1.555583   241A      1.569146  
     242A      1.579041   243A      1.589928   244A      1.591860  
     245A      1.596363   246A      1.610367   247A      1.612771  
     248A      1.618196   249A      1.654556   250A      1.656285  
     251A      1.663707   252A      1.673699   253A      1.699557  
     254A      1.710734   255A      1.750598   256A      1.756153  
     257A      1.756605   258A      1.772755   259A      1.785095  
     260A      1.804594   261A      1.819909   262A      1.827967  
     263A      1.838687   264A      1.840440   265A      1.853830  
     266A      1.855435   267A      1.888661   268A      1.912505  
     269A      1.925138   270A      1.927030   271A      1.936188  
     272A      1.939981   273A      1.956490   274A      1.969879  
     275A      2.021561   276A      2.029856   277A      2.032418  
     278A      2.041769   279A      2.088278   280A      2.139991  
     281A      2.146453   282A      2.200061   283A      2.251194  
     284A      2.257582   285A      2.345251   286A      2.356530  
     287A      2.373419   288A      2.394407   289A      2.404805  
     290A      2.422864   291A      2.471108   292A      2.475866  
     293A      2.494869   294A      2.499140   295A      2.639244  
     296A      2.642410   297A      2.647522   298A      2.712989  
     299A      2.771369   300A      2.778119   301A      2.789799  
     302A      2.816728   303A      2.821074   304A      2.826799  
     305A      2.854770   306A      2.872471   307A      2.874926  
     308A      2.881851   309A      2.940174   310A      2.941445  
     311A      2.961286   312A      2.983463   313A      2.998947  
     314A      3.017685   315A      3.026866   316A      3.033030  
     317A      3.037666   318A      3.055094   319A      3.077399  
     320A      3.083149   321A      3.101312   322A      3.106437  
     323A      3.121165   324A      3.121575   325A      3.126217  
     326A      3.155606   327A      3.188306   328A      3.202098  
     329A      3.211245   330A      3.224644   331A      3.230590  
     332A      3.236566   333A      3.237763   334A      3.246859  
     335A      3.307774   336A      3.308246   337A      3.333249  
     338A      3.341966   339A      3.342293   340A      3.350868  
     341A      3.373434   342A      3.378792   343A      3.383263  
     344A      3.391874   345A      3.393662   346A      3.397629  
     347A      3.421687   348A      3.431622   349A      3.449999  
     350A      3.467595   351A      3.470335   352A      3.484209  
     353A      3.484738   354A      3.485965   355A      3.494066  
     356A      3.512644   357A      3.513338   358A      3.517314  
     359A      3.523957   360A      3.529579   361A      3.537181  
     362A      3.553242   363A      3.557429   364A      3.564703  
     365A      3.575873   366A      3.578150   367A      3.584068  
     368A      3.588906   369A      3.599073   370A      3.604988  
     371A      3.611210   372A      3.628946   373A      3.634464  
     374A      3.660053   375A      3.661084   376A      3.681438  
     377A      3.686875   378A      3.697125   379A      3.707269  
     380A      3.710160   381A      3.711451   382A      3.713239  
     383A      3.736634   384A      3.770000   385A      3.772074  
     386A      3.773274   387A      3.845144   388A      3.857559  
     389A      3.875174   390A      3.876407   391A      3.893689  
     392A      3.896160   393A      3.897538   394A      3.898625  
     395A      3.919831   396A      3.921362   397A      3.951790  
     398A      3.989069   399A      3.996462   400A      4.004672  
     401A      4.009598   402A      4.018246   403A      4.033802  
     404A      4.064986   405A      4.071003   406A      4.080646  
     407A      4.081088   408A      4.113717   409A      4.134137  
     410A      4.144426   411A      4.183208   412A      4.184738  
     413A      4.186255   414A      4.198707   415A      4.200771  
     416A      4.204169   417A      4.246778   418A      4.258818  
     419A      4.263302   420A      4.264839   421A      4.269392  
     422A      4.277195   423A      4.318097   424A      4.319624  
     425A      4.331161   426A      4.332335   427A      4.335909  
     428A      4.337180   429A      4.367052   430A      4.370210  
     431A      4.395391   432A      4.405410   433A      4.405560  
     434A      4.414544   435A      4.427444   436A      4.449262  
     437A      4.459441   438A      4.470509   439A      4.475909  
     440A      4.476332   441A      4.501893   442A      4.502669  
     443A      4.505836   444A      4.505871   445A      4.554108  
     446A      4.563245   447A      4.576316   448A      4.577318  
     449A      4.587049   450A      4.598028   451A      4.606964  
     452A      4.627303   453A      4.629853   454A      4.632591  
     455A      4.656956   456A      4.676269   457A      4.687474  
     458A      4.688285   459A      4.695830   460A      4.698622  
     461A      4.725251   462A      4.726982   463A      4.768134  
     464A      4.774547   465A      4.784853   466A      4.789468  
     467A      4.797290   468A      4.798228   469A      4.850405  
     470A      4.873746   471A      4.895886   472A      4.904671  
     473A      4.916295   474A      4.924040   475A      4.937629  
     476A      4.939367   477A      4.988066   478A      4.997784  
     479A      5.015605   480A      5.070060   481A      5.116960  
     482A      5.122148   483A      5.190978   484A      5.203639  
     485A      5.214320   486A      5.218774   487A      5.219765  
     488A      5.246754   489A      5.248036   490A      5.257063  
     491A      5.259975   492A      5.267100   493A      5.283985  
     494A      5.297073   495A      5.353027   496A      5.353809  
     497A      5.355528   498A      5.356733   499A      5.391111  
     500A      5.391379   501A      5.413485   502A      5.452472  
     503A      5.453217   504A      5.454787   505A      5.507996  
     506A      5.530805   507A      5.549477   508A      5.550089  
     509A      5.587959   510A      5.612157   511A      5.639358  
     512A      5.642780   513A      5.647510   514A      5.653739  
     515A      5.711539   516A      5.731308   517A      5.741752  
     518A      5.746301   519A      5.747126   520A      5.758672  
     521A      5.760115   522A      5.771468   523A      5.807151  
     524A      5.811847   525A      5.868508   526A      5.873572  
     527A      5.893895   528A      5.901014   529A      5.935869  
     530A      5.956032   531A      5.974284   532A      5.976265  
     533A      5.996727   534A      6.009786   535A      6.043215  
     536A      6.045352   537A      6.059472   538A      6.079501  
     539A      6.114350   540A      6.156694   541A      6.235909  
     542A      6.244397   543A      6.249374   544A      6.251209  
     545A      6.373608   546A      6.430737   547A      6.478275  
     548A      6.479480   549A      6.537385   550A      6.540489  
     551A      6.542204   552A      6.549729   553A      6.621667  
     554A      6.642832   555A      6.738503   556A      6.741735  
     557A      6.767202   558A      6.772217   559A      6.831793  
     560A      6.948088   561A      7.264263   562A      7.264481  
     563A      7.286133   564A      7.289327   565A      7.391619  
     566A      7.393838   567A      7.466751   568A      7.468221  
     569A      7.486025   570A      7.498429   571A      7.541153  
     572A      7.626572   573A      7.791645   574A      7.796845  
     575A      7.934588   576A      7.966133   577A     12.332953  
     578A     12.632184   579A     13.795526   580A     13.868503  
     581A     14.352500   582A     14.353752   583A     14.719377  
     584A     14.747559   585A     16.147659   586A     16.177470  

    Final Occupation by Irrep:
              A 
    DOCC [    40 ]

  @DF-RHF Final Energy:  -494.23187439997940

   => Energetics <=

    Nuclear Repulsion Energy =            532.6696184908698797
    One-Electron Energy =               -1730.9058289008885367
    Two-Electron Energy =                 704.0043360100391965
    Total Energy =                       -494.2318743999794606

Computation Completed


Properties will be evaluated at   0.000000,   0.000000,   0.000000 [a0]

Properties computed using the SCF density matrix

  Nuclear Dipole Moment: [e a0]
     X:    -0.0001      Y:    -0.0001      Z:     0.0044

  Electronic Dipole Moment: [e a0]
     X:     0.0000      Y:     0.0001      Z:    -0.0034

  Dipole Moment: [e a0]
     X:    -0.0001      Y:    -0.0000      Z:     0.0010     Total:     0.0010

  Dipole Moment: [D]
     X:    -0.0001      Y:    -0.0000      Z:     0.0025     Total:     0.0025


*** tstop() called on r282 at Thu Sep  9 12:25:33 2021
Module time:
	user time   =     117.35 seconds =       1.96 minutes
	system time =       2.13 seconds =       0.04 minutes
	total time  =        120 seconds =       2.00 minutes
Total time:
	user time   =     117.35 seconds =       1.96 minutes
	system time =       2.13 seconds =       0.04 minutes
	total time  =        120 seconds =       2.00 minutes

  //>>>>>>>>>>>>>>>>>>>>>>>>>>>>>>>>>>>//
  //            Monomer A HF           //
  //<<<<<<<<<<<<<<<<<<<<<<<<<<<<<<<<<<<//


*** tstart() called on r282
*** at Thu Sep  9 12:25:33 2021

   => Loading Basis Set <=

    Name: JUN-CC-PVTZ
    Role: ORBITAL
    Keyword: BASIS
    atoms 1-2, 7, 13-14, 19       entry C          line   217 file /home/r08543048/miniconda3/share/psi4/basis/jun-cc-pvtz.gbs 
    atoms 3, 15                   entry O          line   305 file /home/r08543048/miniconda3/share/psi4/basis/jun-cc-pvtz.gbs 
    atoms 4, 16                   entry N          line   261 file /home/r08543048/miniconda3/share/psi4/basis/jun-cc-pvtz.gbs 
    atoms 5-6, 8-12, 17-18, 20-24 entry H          line    36 file /home/r08543048/miniconda3/share/psi4/basis/jun-cc-pvtz.gbs 


         ---------------------------------------------------------
                                   SCF
               by Justin Turney, Rob Parrish, Andy Simmonett
                          and Daniel G. A. Smith
                              RHF Reference
                        1 Threads,  20980 MiB Core
         ---------------------------------------------------------

  ==> Geometry <==

    Molecular point group: c1
    Full point group: C1

    Geometry (in Angstrom), charge = 0, multiplicity = 1:

       Center              X                  Y                   Z               Mass       
    ------------   -----------------  -----------------  -----------------  -----------------
         C            3.505472471073     0.647064232360     0.000600920599    12.000000000000
         C            2.012446471073     0.388069232360    -0.000054079401    12.000000000000
         O            1.225681471073     1.344392232360    -0.000493079401    15.994914619570
         N            1.597613471073    -0.889909767640    -0.000090079401    14.003074004430
         H            0.594292471073    -1.099019767640    -0.000268079401     1.007825032230
         H            2.262649471073    -1.640403767640     0.000417920599     1.007825032230
         C            4.421452471073    -0.568483767640     0.000267920599    12.000000000000
         H            5.463869471073    -0.254564767640     0.000591920599     1.007825032230
         H            4.268296471073    -1.186327767640     0.885415920599     1.007825032230
         H            4.268584471073    -1.185584767640    -0.885446079401     1.007825032230
         H            3.698255471073     1.276215232360    -0.869320079401     1.007825032230
         H            3.697657471073     1.275257232360     0.871355920599     1.007825032230
      Gh(C)          -3.505462528927    -0.647072767640     0.000164920599    12.000000000000
      Gh(C)          -2.012435528927    -0.388057767640    -0.000268079401    12.000000000000
      Gh(O)          -1.225665528927    -1.344376767640    -0.000350079401    15.994914619570
      Gh(N)          -1.597632528927     0.889929232360    -0.000602079401    14.003074004430
      Gh(H)          -0.594324528927     1.099075232360    -0.000725079401     1.007825032230
      Gh(H)          -2.262700528927     1.640396232360    -0.000431079401     1.007825032230
      Gh(C)          -4.421465528927     0.568447232360     0.000828920599    12.000000000000
      Gh(H)          -4.268889528927     1.186099232360    -0.884557079401     1.007825032230
      Gh(H)          -5.463876528927     0.254507232360     0.001239920599     1.007825032230
      Gh(H)          -4.268053528927     1.185755232360     0.886304920599     1.007825032230
      Gh(H)          -3.698226528927    -1.275496767640    -0.870296079401     1.007825032230
      Gh(H)          -3.697615528927    -1.276023767640     0.870372920599     1.007825032230

  Running in c1 symmetry.

  Rotational constants: A =      0.13201  B =      0.01420  C =      0.01294 [cm^-1]
  Rotational constants: A =   3957.66337  B =    425.76463  C =    388.07857 [MHz]
  Nuclear repulsion =  179.143156117053735

  Charge       = 0
  Multiplicity = 1
  Electrons    = 40
  Nalpha       = 20
  Nbeta        = 20

  ==> Algorithm <==

  SCF Algorithm Type is DF.
  DIIS enabled.
  MOM disabled.
  Fractional occupation disabled.
  Guess Type is SAD.
  Energy threshold   = 1.00e-08
  Density threshold  = 1.00e-08
  Integral threshold = 0.00e+00

  ==> Primary Basis <==

  Basis Set: JUN-CC-PVTZ
    Blend: JUN-CC-PVTZ
    Number of shells: 214
    Number of basis function: 586
    Number of Cartesian functions: 660
    Spherical Harmonics?: true
    Max angular momentum: 3

   => Loading Basis Set <=

    Name: (JUN-CC-PVTZ AUX)
    Role: JKFIT
    Keyword: DF_BASIS_SCF
    atoms 1-2, 7, 13-14, 19       entry C          line   152 file /home/r08543048/miniconda3/share/psi4/basis/jun-cc-pvtz-jkfit.gbs 
    atoms 3, 15                   entry O          line   272 file /home/r08543048/miniconda3/share/psi4/basis/jun-cc-pvtz-jkfit.gbs 
    atoms 4, 16                   entry N          line   212 file /home/r08543048/miniconda3/share/psi4/basis/jun-cc-pvtz-jkfit.gbs 
    atoms 5-6, 8-12, 17-18, 20-24 entry H          line    70 file /home/r08543048/miniconda3/share/psi4/basis/jun-cc-pvtz-jkfit.gbs 

  ==> Pre-Iterations <==

   -------------------------------------------------------
    Irrep   Nso     Nmo     Nalpha   Nbeta   Ndocc  Nsocc
   -------------------------------------------------------
     A        586     586       0       0       0       0
   -------------------------------------------------------
    Total     586     586      20      20      20       0
   -------------------------------------------------------

  ==> Integral Setup <==

  ==> DiskDFJK: Density-Fitted J/K Matrices <==

    J tasked:                  Yes
    K tasked:                  Yes
    wK tasked:                  No
    OpenMP threads:              1
    Integrals threads:           1
    Memory [MiB]:            15735
    Algorithm:                Core
    Integral Cache:           LOAD
    Schwarz Cutoff:          1E-12
    Fitting Condition:       1E-10

   => Auxiliary Basis Set <=

  Basis Set: (JUN-CC-PVTZ AUX)
    Blend: JUN-CC-PVTZ-JKFIT
    Number of shells: 430
    Number of basis function: 1370
    Number of Cartesian functions: 1650
    Spherical Harmonics?: true
    Max angular momentum: 4

  Minimum eigenvalue in the overlap matrix is 3.0496707318E-05.
  Using Symmetric Orthogonalization.

  SCF Guess: Superposition of Atomic Densities via on-the-fly atomic UHF.

  ==> Iterations <==

                           Total Energy        Delta E     RMS |[F,P]|

   @DF-RHF iter SAD:  -246.33269782974918   -2.46333e+02   0.00000e+00 
   @DF-RHF iter   1:  -246.89264475202168   -5.59947e-01   1.10974e-03 DIIS
   @DF-RHF iter   2:  -247.05420197289499   -1.61557e-01   6.36112e-04 DIIS
   @DF-RHF iter   3:  -247.10214571871720   -4.79437e-02   1.22861e-04 DIIS
   @DF-RHF iter   4:  -247.10509768509849   -2.95197e-03   5.47673e-05 DIIS
   @DF-RHF iter   5:  -247.10573096633726   -6.33281e-04   9.28400e-06 DIIS
   @DF-RHF iter   6:  -247.10576920211980   -3.82358e-05   3.83116e-06 DIIS
   @DF-RHF iter   7:  -247.10577427692542   -5.07481e-06   1.59712e-06 DIIS
   @DF-RHF iter   8:  -247.10577551746644   -1.24054e-06   5.91658e-07 DIIS
   @DF-RHF iter   9:  -247.10577572330615   -2.05840e-07   1.31856e-07 DIIS
   @DF-RHF iter  10:  -247.10577573326415   -9.95800e-09   3.57273e-08 DIIS
   @DF-RHF iter  11:  -247.10577573378362   -5.19464e-10   1.05333e-08 DIIS
   @DF-RHF iter  12:  -247.10577573382687   -4.32578e-11   3.04721e-09 DIIS
  Energy and wave function converged.


  ==> Post-Iterations <==

    Orbital Energies [Eh]
    ---------------------

    Doubly Occupied:                                                      

       1A    -20.506579     2A    -15.591291     3A    -11.348492  
       4A    -11.241414     5A    -11.236621     6A     -1.363093  
       7A     -1.216342     8A     -1.058966     9A     -0.903625  
      10A     -0.795252    11A     -0.735568    12A     -0.645190  
      13A     -0.644513    14A     -0.594687    15A     -0.558589  
      16A     -0.552505    17A     -0.524571    18A     -0.502652  
      19A     -0.413976    20A     -0.409005  

    Virtual:                                                              

      21A      0.033200    22A      0.039570    23A      0.051235  
      24A      0.059774    25A      0.064984    26A      0.065556  
      27A      0.073449    28A      0.079571    29A      0.090539  
      30A      0.100214    31A      0.101615    32A      0.104935  
      33A      0.110494    34A      0.111486    35A      0.114301  
      36A      0.123937    37A      0.140899    38A      0.141671  
      39A      0.143354    40A      0.151617    41A      0.158206  
      42A      0.159738    43A      0.165641    44A      0.179979  
      45A      0.180680    46A      0.186030    47A      0.194526  
      48A      0.202719    49A      0.205872    50A      0.211331  
      51A      0.216409    52A      0.217392    53A      0.226198  
      54A      0.243793    55A      0.253315    56A      0.254392  
      57A      0.259435    58A      0.259463    59A      0.264834  
      60A      0.287042    61A      0.289122    62A      0.298052  
      63A      0.300541    64A      0.303033    65A      0.307508  
      66A      0.311209    67A      0.315088    68A      0.321693  
      69A      0.337189    70A      0.337379    71A      0.343763  
      72A      0.346564    73A      0.352702    74A      0.358844  
      75A      0.366374    76A      0.375812    77A      0.377612  
      78A      0.381346    79A      0.394672    80A      0.398291  
      81A      0.407459    82A      0.409691    83A      0.416472  
      84A      0.424535    85A      0.436173    86A      0.436283  
      87A      0.439484    88A      0.449076    89A      0.450480  
      90A      0.453327    91A      0.458278    92A      0.474205  
      93A      0.482045    94A      0.494189    95A      0.501304  
      96A      0.502169    97A      0.504103    98A      0.512590  
      99A      0.524531   100A      0.524584   101A      0.531924  
     102A      0.533294   103A      0.548301   104A      0.551720  
     105A      0.553072   106A      0.561672   107A      0.562366  
     108A      0.584851   109A      0.600854   110A      0.600910  
     111A      0.614979   112A      0.620045   113A      0.620830  
     114A      0.624768   115A      0.636313   116A      0.639907  
     117A      0.646426   118A      0.655937   119A      0.669347  
     120A      0.673245   121A      0.681751   122A      0.694981  
     123A      0.701346   124A      0.709914   125A      0.716859  
     126A      0.725239   127A      0.737852   128A      0.742010  
     129A      0.765837   130A      0.768858   131A      0.776864  
     132A      0.782397   133A      0.793933   134A      0.800903  
     135A      0.810015   136A      0.823073   137A      0.824815  
     138A      0.827749   139A      0.839912   140A      0.859661  
     141A      0.867242   142A      0.875868   143A      0.882261  
     144A      0.891397   145A      0.897497   146A      0.897978  
     147A      0.917053   148A      0.924006   149A      0.932260  
     150A      0.935673   151A      0.938493   152A      0.958057  
     153A      0.986058   154A      0.991730   155A      0.996013  
     156A      1.006544   157A      1.010084   158A      1.012032  
     159A      1.043841   160A      1.044061   161A      1.059003  
     162A      1.065993   163A      1.068085   164A      1.072524  
     165A      1.093144   166A      1.098071   167A      1.118714  
     168A      1.130289   169A      1.136759   170A      1.151653  
     171A      1.158170   172A      1.161463   173A      1.174971  
     174A      1.185963   175A      1.199941   176A      1.216218  
     177A      1.224924   178A      1.226442   179A      1.239501  
     180A      1.240352   181A      1.246936   182A      1.253503  
     183A      1.264393   184A      1.286469   185A      1.297115  
     186A      1.300480   187A      1.301754   188A      1.316366  
     189A      1.333597   190A      1.336689   191A      1.339184  
     192A      1.339910   193A      1.362490   194A      1.373900  
     195A      1.376817   196A      1.386487   197A      1.396266  
     198A      1.415252   199A      1.424152   200A      1.440463  
     201A      1.441493   202A      1.442214   203A      1.448245  
     204A      1.453746   205A      1.460489   206A      1.480581  
     207A      1.490386   208A      1.497022   209A      1.500828  
     210A      1.507204   211A      1.524086   212A      1.529439  
     213A      1.540378   214A      1.553379   215A      1.555582  
     216A      1.570645   217A      1.582017   218A      1.589049  
     219A      1.594304   220A      1.606057   221A      1.609310  
     222A      1.619824   223A      1.625041   224A      1.636147  
     225A      1.655793   226A      1.665655   227A      1.677087  
     228A      1.706992   229A      1.711929   230A      1.736292  
     231A      1.748730   232A      1.758797   233A      1.763927  
     234A      1.784161   235A      1.785367   236A      1.795353  
     237A      1.812333   238A      1.822831   239A      1.837521  
     240A      1.842961   241A      1.864594   242A      1.882182  
     243A      1.894488   244A      1.895947   245A      1.908712  
     246A      1.921801   247A      1.934249   248A      1.941685  
     249A      1.953177   250A      1.962321   251A      1.991043  
     252A      2.007303   253A      2.024203   254A      2.059078  
     255A      2.064361   256A      2.111035   257A      2.125845  
     258A      2.135227   259A      2.152105   260A      2.159946  
     261A      2.198034   262A      2.225334   263A      2.255177  
     264A      2.287778   265A      2.301197   266A      2.354651  
     267A      2.356244   268A      2.383493   269A      2.406036  
     270A      2.423635   271A      2.428716   272A      2.463729  
     273A      2.497275   274A      2.497953   275A      2.537093  
     276A      2.576666   277A      2.586490   278A      2.604174  
     279A      2.624457   280A      2.637624   281A      2.701080  
     282A      2.713147   283A      2.752330   284A      2.781802  
     285A      2.798235   286A      2.799809   287A      2.830218  
     288A      2.844703   289A      2.867225   290A      2.883324  
     291A      2.883673   292A      2.913664   293A      2.941181  
     294A      2.965426   295A      2.981497   296A      3.014218  
     297A      3.039443   298A      3.042656   299A      3.044891  
     300A      3.077853   301A      3.098964   302A      3.116004  
     303A      3.142607   304A      3.154453   305A      3.207595  
     306A      3.214289   307A      3.231430   308A      3.234422  
     309A      3.252938   310A      3.328286   311A      3.341725  
     312A      3.362414   313A      3.372303   314A      3.379195  
     315A      3.396175   316A      3.409434   317A      3.430583  
     318A      3.465138   319A      3.470106   320A      3.475082  
     321A      3.486071   322A      3.514878   323A      3.516594  
     324A      3.521382   325A      3.541316   326A      3.550660  
     327A      3.555733   328A      3.558697   329A      3.575787  
     330A      3.581276   331A      3.603974   332A      3.605238  
     333A      3.605348   334A      3.614828   335A      3.626137  
     336A      3.648905   337A      3.687910   338A      3.688166  
     339A      3.690878   340A      3.698545   341A      3.700014  
     342A      3.712737   343A      3.730578   344A      3.759160  
     345A      3.763158   346A      3.786246   347A      3.803315  
     348A      3.827472   349A      3.847382   350A      3.852646  
     351A      3.869014   352A      3.873231   353A      3.877483  
     354A      3.889948   355A      3.895233   356A      3.901875  
     357A      3.912248   358A      3.916016   359A      3.935547  
     360A      3.971408   361A      3.990242   362A      3.999148  
     363A      4.017631   364A      4.038352   365A      4.042877  
     366A      4.064203   367A      4.071176   368A      4.086277  
     369A      4.094323   370A      4.124739   371A      4.149009  
     372A      4.154656   373A      4.165520   374A      4.173795  
     375A      4.185517   376A      4.202104   377A      4.241117  
     378A      4.245554   379A      4.250040   380A      4.254569  
     381A      4.275342   382A      4.292013   383A      4.294316  
     384A      4.311937   385A      4.325095   386A      4.327057  
     387A      4.349784   388A      4.353745   389A      4.380378  
     390A      4.396667   391A      4.399345   392A      4.421791  
     393A      4.439656   394A      4.442629   395A      4.472924  
     396A      4.483782   397A      4.494107   398A      4.495082  
     399A      4.496048   400A      4.507634   401A      4.511065  
     402A      4.538256   403A      4.548270   404A      4.560643  
     405A      4.578274   406A      4.584333   407A      4.612360  
     408A      4.618851   409A      4.624559   410A      4.624590  
     411A      4.643447   412A      4.672027   413A      4.676698  
     414A      4.679494   415A      4.683276   416A      4.690217  
     417A      4.702012   418A      4.717350   419A      4.719161  
     420A      4.740263   421A      4.760881   422A      4.768888  
     423A      4.778687   424A      4.784578   425A      4.799144  
     426A      4.801834   427A      4.812298   428A      4.837434  
     429A      4.844512   430A      4.848895   431A      4.879922  
     432A      4.883034   433A      4.889830   434A      4.896059  
     435A      4.907544   436A      4.917716   437A      4.924897  
     438A      4.927009   439A      4.941635   440A      4.957033  
     441A      4.963616   442A      4.983813   443A      4.997309  
     444A      5.005351   445A      5.007629   446A      5.019431  
     447A      5.025273   448A      5.038516   449A      5.043763  
     450A      5.076241   451A      5.111739   452A      5.131217  
     453A      5.147147   454A      5.175583   455A      5.186993  
     456A      5.203081   457A      5.206295   458A      5.211350  
     459A      5.245482   460A      5.246354   461A      5.247666  
     462A      5.259204   463A      5.276581   464A      5.309772  
     465A      5.324560   466A      5.345519   467A      5.354636  
     468A      5.371152   469A      5.400837   470A      5.421040  
     471A      5.445871   472A      5.446895   473A      5.483144  
     474A      5.519128   475A      5.543396   476A      5.548137  
     477A      5.582392   478A      5.595849   479A      5.638654  
     480A      5.644473   481A      5.679186   482A      5.718976  
     483A      5.734466   484A      5.739746   485A      5.742910  
     486A      5.764200   487A      5.778812   488A      5.843464  
     489A      5.849346   490A      5.887938   491A      5.894590  
     492A      5.901548   493A      5.934959   494A      5.941279  
     495A      5.963102   496A      5.977092   497A      6.020206  
     498A      6.040578   499A      6.069921   500A      6.076962  
     501A      6.090077   502A      6.104160   503A      6.189594  
     504A      6.222311   505A      6.227722   506A      6.234915  
     507A      6.237005   508A      6.341632   509A      6.365141  
     510A      6.377849   511A      6.399809   512A      6.427316  
     513A      6.443950   514A      6.458337   515A      6.471495  
     516A      6.472719   517A      6.526510   518A      6.534031  
     519A      6.539282   520A      6.572820   521A      6.590827  
     522A      6.621473   523A      6.691748   524A      6.725742  
     525A      6.737238   526A      6.774716   527A      6.799829  
     528A      6.889993   529A      6.908840   530A      6.930652  
     531A      6.969550   532A      7.125774   533A      7.264435  
     534A      7.297696   535A      7.343268   536A      7.368532  
     537A      7.397805   538A      7.439293   539A      7.453282  
     540A      7.498238   541A      7.503513   542A      7.543446  
     543A      7.547653   544A      7.594216   545A      7.675387  
     546A      7.695340   547A      7.740524   548A      7.796669  
     549A      7.807642   550A      7.829231   551A      7.847178  
     552A      7.881670   553A      8.006048   554A      8.012454  
     555A      8.166316   556A      8.246526   557A      8.303820  
     558A      8.534636   559A      8.941937   560A      9.126105  
     561A      9.148891   562A      9.240799   563A      9.498799  
     564A      9.669876   565A      9.805119   566A      9.899123  
     567A      9.963638   568A     10.007610   569A     10.229307  
     570A     10.707618   571A     10.988144   572A     11.554220  
     573A     11.581431   574A     11.742449   575A     12.007212  
     576A     12.501576   577A     13.833633   578A     13.859736  
     579A     14.353256   580A     14.725343   581A     16.135528  
     582A     43.025461   583A     45.202440   584A     45.844385  
     585A     56.305319   586A     61.174357  

    Final Occupation by Irrep:
              A 
    DOCC [    20 ]

  @DF-RHF Final Energy:  -247.10577573382687

   => Energetics <=

    Nuclear Repulsion Energy =            179.1431561170537350
    One-Electron Energy =                -690.8120056527712904
    Two-Electron Energy =                 264.5630738018906527
    Total Energy =                       -247.1057757338268743

Computation Completed


Properties will be evaluated at   0.000000,   0.000000,   0.000000 [a0]

Properties computed using the SCF density matrix

  Nuclear Dipole Moment: [e a0]
     X:   198.1918      Y:     8.5250      Z:     0.0058

  Electronic Dipole Moment: [e a0]
     X:  -197.2077      Y:   -10.0283      Z:    -0.0050

  Dipole Moment: [e a0]
     X:     0.9841      Y:    -1.5033      Z:     0.0008     Total:     1.7968

  Dipole Moment: [D]
     X:     2.5014      Y:    -3.8211      Z:     0.0020     Total:     4.5670


*** tstop() called on r282 at Thu Sep  9 12:26:46 2021
Module time:
	user time   =      71.91 seconds =       1.20 minutes
	system time =       1.01 seconds =       0.02 minutes
	total time  =         73 seconds =       1.22 minutes
Total time:
	user time   =     189.26 seconds =       3.15 minutes
	system time =       3.14 seconds =       0.05 minutes
	total time  =        193 seconds =       3.22 minutes

  //>>>>>>>>>>>>>>>>>>>>>>>>>>>>>>>>>>>//
  //            Monomer B HF           //
  //<<<<<<<<<<<<<<<<<<<<<<<<<<<<<<<<<<<//


*** tstart() called on r282
*** at Thu Sep  9 12:26:46 2021

   => Loading Basis Set <=

    Name: JUN-CC-PVTZ
    Role: ORBITAL
    Keyword: BASIS
    atoms 1-2, 7, 13-14, 19       entry C          line   217 file /home/r08543048/miniconda3/share/psi4/basis/jun-cc-pvtz.gbs 
    atoms 3, 15                   entry O          line   305 file /home/r08543048/miniconda3/share/psi4/basis/jun-cc-pvtz.gbs 
    atoms 4, 16                   entry N          line   261 file /home/r08543048/miniconda3/share/psi4/basis/jun-cc-pvtz.gbs 
    atoms 5-6, 8-12, 17-18, 20-24 entry H          line    36 file /home/r08543048/miniconda3/share/psi4/basis/jun-cc-pvtz.gbs 


         ---------------------------------------------------------
                                   SCF
               by Justin Turney, Rob Parrish, Andy Simmonett
                          and Daniel G. A. Smith
                              RHF Reference
                        1 Threads,  20980 MiB Core
         ---------------------------------------------------------

  ==> Geometry <==

    Molecular point group: c1
    Full point group: C1

    Geometry (in Angstrom), charge = 0, multiplicity = 1:

       Center              X                  Y                   Z               Mass       
    ------------   -----------------  -----------------  -----------------  -----------------
      Gh(C)           3.505472471073     0.647064232360     0.000600920599    12.000000000000
      Gh(C)           2.012446471073     0.388069232360    -0.000054079401    12.000000000000
      Gh(O)           1.225681471073     1.344392232360    -0.000493079401    15.994914619570
      Gh(N)           1.597613471073    -0.889909767640    -0.000090079401    14.003074004430
      Gh(H)           0.594292471073    -1.099019767640    -0.000268079401     1.007825032230
      Gh(H)           2.262649471073    -1.640403767640     0.000417920599     1.007825032230
      Gh(C)           4.421452471073    -0.568483767640     0.000267920599    12.000000000000
      Gh(H)           5.463869471073    -0.254564767640     0.000591920599     1.007825032230
      Gh(H)           4.268296471073    -1.186327767640     0.885415920599     1.007825032230
      Gh(H)           4.268584471073    -1.185584767640    -0.885446079401     1.007825032230
      Gh(H)           3.698255471073     1.276215232360    -0.869320079401     1.007825032230
      Gh(H)           3.697657471073     1.275257232360     0.871355920599     1.007825032230
         C           -3.505462528927    -0.647072767640     0.000164920599    12.000000000000
         C           -2.012435528927    -0.388057767640    -0.000268079401    12.000000000000
         O           -1.225665528927    -1.344376767640    -0.000350079401    15.994914619570
         N           -1.597632528927     0.889929232360    -0.000602079401    14.003074004430
         H           -0.594324528927     1.099075232360    -0.000725079401     1.007825032230
         H           -2.262700528927     1.640396232360    -0.000431079401     1.007825032230
         C           -4.421465528927     0.568447232360     0.000828920599    12.000000000000
         H           -4.268889528927     1.186099232360    -0.884557079401     1.007825032230
         H           -5.463876528927     0.254507232360     0.001239920599     1.007825032230
         H           -4.268053528927     1.185755232360     0.886304920599     1.007825032230
         H           -3.698226528927    -1.275496767640    -0.870296079401     1.007825032230
         H           -3.697615528927    -1.276023767640     0.870372920599     1.007825032230

  Running in c1 symmetry.

  Rotational constants: A =      0.13201  B =      0.01420  C =      0.01294 [cm^-1]
  Rotational constants: A =   3957.66337  B =    425.76463  C =    388.07857 [MHz]
  Nuclear repulsion =  179.143207088534439

  Charge       = 0
  Multiplicity = 1
  Electrons    = 40
  Nalpha       = 20
  Nbeta        = 20

  ==> Algorithm <==

  SCF Algorithm Type is DF.
  DIIS enabled.
  MOM disabled.
  Fractional occupation disabled.
  Guess Type is SAD.
  Energy threshold   = 1.00e-08
  Density threshold  = 1.00e-08
  Integral threshold = 0.00e+00

  ==> Primary Basis <==

  Basis Set: JUN-CC-PVTZ
    Blend: JUN-CC-PVTZ
    Number of shells: 214
    Number of basis function: 586
    Number of Cartesian functions: 660
    Spherical Harmonics?: true
    Max angular momentum: 3

   => Loading Basis Set <=

    Name: (JUN-CC-PVTZ AUX)
    Role: JKFIT
    Keyword: DF_BASIS_SCF
    atoms 1-2, 7, 13-14, 19       entry C          line   152 file /home/r08543048/miniconda3/share/psi4/basis/jun-cc-pvtz-jkfit.gbs 
    atoms 3, 15                   entry O          line   272 file /home/r08543048/miniconda3/share/psi4/basis/jun-cc-pvtz-jkfit.gbs 
    atoms 4, 16                   entry N          line   212 file /home/r08543048/miniconda3/share/psi4/basis/jun-cc-pvtz-jkfit.gbs 
    atoms 5-6, 8-12, 17-18, 20-24 entry H          line    70 file /home/r08543048/miniconda3/share/psi4/basis/jun-cc-pvtz-jkfit.gbs 

  ==> Pre-Iterations <==

   -------------------------------------------------------
    Irrep   Nso     Nmo     Nalpha   Nbeta   Ndocc  Nsocc
   -------------------------------------------------------
     A        586     586       0       0       0       0
   -------------------------------------------------------
    Total     586     586      20      20      20       0
   -------------------------------------------------------

  ==> Integral Setup <==

  ==> DiskDFJK: Density-Fitted J/K Matrices <==

    J tasked:                  Yes
    K tasked:                  Yes
    wK tasked:                  No
    OpenMP threads:              1
    Integrals threads:           1
    Memory [MiB]:            15735
    Algorithm:                Core
    Integral Cache:           LOAD
    Schwarz Cutoff:          1E-12
    Fitting Condition:       1E-10

   => Auxiliary Basis Set <=

  Basis Set: (JUN-CC-PVTZ AUX)
    Blend: JUN-CC-PVTZ-JKFIT
    Number of shells: 430
    Number of basis function: 1370
    Number of Cartesian functions: 1650
    Spherical Harmonics?: true
    Max angular momentum: 4

  Minimum eigenvalue in the overlap matrix is 3.0496707318E-05.
  Using Symmetric Orthogonalization.

  SCF Guess: Superposition of Atomic Densities via on-the-fly atomic UHF.

  ==> Iterations <==

                           Total Energy        Delta E     RMS |[F,P]|

   @DF-RHF iter SAD:  -246.33270873005216   -2.46333e+02   0.00000e+00 
   @DF-RHF iter   1:  -246.89264436872747   -5.59936e-01   1.10974e-03 DIIS
   @DF-RHF iter   2:  -247.05420195808051   -1.61558e-01   6.36111e-04 DIIS
   @DF-RHF iter   3:  -247.10214569032718   -4.79437e-02   1.22861e-04 DIIS
   @DF-RHF iter   4:  -247.10509764746587   -2.95196e-03   5.47673e-05 DIIS
   @DF-RHF iter   5:  -247.10573092829199   -6.33281e-04   9.28397e-06 DIIS
   @DF-RHF iter   6:  -247.10576916373759   -3.82354e-05   3.83108e-06 DIIS
   @DF-RHF iter   7:  -247.10577423835781   -5.07462e-06   1.59708e-06 DIIS
   @DF-RHF iter   8:  -247.10577547883611   -1.24048e-06   5.91651e-07 DIIS
   @DF-RHF iter   9:  -247.10577568467005   -2.05834e-07   1.31857e-07 DIIS
   @DF-RHF iter  10:  -247.10577569462794   -9.95789e-09   3.57289e-08 DIIS
   @DF-RHF iter  11:  -247.10577569514595   -5.18014e-10   1.05339e-08 DIIS
   @DF-RHF iter  12:  -247.10577569518654   -4.05862e-11   3.04748e-09 DIIS
  Energy and wave function converged.


  ==> Post-Iterations <==

    Orbital Energies [Eh]
    ---------------------

    Doubly Occupied:                                                      

       1A    -20.506579     2A    -15.591292     3A    -11.348492  
       4A    -11.241413     5A    -11.236621     6A     -1.363093  
       7A     -1.216345     8A     -1.058967     9A     -0.903625  
      10A     -0.795252    11A     -0.735570    12A     -0.645190  
      13A     -0.644512    14A     -0.594686    15A     -0.558589  
      16A     -0.552507    17A     -0.524573    18A     -0.502650  
      19A     -0.413975    20A     -0.409006  

    Virtual:                                                              

      21A      0.033200    22A      0.039570    23A      0.051235  
      24A      0.059774    25A      0.064984    26A      0.065556  
      27A      0.073449    28A      0.079571    29A      0.090539  
      30A      0.100215    31A      0.101615    32A      0.104935  
      33A      0.110495    34A      0.111486    35A      0.114301  
      36A      0.123937    37A      0.140899    38A      0.141672  
      39A      0.143354    40A      0.151617    41A      0.158206  
      42A      0.159737    43A      0.165640    44A      0.179980  
      45A      0.180681    46A      0.186030    47A      0.194526  
      48A      0.202719    49A      0.205872    50A      0.211332  
      51A      0.216409    52A      0.217392    53A      0.226198  
      54A      0.243793    55A      0.253316    56A      0.254392  
      57A      0.259418    58A      0.259478    59A      0.264833  
      60A      0.287041    61A      0.289121    62A      0.298052  
      63A      0.300542    64A      0.303033    65A      0.307509  
      66A      0.311209    67A      0.315089    68A      0.321693  
      69A      0.337189    70A      0.337379    71A      0.343764  
      72A      0.346564    73A      0.352702    74A      0.358845  
      75A      0.366374    76A      0.375812    77A      0.377613  
      78A      0.381347    79A      0.394670    80A      0.398291  
      81A      0.407459    82A      0.409691    83A      0.416471  
      84A      0.424533    85A      0.436180    86A      0.436277  
      87A      0.439483    88A      0.449077    89A      0.450481  
      90A      0.453326    91A      0.458278    92A      0.474205  
      93A      0.482046    94A      0.494190    95A      0.501304  
      96A      0.502170    97A      0.504101    98A      0.512590  
      99A      0.524520   100A      0.524596   101A      0.531925  
     102A      0.533292   103A      0.548300   104A      0.551719  
     105A      0.553073   106A      0.561671   107A      0.562367  
     108A      0.584853   109A      0.600858   110A      0.600903  
     111A      0.614981   112A      0.620046   113A      0.620829  
     114A      0.624767   115A      0.636311   116A      0.639906  
     117A      0.646426   118A      0.655937   119A      0.669347  
     120A      0.673247   121A      0.681749   122A      0.694982  
     123A      0.701346   124A      0.709913   125A      0.716860  
     126A      0.725239   127A      0.737851   128A      0.742010  
     129A      0.765837   130A      0.768860   131A      0.776864  
     132A      0.782399   133A      0.793934   134A      0.800904  
     135A      0.810017   136A      0.823073   137A      0.824814  
     138A      0.827750   139A      0.839914   140A      0.859662  
     141A      0.867239   142A      0.875870   143A      0.882262  
     144A      0.891398   145A      0.897496   146A      0.897979  
     147A      0.917053   148A      0.924005   149A      0.932261  
     150A      0.935672   151A      0.938492   152A      0.958058  
     153A      0.986060   154A      0.991734   155A      0.996010  
     156A      1.006548   157A      1.010086   158A      1.012031  
     159A      1.043857   160A      1.044042   161A      1.059004  
     162A      1.065993   163A      1.068085   164A      1.072526  
     165A      1.093143   166A      1.098071   167A      1.118713  
     168A      1.130288   169A      1.136759   170A      1.151653  
     171A      1.158169   172A      1.161463   173A      1.174973  
     174A      1.185966   175A      1.199940   176A      1.216218  
     177A      1.224925   178A      1.226441   179A      1.239503  
     180A      1.240346   181A      1.246936   182A      1.253503  
     183A      1.264393   184A      1.286468   185A      1.297117  
     186A      1.300477   187A      1.301755   188A      1.316365  
     189A      1.333595   190A      1.336688   191A      1.339184  
     192A      1.339910   193A      1.362490   194A      1.373902  
     195A      1.376818   196A      1.386487   197A      1.396269  
     198A      1.415250   199A      1.424148   200A      1.440466  
     201A      1.441492   202A      1.442216   203A      1.448247  
     204A      1.453748   205A      1.460491   206A      1.480583  
     207A      1.490384   208A      1.497019   209A      1.500828  
     210A      1.507204   211A      1.524087   212A      1.529437  
     213A      1.540376   214A      1.553379   215A      1.555582  
     216A      1.570642   217A      1.582018   218A      1.589048  
     219A      1.594306   220A      1.606056   221A      1.609309  
     222A      1.619828   223A      1.625043   224A      1.636148  
     225A      1.655793   226A      1.665656   227A      1.677087  
     228A      1.706999   229A      1.711930   230A      1.736296  
     231A      1.748730   232A      1.758795   233A      1.763925  
     234A      1.784165   235A      1.785369   236A      1.795353  
     237A      1.812332   238A      1.822830   239A      1.837523  
     240A      1.842960   241A      1.864589   242A      1.882181  
     243A      1.894486   244A      1.895954   245A      1.908713  
     246A      1.921797   247A      1.934250   248A      1.941683  
     249A      1.953180   250A      1.962325   251A      1.991041  
     252A      2.007308   253A      2.024203   254A      2.059077  
     255A      2.064362   256A      2.111033   257A      2.125848  
     258A      2.135227   259A      2.152110   260A      2.159948  
     261A      2.198043   262A      2.225326   263A      2.255178  
     264A      2.287773   265A      2.301198   266A      2.354650  
     267A      2.356234   268A      2.383494   269A      2.406036  
     270A      2.423637   271A      2.428713   272A      2.463729  
     273A      2.497272   274A      2.497954   275A      2.537097  
     276A      2.576664   277A      2.586479   278A      2.604174  
     279A      2.624455   280A      2.637622   281A      2.701082  
     282A      2.713143   283A      2.752334   284A      2.781806  
     285A      2.798238   286A      2.799808   287A      2.830219  
     288A      2.844706   289A      2.867229   290A      2.883335  
     291A      2.883671   292A      2.913672   293A      2.941186  
     294A      2.965426   295A      2.981501   296A      3.014220  
     297A      3.039441   298A      3.042654   299A      3.044892  
     300A      3.077857   301A      3.098964   302A      3.116004  
     303A      3.142613   304A      3.154461   305A      3.207599  
     306A      3.214290   307A      3.231433   308A      3.234423  
     309A      3.252933   310A      3.328282   311A      3.341726  
     312A      3.362416   313A      3.372299   314A      3.379197  
     315A      3.396176   316A      3.409438   317A      3.430583  
     318A      3.465138   319A      3.470105   320A      3.475074  
     321A      3.486071   322A      3.514877   323A      3.516598  
     324A      3.521387   325A      3.541321   326A      3.550662  
     327A      3.555735   328A      3.558694   329A      3.575779  
     330A      3.581274   331A      3.603975   332A      3.605239  
     333A      3.605348   334A      3.614829   335A      3.626141  
     336A      3.648908   337A      3.687928   338A      3.688153  
     339A      3.690876   340A      3.698548   341A      3.700019  
     342A      3.712735   343A      3.730578   344A      3.759156  
     345A      3.763157   346A      3.786248   347A      3.803316  
     348A      3.827473   349A      3.847377   350A      3.852643  
     351A      3.869011   352A      3.873232   353A      3.877485  
     354A      3.889948   355A      3.895234   356A      3.901877  
     357A      3.912253   358A      3.916014   359A      3.935546  
     360A      3.971405   361A      3.990244   362A      3.999153  
     363A      4.017640   364A      4.038357   365A      4.042875  
     366A      4.064200   367A      4.071173   368A      4.086274  
     369A      4.094319   370A      4.124738   371A      4.149003  
     372A      4.154657   373A      4.165523   374A      4.173797  
     375A      4.185519   376A      4.202099   377A      4.241116  
     378A      4.245553   379A      4.250041   380A      4.254579  
     381A      4.275345   382A      4.292014   383A      4.294314  
     384A      4.311936   385A      4.325091   386A      4.327062  
     387A      4.349786   388A      4.353745   389A      4.380379  
     390A      4.396666   391A      4.399348   392A      4.421794  
     393A      4.439659   394A      4.442625   395A      4.472923  
     396A      4.483782   397A      4.494105   398A      4.495083  
     399A      4.496050   400A      4.507631   401A      4.511063  
     402A      4.538257   403A      4.548268   404A      4.560643  
     405A      4.578280   406A      4.584340   407A      4.612361  
     408A      4.618844   409A      4.624558   410A      4.624586  
     411A      4.643448   412A      4.672029   413A      4.676699  
     414A      4.679490   415A      4.683276   416A      4.690217  
     417A      4.702019   418A      4.717354   419A      4.719160  
     420A      4.740262   421A      4.760881   422A      4.768881  
     423A      4.778682   424A      4.784580   425A      4.799142  
     426A      4.801834   427A      4.812298   428A      4.837436  
     429A      4.844514   430A      4.848888   431A      4.879923  
     432A      4.883036   433A      4.889829   434A      4.896045  
     435A      4.907542   436A      4.917712   437A      4.924897  
     438A      4.927009   439A      4.941631   440A      4.957033  
     441A      4.963614   442A      4.983806   443A      4.997305  
     444A      5.005352   445A      5.007621   446A      5.019431  
     447A      5.025278   448A      5.038514   449A      5.043764  
     450A      5.076243   451A      5.111728   452A      5.131216  
     453A      5.147146   454A      5.175587   455A      5.186994  
     456A      5.203079   457A      5.206296   458A      5.211356  
     459A      5.245480   460A      5.246361   461A      5.247675  
     462A      5.259202   463A      5.276577   464A      5.309770  
     465A      5.324559   466A      5.345523   467A      5.354638  
     468A      5.371152   469A      5.400842   470A      5.421039  
     471A      5.445871   472A      5.446889   473A      5.483131  
     474A      5.519135   475A      5.543400   476A      5.548162  
     477A      5.582394   478A      5.595846   479A      5.638655  
     480A      5.644463   481A      5.679188   482A      5.718971  
     483A      5.734462   484A      5.739741   485A      5.742912  
     486A      5.764203   487A      5.778817   488A      5.843467  
     489A      5.849354   490A      5.887942   491A      5.894592  
     492A      5.901540   493A      5.934961   494A      5.941283  
     495A      5.963119   496A      5.977097   497A      6.020202  
     498A      6.040579   499A      6.069921   500A      6.076961  
     501A      6.090082   502A      6.104174   503A      6.189597  
     504A      6.222303   505A      6.227718   506A      6.234914  
     507A      6.237002   508A      6.341632   509A      6.365133  
     510A      6.377846   511A      6.399820   512A      6.427317  
     513A      6.443947   514A      6.458341   515A      6.471491  
     516A      6.472722   517A      6.526511   518A      6.534036  
     519A      6.539292   520A      6.572815   521A      6.590824  
     522A      6.621468   523A      6.691759   524A      6.725745  
     525A      6.737253   526A      6.774720   527A      6.799825  
     528A      6.889991   529A      6.908846   530A      6.930653  
     531A      6.969551   532A      7.125774   533A      7.264431  
     534A      7.297699   535A      7.343261   536A      7.368533  
     537A      7.397809   538A      7.439286   539A      7.453281  
     540A      7.498241   541A      7.503518   542A      7.543449  
     543A      7.547660   544A      7.594220   545A      7.675378  
     546A      7.695329   547A      7.740505   548A      7.796672  
     549A      7.807640   550A      7.829236   551A      7.847181  
     552A      7.881694   553A      8.006045   554A      8.012459  
     555A      8.166309   556A      8.246512   557A      8.303828  
     558A      8.534635   559A      8.941923   560A      9.126104  
     561A      9.148893   562A      9.240794   563A      9.498795  
     564A      9.669887   565A      9.805119   566A      9.899122  
     567A      9.963632   568A     10.007615   569A     10.229287  
     570A     10.707623   571A     10.988151   572A     11.554214  
     573A     11.581431   574A     11.742427   575A     12.007222  
     576A     12.501564   577A     13.833644   578A     13.859733  
     579A     14.353246   580A     14.725345   581A     16.135599  
     582A     43.025474   583A     45.202518   584A     45.844366  
     585A     56.305198   586A     61.174306  

    Final Occupation by Irrep:
              A 
    DOCC [    20 ]

  @DF-RHF Final Energy:  -247.10577569518654

   => Energetics <=

    Nuclear Repulsion Energy =            179.1432070885344388
    One-Electron Energy =                -690.8120977070560684
    Two-Electron Energy =                 264.5631149233350925
    Total Energy =                       -247.1057756951865372

Computation Completed


Properties will be evaluated at   0.000000,   0.000000,   0.000000 [a0]

Properties computed using the SCF density matrix

  Nuclear Dipole Moment: [e a0]
     X:  -198.1919      Y:    -8.5251      Z:    -0.0014

  Electronic Dipole Moment: [e a0]
     X:   197.2077      Y:    10.0284      Z:     0.0017

  Dipole Moment: [e a0]
     X:    -0.9842      Y:     1.5033      Z:     0.0002     Total:     1.7968

  Dipole Moment: [D]
     X:    -2.5015      Y:     3.8211      Z:     0.0006     Total:     4.5671


*** tstop() called on r282 at Thu Sep  9 12:27:59 2021
Module time:
	user time   =      71.78 seconds =       1.20 minutes
	system time =       0.98 seconds =       0.02 minutes
	total time  =         73 seconds =       1.22 minutes
Total time:
	user time   =     261.04 seconds =       4.35 minutes
	system time =       4.12 seconds =       0.07 minutes
	total time  =        266 seconds =       4.43 minutes
  Constructing Basis Sets for SAPT...

   => Loading Basis Set <=

    Name: (JUN-CC-PVTZ AUX)
    Role: RIFIT
    Keyword: DF_BASIS_SAPT
    atoms 1-2, 7, 13-14, 19       entry C          line   132 file /home/r08543048/miniconda3/share/psi4/basis/jun-cc-pvtz-ri.gbs 
    atoms 3, 15                   entry O          line   244 file /home/r08543048/miniconda3/share/psi4/basis/jun-cc-pvtz-ri.gbs 
    atoms 4, 16                   entry N          line   188 file /home/r08543048/miniconda3/share/psi4/basis/jun-cc-pvtz-ri.gbs 
    atoms 5-6, 8-12, 17-18, 20-24 entry H          line    30 file /home/r08543048/miniconda3/share/psi4/basis/jun-cc-pvtz-ri.gbs 


  //>>>>>>>>>>>>>>>>>>>>>>>>>>>>>>>>>>>//
  //               SAPT0               //
  //<<<<<<<<<<<<<<<<<<<<<<<<<<<<<<<<<<<//


*** tstart() called on r282
*** at Thu Sep  9 12:27:59 2021

        SAPT0  
    Ed Hohenstein
     6 June 2009

      Orbital Information
  --------------------------
    NSO        =       586
    NMO        =       586
    NRI        =      1390
    NOCC A     =        20
    NOCC B     =        20
    FOCC A     =         5
    FOCC B     =         5
    NVIR A     =       566
    NVIR B     =       566

    Elst10,r            =    -0.043114959292 [Eh]
    Exch10              =     0.039820381970 [Eh]
    Exch10 (S^2)        =     0.039302709457 [Eh]

    Iter     Energy [mEh]          dE [mEh]         Residual      Time [s]
       1      -8.00914978       8.009149784      18.896912531             1
       2      -9.54667173       1.537521943      10.956620640             3
       3     -10.23164414       0.684972413       2.740898302             5
       4     -10.14500108      -0.086643064       1.075804764             6
       5     -10.13611390      -0.008887178       0.360068855             8
       6     -10.14330259       0.007188690       0.144793271            10
       7     -10.14538674       0.002084149       0.028656198            11
       8     -10.14461416      -0.000772576       0.006421574            13
       9     -10.14462728       0.000013115       0.001752180            14
      10     -10.14465486       0.000027586       0.000471219            16
      11     -10.14465583       0.000000967       0.000105062            18
      12     -10.14465399      -0.000001842       0.000025922            19
      13     -10.14465414       0.000000156       0.000008390            21
      14     -10.14465422       0.000000081       0.000002225            23
      15     -10.14465421      -0.000000011       0.000000542            24

    CHF Iterations converged


    Iter     Energy [mEh]          dE [mEh]         Residual      Time [s]
       1      -8.00928413       8.009284132      18.897370239             2
       2      -9.54692686       1.537642725      10.956976298             4
       3     -10.23191295       0.684986091       2.740960983             5
       4     -10.14526793      -0.086645022       1.075817317             7
       5     -10.13638127      -0.008886655       0.360052324             8
       6     -10.14357036       0.007189091       0.144787671            10
       7     -10.14565422       0.002083862       0.028656677            12
       8     -10.14488163      -0.000772592       0.006421476            13
       9     -10.14489476       0.000013130       0.001751989            15
      10     -10.14492234       0.000027581       0.000471204            17
      11     -10.14492331       0.000000966       0.000105063            18
      12     -10.14492147      -0.000001842       0.000025923            20
      13     -10.14492162       0.000000156       0.000008391            22
      14     -10.14492170       0.000000081       0.000002226            23
      15     -10.14492169      -0.000000011       0.000000543            25

    CHF Iterations converged

    Ind20,r (A<-B)      =    -0.010144654213 [Eh]
    Ind20,r (B<-A)      =    -0.010144921694 [Eh]
    Ind20,r             =    -0.020289575907 [Eh]
    Exch-Ind20,r (A<-B) =     0.005257752813 [Eh]
    Exch-Ind20,r (B<-A) =     0.005257748417 [Eh]
    Exch-Ind20,r        =     0.010515501230 [Eh]
    Disp20              =    -0.014206439829 [Eh]
    Disp20 (SS)         =    -0.007103219915 [Eh]
    Disp20 (OS)         =    -0.007103219915 [Eh]
    Exch-Disp20         =     0.002743572741 [Eh]
    Exch-Disp20 (SS)    =     0.001734103184 [Eh]
    Exch-Disp20 (OS)    =     0.001009469557 [Eh]

    SAPT Results 
  --------------------------------------------------------------------------------------------------------
    Electrostatics                -43.11495929 [mEh]     -27.05504542 [kcal/mol]    -113.19831003 [kJ/mol]
      Elst10,r                    -43.11495929 [mEh]     -27.05504542 [kcal/mol]    -113.19831003 [kJ/mol]

    Exchange                       39.82038197 [mEh]      24.98766694 [kcal/mol]     104.54839846 [kJ/mol]
      Exch10                       39.82038197 [mEh]      24.98766694 [kcal/mol]     104.54839846 [kJ/mol]
      Exch10(S^2)                  39.30270946 [mEh]      24.66282253 [kcal/mol]     103.18924946 [kJ/mol]

    Induction                     -17.02839364 [mEh]     -10.68547833 [kcal/mol]     -44.70804135 [kJ/mol]
      Ind20,r                     -20.28957591 [mEh]     -12.73190110 [kcal/mol]     -53.27027420 [kJ/mol]
      Exch-Ind20,r                 10.51550123 [mEh]       6.59857664 [kcal/mol]      27.60844468 [kJ/mol]
      delta HF,r (2)               -7.25431897 [mEh]      -4.55215388 [kcal/mol]     -19.04621182 [kJ/mol]

    Dispersion                    -11.46286709 [mEh]      -7.19305769 [kcal/mol]     -30.09575339 [kJ/mol]
      Disp20                      -14.20643983 [mEh]      -8.91467558 [kcal/mol]     -37.29900263 [kJ/mol]
      Exch-Disp20                   2.74357274 [mEh]       1.72161789 [kcal/mol]       7.20324924 [kJ/mol]
      Disp20 (SS)                  -7.10321991 [mEh]      -4.45733779 [kcal/mol]     -18.64950132 [kJ/mol]
      Disp20 (OS)                  -7.10321991 [mEh]      -4.45733779 [kcal/mol]     -18.64950132 [kJ/mol]
      Exch-Disp20 (SS)              1.73410318 [mEh]       1.08816618 [kcal/mol]       4.55288728 [kJ/mol]
      Exch-Disp20 (OS)              1.00946956 [mEh]       0.63345171 [kcal/mol]       2.65036196 [kJ/mol]

  Total HF                        -20.32297097 [mEh]     -12.75285682 [kcal/mol]     -53.35795292 [kJ/mol]
  Total SAPT0                     -31.78583805 [mEh]     -19.94591451 [kcal/mol]     -83.45370631 [kJ/mol]

  Special recipe for scaled SAPT0 (see Manual):
    Electrostatics sSAPT0         -43.11495929 [mEh]     -27.05504542 [kcal/mol]    -113.19831003 [kJ/mol]
    Exchange sSAPT0                39.82038197 [mEh]      24.98766694 [kcal/mol]     104.54839846 [kJ/mol]
    Induction sSAPT0              -16.60738446 [mEh]     -10.42129108 [kcal/mol]     -43.60268190 [kJ/mol]
    Dispersion sSAPT0             -11.35302265 [mEh]      -7.12412927 [kcal/mol]     -29.80735686 [kJ/mol]
  Total sSAPT0                    -31.25498444 [mEh]     -19.61279884 [kcal/mol]     -82.05995033 [kJ/mol]
  --------------------------------------------------------------------------------------------------------

*** tstop() called on r282 at Thu Sep  9 12:31:23 2021
Module time:
	user time   =     175.04 seconds =       2.92 minutes
	system time =      28.63 seconds =       0.48 minutes
	total time  =        204 seconds =       3.40 minutes
Total time:
	user time   =     436.23 seconds =       7.27 minutes
	system time =      32.75 seconds =       0.55 minutes
	total time  =        470 seconds =       7.83 minutes

    Psi4 stopped on: Thursday, 09 September 2021 12:31PM
    Psi4 wall time for execution: 0:07:49.59

*** Psi4 exiting successfully. Buy a developer a beer!
