
    -----------------------------------------------------------------------
          Psi4: An Open-Source Ab Initio Electronic Structure Package
                               Psi4 1.3.2 release

                         Git: Rev {HEAD} ecbda83 


    R. M. Parrish, L. A. Burns, D. G. A. Smith, A. C. Simmonett,
    A. E. DePrince III, E. G. Hohenstein, U. Bozkaya, A. Yu. Sokolov,
    R. Di Remigio, R. M. Richard, J. F. Gonthier, A. M. James,
    H. R. McAlexander, A. Kumar, M. Saitow, X. Wang, B. P. Pritchard,
    P. Verma, H. F. Schaefer III, K. Patkowski, R. A. King, E. F. Valeev,
    F. A. Evangelista, J. M. Turney, T. D. Crawford, and C. D. Sherrill,
    J. Chem. Theory Comput. 13(7) pp 3185--3197 (2017).
    (doi: 10.1021/acs.jctc.7b00174)


                         Additional Contributions by
    P. Kraus, H. Kruse, M. H. Lechner, M. C. Schieber, R. A. Shaw,
    A. Alenaizan, R. Galvelis, Z. L. Glick, S. Lehtola, and J. P. Misiewicz

    -----------------------------------------------------------------------


    Psi4 started on: Wednesday, 15 September 2021 07:28AM

    Process ID: 5547
    Host:       r282
    PSIDATADIR: /home/r08543048/miniconda3/share/psi4
    Memory:     500.0 MiB
    Threads:    1
    
  ==> Input File <==

--------------------------------------------------------------------------
# Any line starting with the # character is a comment line
#! Sample  computation

memory 22 gb

molecule Dimer {

0 1
 C                  1.72192956   -0.68442793    0.35820801
 C                  1.72197856    0.68442607   -0.31192699
 H                  0.84293056   -0.81633893    0.98825301
 H                  2.60256456   -0.81468193    0.98608001
 H                  1.72057056   -1.48518193   -0.38054599
 H                  1.72040056    1.48518007    0.42682701
 H                  0.84312656    0.81629107   -0.94218499
 H                  2.60276156    0.81472307   -0.93958299
--
0 1
 C                 -1.72193456   -0.68442607   -0.35820901
 C                 -1.72197356    0.68442793    0.31192699
 H                 -1.72059256   -1.48518007    0.38054599
 H                 -0.84293256   -0.81634707   -0.98824501
 H                 -2.60256556   -0.81466907   -0.98608801
 H                 -0.84312456    0.81628393    0.94219099
 H                 -2.60275856    0.81473493    0.93957699
 H                 -1.72038056    1.48518193   -0.42682701

units angstrom
no_reorient
symmetry c1
}

set globals{
  basis jun-cc-pvtz
}

energy('sapt0')
--------------------------------------------------------------------------

  Memory set to  20.489 GiB by Python driver.

  //>>>>>>>>>>>>>>>>>>>>>>>>>>>>>>>>>>>//
  //              Dimer HF             //
  //<<<<<<<<<<<<<<<<<<<<<<<<<<<<<<<<<<<//


*** tstart() called on r282
*** at Wed Sep 15 07:28:02 2021

   => Loading Basis Set <=

    Name: JUN-CC-PVTZ
    Role: ORBITAL
    Keyword: BASIS
    atoms 1-2, 9-10  entry C          line   217 file /home/r08543048/miniconda3/share/psi4/basis/jun-cc-pvtz.gbs 
    atoms 3-8, 11-16 entry H          line    36 file /home/r08543048/miniconda3/share/psi4/basis/jun-cc-pvtz.gbs 


         ---------------------------------------------------------
                                   SCF
               by Justin Turney, Rob Parrish, Andy Simmonett
                          and Daniel G. A. Smith
                              RHF Reference
                        1 Threads,  20980 MiB Core
         ---------------------------------------------------------

  ==> Geometry <==

    Molecular point group: c1
    Full point group: C1

    Geometry (in Angstrom), charge = 0, multiplicity = 1:

       Center              X                  Y                   Z               Mass       
    ------------   -----------------  -----------------  -----------------  -----------------
         C            1.721929560000    -0.684427862917     0.358208209687    12.000000000000
         C            1.721978560000     0.684426137083    -0.311926790313    12.000000000000
         H            0.842930560000    -0.816338862917     0.988253209687     1.007825032230
         H            2.602564560000    -0.814681862917     0.986080209687     1.007825032230
         H            1.720570560000    -1.485181862917    -0.380545790313     1.007825032230
         H            1.720400560000     1.485180137083     0.426827209687     1.007825032230
         H            0.843126560000     0.816291137083    -0.942184790313     1.007825032230
         H            2.602761560000     0.814723137083    -0.939582790313     1.007825032230
         C           -1.721934560000    -0.684426002917    -0.358208810313    12.000000000000
         C           -1.721973560000     0.684427997083     0.311927189687    12.000000000000
         H           -1.720592560000    -1.485180002917     0.380546189687     1.007825032230
         H           -0.842932560000    -0.816347002917    -0.988244810313     1.007825032230
         H           -2.602565560000    -0.814669002917    -0.986087810313     1.007825032230
         H           -0.843124560000     0.816283997083     0.942191189687     1.007825032230
         H           -2.602758560000     0.814734997083     0.939577189687     1.007825032230
         H           -1.720380560000     1.485181997083    -0.426826810313     1.007825032230

  Running in c1 symmetry.

  Rotational constants: A =      0.33530  B =      0.08514  C =      0.07621 [cm^-1]
  Rotational constants: A =  10051.92926  B =   2552.38700  C =   2284.67098 [MHz]
  Nuclear repulsion =  131.754952869481485

  Charge       = 0
  Multiplicity = 1
  Electrons    = 36
  Nalpha       = 18
  Nbeta        = 18

  ==> Algorithm <==

  SCF Algorithm Type is DF.
  DIIS enabled.
  MOM disabled.
  Fractional occupation disabled.
  Guess Type is SAD.
  Energy threshold   = 1.00e-08
  Density threshold  = 1.00e-08
  Integral threshold = 0.00e+00

  ==> Primary Basis <==

  Basis Set: JUN-CC-PVTZ
    Blend: JUN-CC-PVTZ
    Number of shells: 124
    Number of basis function: 324
    Number of Cartesian functions: 360
    Spherical Harmonics?: true
    Max angular momentum: 3

   => Loading Basis Set <=

    Name: (JUN-CC-PVTZ AUX)
    Role: JKFIT
    Keyword: DF_BASIS_SCF
    atoms 1-2, 9-10  entry C          line   152 file /home/r08543048/miniconda3/share/psi4/basis/jun-cc-pvtz-jkfit.gbs 
    atoms 3-8, 11-16 entry H          line    70 file /home/r08543048/miniconda3/share/psi4/basis/jun-cc-pvtz-jkfit.gbs 

  ==> Pre-Iterations <==

   -------------------------------------------------------
    Irrep   Nso     Nmo     Nalpha   Nbeta   Ndocc  Nsocc
   -------------------------------------------------------
     A        324     324       0       0       0       0
   -------------------------------------------------------
    Total     324     324      18      18      18       0
   -------------------------------------------------------

  ==> Integral Setup <==

  ==> DiskDFJK: Density-Fitted J/K Matrices <==

    J tasked:                  Yes
    K tasked:                  Yes
    wK tasked:                  No
    OpenMP threads:              1
    Integrals threads:           1
    Memory [MiB]:            15735
    Algorithm:                Core
    Integral Cache:           SAVE
    Schwarz Cutoff:          1E-12
    Fitting Condition:       1E-10

   => Auxiliary Basis Set <=

  Basis Set: (JUN-CC-PVTZ AUX)
    Blend: JUN-CC-PVTZ-JKFIT
    Number of shells: 236
    Number of basis function: 740
    Number of Cartesian functions: 884
    Spherical Harmonics?: true
    Max angular momentum: 4

  Minimum eigenvalue in the overlap matrix is 1.1286428025E-04.
  Using Symmetric Orthogonalization.

  SCF Guess: Superposition of Atomic Densities via on-the-fly atomic UHF.

  ==> Iterations <==

                           Total Energy        Delta E     RMS |[F,P]|

   @DF-RHF iter SAD:  -157.49377144305970   -1.57494e+02   0.00000e+00 
   @DF-RHF iter   1:  -158.29347436305909   -7.99703e-01   1.87512e-03 DIIS
   @DF-RHF iter   2:  -158.47467517290357   -1.81201e-01   8.49704e-04 DIIS
   @DF-RHF iter   3:  -158.51334796712950   -3.86728e-02   1.44812e-04 DIIS
   @DF-RHF iter   4:  -158.51594245771466   -2.59449e-03   2.03625e-05 DIIS
   @DF-RHF iter   5:  -158.51600008274275   -5.76250e-05   4.13955e-06 DIIS
   @DF-RHF iter   6:  -158.51600217813734   -2.09539e-06   6.39405e-07 DIIS
   @DF-RHF iter   7:  -158.51600222772470   -4.95874e-08   1.16681e-07 DIIS
   @DF-RHF iter   8:  -158.51600222906677   -1.34207e-09   2.03951e-08 DIIS
   @DF-RHF iter   9:  -158.51600222912074   -5.39728e-11   4.37851e-09 DIIS
  Energy and wave function converged.


  ==> Post-Iterations <==

    Orbital Energies [Eh]
    ---------------------

    Doubly Occupied:                                                      

       1A    -11.209811     2A    -11.209808     3A    -11.209191  
       4A    -11.209190     5A     -1.023899     6A     -1.013753  
       7A     -0.844376     8A     -0.839284     9A     -0.616849  
      10A     -0.602553    11A     -0.592738    12A     -0.577385  
      13A     -0.511305    14A     -0.508055    15A     -0.488658  
      16A     -0.486774    17A     -0.486044    18A     -0.484335  

    Virtual:                                                              

      19A      0.054064    20A      0.061682    21A      0.062215  
      22A      0.066245    23A      0.085495    24A      0.095338  
      25A      0.095765    26A      0.101877    27A      0.102374  
      28A      0.125965    29A      0.126419    30A      0.134378  
      31A      0.135486    32A      0.173592    33A      0.189283  
      34A      0.189730    35A      0.251337    36A      0.262879  
      37A      0.271149    38A      0.278744    39A      0.280953  
      40A      0.283279    41A      0.299021    42A      0.300814  
      43A      0.311468    44A      0.316590    45A      0.321717  
      46A      0.326251    47A      0.336465    48A      0.337290  
      49A      0.344543    50A      0.353890    51A      0.358829  
      52A      0.360931    53A      0.362176    54A      0.372147  
      55A      0.382268    56A      0.391979    57A      0.392280  
      58A      0.410176    59A      0.454910    60A      0.470849  
      61A      0.480166    62A      0.485060    63A      0.498541  
      64A      0.508427    65A      0.522761    66A      0.536951  
      67A      0.547744    68A      0.567892    69A      0.641905  
      70A      0.642018    71A      0.645085    72A      0.647824  
      73A      0.684377    74A      0.700499    75A      0.704231  
      76A      0.720809    77A      0.734458    78A      0.737340  
      79A      0.751478    80A      0.753298    81A      0.766313  
      82A      0.794842    83A      0.795172    84A      0.820764  
      85A      0.821199    86A      0.831820    87A      0.839364  
      88A      0.843751    89A      0.858245    90A      0.860241  
      91A      0.861187    92A      0.902425    93A      0.911355  
      94A      0.931998    95A      0.953776    96A      0.965411  
      97A      0.977459    98A      0.984411    99A      0.999129  
     100A      1.030972   101A      1.044721   102A      1.066549  
     103A      1.084438   104A      1.095816   105A      1.173453  
     106A      1.215080   107A      1.250290   108A      1.274743  
     109A      1.282417   110A      1.296637   111A      1.324807  
     112A      1.334626   113A      1.340746   114A      1.345528  
     115A      1.354855   116A      1.362776   117A      1.380898  
     118A      1.391105   119A      1.397989   120A      1.404680  
     121A      1.443262   122A      1.460088   123A      1.465313  
     124A      1.467646   125A      1.502040   126A      1.518999  
     127A      1.525281   128A      1.558455   129A      1.570074  
     130A      1.577067   131A      1.613282   132A      1.613289  
     133A      1.628888   134A      1.630591   135A      1.661548  
     136A      1.677279   137A      1.692190   138A      1.695222  
     139A      1.709410   140A      1.717046   141A      1.765074  
     142A      1.791976   143A      1.812626   144A      1.828266  
     145A      1.872494   146A      1.875954   147A      1.902247  
     148A      1.907786   149A      1.933672   150A      1.935444  
     151A      1.991582   152A      2.001596   153A      2.655074  
     154A      2.716598   155A      2.738904   156A      2.746308  
     157A      2.750792   158A      2.769619   159A      2.779811  
     160A      2.781165   161A      2.788775   162A      2.824519  
     163A      2.836630   164A      2.892411   165A      2.909049  
     166A      2.927667   167A      2.941969   168A      2.977078  
     169A      3.067345   170A      3.071727   171A      3.083881  
     172A      3.114619   173A      3.140566   174A      3.145107  
     175A      3.146715   176A      3.171400   177A      3.185034  
     178A      3.193967   179A      3.210954   180A      3.213561  
     181A      3.274187   182A      3.277749   183A      3.277891  
     184A      3.291391   185A      3.293453   186A      3.297067  
     187A      3.335439   188A      3.341434   189A      3.343570  
     190A      3.363116   191A      3.417871   192A      3.428104  
     193A      3.439972   194A      3.441263   195A      3.453456  
     196A      3.468222   197A      3.489214   198A      3.501278  
     199A      3.511629   200A      3.513581   201A      3.532587  
     202A      3.536184   203A      3.546725   204A      3.574957  
     205A      3.598813   206A      3.607029   207A      3.607530  
     208A      3.614276   209A      3.685832   210A      3.695388  
     211A      3.742537   212A      3.770647   213A      3.773592  
     214A      3.791842   215A      3.805504   216A      3.842064  
     217A      3.849314   218A      3.854443   219A      3.855068  
     220A      3.877810   221A      3.887059   222A      3.903414  
     223A      3.904423   224A      3.908481   225A      3.930175  
     226A      3.939242   227A      3.960916   228A      3.961916  
     229A      4.132868   230A      4.160849   231A      4.177077  
     232A      4.182200   233A      4.184790   234A      4.185928  
     235A      4.229459   236A      4.235872   237A      4.239197  
     238A      4.241677   239A      4.267717   240A      4.276687  
     241A      4.281250   242A      4.285416   243A      4.289500  
     244A      4.337544   245A      4.412968   246A      4.416389  
     247A      4.426884   248A      4.444761   249A      4.469942  
     250A      4.481915   251A      4.493925   252A      4.495386  
     253A      4.503500   254A      4.513996   255A      4.515976  
     256A      4.521806   257A      4.544405   258A      4.557922  
     259A      4.579813   260A      4.620332   261A      4.664980  
     262A      4.676952   263A      4.680958   264A      4.712875  
     265A      4.717136   266A      4.744605   267A      4.777570  
     268A      4.787913   269A      4.793564   270A      4.846830  
     271A      4.875332   272A      4.887973   273A      4.945036  
     274A      4.957437   275A      5.174469   276A      5.179496  
     277A      5.194029   278A      5.206514   279A      5.232042  
     280A      5.235003   281A      5.264245   282A      5.279181  
     283A      5.289219   284A      5.290354   285A      5.303722  
     286A      5.319339   287A      5.327713   288A      5.340764  
     289A      5.348664   290A      5.350157   291A      5.353988  
     292A      5.365248   293A      5.682522   294A      5.694825  
     295A      5.704784   296A      5.711177   297A      5.751138  
     298A      5.754431   299A      5.755519   300A      5.759545  
     301A      5.776543   302A      5.777967   303A      5.780790  
     304A      5.800002   305A      5.801961   306A      5.805974  
     307A      5.887806   308A      5.906744   309A      5.917222  
     310A      5.938320   311A      5.953952   312A      5.961128  
     313A      6.453556   314A      6.455145   315A      6.467779  
     316A      6.473211   317A      6.493307   318A      6.503618  
     319A      6.514203   320A      6.550559   321A     14.232327  
     322A     14.409147   323A     14.614878   324A     14.742660  

    Final Occupation by Irrep:
              A 
    DOCC [    18 ]

  @DF-RHF Final Energy:  -158.51600222912074

   => Energetics <=

    Nuclear Repulsion Energy =            131.7549528694814853
    One-Electron Energy =                -472.7138943653757792
    Two-Electron Energy =                 182.4429392667735499
    Total Energy =                       -158.5160022291207440

Computation Completed


Properties will be evaluated at   0.000000,   0.000000,   0.000000 [a0]

Properties computed using the SCF density matrix

  Nuclear Dipole Moment: [e a0]
     X:    -0.0000      Y:    -0.0000      Z:     0.0000

  Electronic Dipole Moment: [e a0]
     X:     0.0000      Y:    -0.0001      Z:    -0.0000

  Dipole Moment: [e a0]
     X:     0.0000      Y:    -0.0001      Z:    -0.0000     Total:     0.0001

  Dipole Moment: [D]
     X:     0.0000      Y:    -0.0002      Z:    -0.0000     Total:     0.0002


*** tstop() called on r282 at Wed Sep 15 07:28:14 2021
Module time:
	user time   =      11.19 seconds =       0.19 minutes
	system time =       0.40 seconds =       0.01 minutes
	total time  =         12 seconds =       0.20 minutes
Total time:
	user time   =      11.19 seconds =       0.19 minutes
	system time =       0.40 seconds =       0.01 minutes
	total time  =         12 seconds =       0.20 minutes

  //>>>>>>>>>>>>>>>>>>>>>>>>>>>>>>>>>>>//
  //            Monomer A HF           //
  //<<<<<<<<<<<<<<<<<<<<<<<<<<<<<<<<<<<//


*** tstart() called on r282
*** at Wed Sep 15 07:28:14 2021

   => Loading Basis Set <=

    Name: JUN-CC-PVTZ
    Role: ORBITAL
    Keyword: BASIS
    atoms 1-2, 9-10  entry C          line   217 file /home/r08543048/miniconda3/share/psi4/basis/jun-cc-pvtz.gbs 
    atoms 3-8, 11-16 entry H          line    36 file /home/r08543048/miniconda3/share/psi4/basis/jun-cc-pvtz.gbs 


         ---------------------------------------------------------
                                   SCF
               by Justin Turney, Rob Parrish, Andy Simmonett
                          and Daniel G. A. Smith
                              RHF Reference
                        1 Threads,  20980 MiB Core
         ---------------------------------------------------------

  ==> Geometry <==

    Molecular point group: c1
    Full point group: C1

    Geometry (in Angstrom), charge = 0, multiplicity = 1:

       Center              X                  Y                   Z               Mass       
    ------------   -----------------  -----------------  -----------------  -----------------
         C            1.721929560000    -0.684427862917     0.358208209687    12.000000000000
         C            1.721978560000     0.684426137083    -0.311926790313    12.000000000000
         H            0.842930560000    -0.816338862917     0.988253209687     1.007825032230
         H            2.602564560000    -0.814681862917     0.986080209687     1.007825032230
         H            1.720570560000    -1.485181862917    -0.380545790313     1.007825032230
         H            1.720400560000     1.485180137083     0.426827209687     1.007825032230
         H            0.843126560000     0.816291137083    -0.942184790313     1.007825032230
         H            2.602761560000     0.814723137083    -0.939582790313     1.007825032230
      Gh(C)          -1.721934560000    -0.684426002917    -0.358208810313    12.000000000000
      Gh(C)          -1.721973560000     0.684427997083     0.311927189687    12.000000000000
      Gh(H)          -1.720592560000    -1.485180002917     0.380546189687     1.007825032230
      Gh(H)          -0.842932560000    -0.816347002917    -0.988244810313     1.007825032230
      Gh(H)          -2.602565560000    -0.814669002917    -0.986087810313     1.007825032230
      Gh(H)          -0.843124560000     0.816283997083     0.942191189687     1.007825032230
      Gh(H)          -2.602758560000     0.814734997083     0.939577189687     1.007825032230
      Gh(H)          -1.720380560000     1.485181997083    -0.426826810313     1.007825032230

  Running in c1 symmetry.

  Rotational constants: A =      0.33530  B =      0.08514  C =      0.07621 [cm^-1]
  Rotational constants: A =  10051.92926  B =   2552.38700  C =   2284.67098 [MHz]
  Nuclear repulsion =   42.340038866349083

  Charge       = 0
  Multiplicity = 1
  Electrons    = 18
  Nalpha       = 9
  Nbeta        = 9

  ==> Algorithm <==

  SCF Algorithm Type is DF.
  DIIS enabled.
  MOM disabled.
  Fractional occupation disabled.
  Guess Type is SAD.
  Energy threshold   = 1.00e-08
  Density threshold  = 1.00e-08
  Integral threshold = 0.00e+00

  ==> Primary Basis <==

  Basis Set: JUN-CC-PVTZ
    Blend: JUN-CC-PVTZ
    Number of shells: 124
    Number of basis function: 324
    Number of Cartesian functions: 360
    Spherical Harmonics?: true
    Max angular momentum: 3

   => Loading Basis Set <=

    Name: (JUN-CC-PVTZ AUX)
    Role: JKFIT
    Keyword: DF_BASIS_SCF
    atoms 1-2, 9-10  entry C          line   152 file /home/r08543048/miniconda3/share/psi4/basis/jun-cc-pvtz-jkfit.gbs 
    atoms 3-8, 11-16 entry H          line    70 file /home/r08543048/miniconda3/share/psi4/basis/jun-cc-pvtz-jkfit.gbs 

  ==> Pre-Iterations <==

   -------------------------------------------------------
    Irrep   Nso     Nmo     Nalpha   Nbeta   Ndocc  Nsocc
   -------------------------------------------------------
     A        324     324       0       0       0       0
   -------------------------------------------------------
    Total     324     324       9       9       9       0
   -------------------------------------------------------

  ==> Integral Setup <==

  ==> DiskDFJK: Density-Fitted J/K Matrices <==

    J tasked:                  Yes
    K tasked:                  Yes
    wK tasked:                  No
    OpenMP threads:              1
    Integrals threads:           1
    Memory [MiB]:            15735
    Algorithm:                Core
    Integral Cache:           LOAD
    Schwarz Cutoff:          1E-12
    Fitting Condition:       1E-10

   => Auxiliary Basis Set <=

  Basis Set: (JUN-CC-PVTZ AUX)
    Blend: JUN-CC-PVTZ-JKFIT
    Number of shells: 236
    Number of basis function: 740
    Number of Cartesian functions: 884
    Spherical Harmonics?: true
    Max angular momentum: 4

  Minimum eigenvalue in the overlap matrix is 1.1286428025E-04.
  Using Symmetric Orthogonalization.

  SCF Guess: Superposition of Atomic Densities via on-the-fly atomic UHF.

  ==> Iterations <==

                           Total Energy        Delta E     RMS |[F,P]|

   @DF-RHF iter SAD:   -78.66015755838458   -7.86602e+01   0.00000e+00 
   @DF-RHF iter   1:   -79.14809900096041   -4.87941e-01   1.34050e-03 DIIS
   @DF-RHF iter   2:   -79.23892183857525   -9.08228e-02   6.12103e-04 DIIS
   @DF-RHF iter   3:   -79.25885570898748   -1.99339e-02   1.00083e-04 DIIS
   @DF-RHF iter   4:   -79.26012124315706   -1.26553e-03   1.38843e-05 DIIS
   @DF-RHF iter   5:   -79.26014908787602   -2.78447e-05   2.48173e-06 DIIS
   @DF-RHF iter   6:   -79.26014992869744   -8.40821e-07   2.97866e-07 DIIS
   @DF-RHF iter   7:   -79.26014994154943   -1.28520e-08   3.29472e-08 DIIS
   @DF-RHF iter   8:   -79.26014994168357   -1.34136e-10   5.34596e-09 DIIS
  Energy and wave function converged.


  ==> Post-Iterations <==

    Orbital Energies [Eh]
    ---------------------

    Doubly Occupied:                                                      

       1A    -11.210501     2A    -11.209890     3A     -1.018472  
       4A     -0.841706     5A     -0.597135     6A     -0.596901  
       7A     -0.509952     8A     -0.486688     9A     -0.486446  

    Virtual:                                                              

      10A      0.040500    11A      0.050878    12A      0.058436  
      13A      0.063573    14A      0.081147    15A      0.092142  
      16A      0.092515    17A      0.098057    18A      0.102980  
      19A      0.117560    20A      0.123539    21A      0.125807  
      22A      0.134220    23A      0.157145    24A      0.160272  
      25A      0.188836    26A      0.216376    27A      0.235647  
      28A      0.237171    29A      0.263543    30A      0.285633  
      31A      0.287134    32A      0.293414    33A      0.297386  
      34A      0.307157    35A      0.314177    36A      0.324704  
      37A      0.338114    38A      0.343430    39A      0.345232  
      40A      0.347451    41A      0.356080    42A      0.357066  
      43A      0.365226    44A      0.366241    45A      0.377525  
      46A      0.390910    47A      0.407845    48A      0.422228  
      49A      0.435408    50A      0.438221    51A      0.466079  
      52A      0.483676    53A      0.493167    54A      0.494028  
      55A      0.517537    56A      0.519288    57A      0.533289  
      58A      0.546386    59A      0.567134    60A      0.570622  
      61A      0.607896    62A      0.617337    63A      0.634279  
      64A      0.636443    65A      0.653347    66A      0.657262  
      67A      0.664397    68A      0.717653    69A      0.749495  
      70A      0.753589    71A      0.756174    72A      0.775908  
      73A      0.784854    74A      0.796605    75A      0.801140  
      76A      0.836436    77A      0.862179    78A      0.878718  
      79A      0.879641    80A      0.952961    81A      0.958036  
      82A      0.975663    83A      1.016310    84A      1.027309  
      85A      1.043008    86A      1.056091    87A      1.061171  
      88A      1.090091    89A      1.113118    90A      1.118955  
      91A      1.130723    92A      1.158510    93A      1.161330  
      94A      1.172802    95A      1.210827    96A      1.216694  
      97A      1.233779    98A      1.243827    99A      1.267821  
     100A      1.301137   101A      1.307629   102A      1.310429  
     103A      1.335313   104A      1.337579   105A      1.342485  
     106A      1.362722   107A      1.382506   108A      1.386285  
     109A      1.393890   110A      1.410726   111A      1.424769  
     112A      1.448303   113A      1.466590   114A      1.481952  
     115A      1.497597   116A      1.505053   117A      1.519391  
     118A      1.542922   119A      1.544778   120A      1.570536  
     121A      1.576360   122A      1.617793   123A      1.634432  
     124A      1.643436   125A      1.653139   126A      1.665582  
     127A      1.684120   128A      1.697990   129A      1.708726  
     130A      1.723421   131A      1.772304   132A      1.792274  
     133A      1.799296   134A      1.820119   135A      1.822337  
     136A      1.903010   137A      1.914973   138A      1.924994  
     139A      1.977248   140A      1.997975   141A      2.019546  
     142A      2.089950   143A      2.093171   144A      2.239369  
     145A      2.292250   146A      2.315650   147A      2.406289  
     148A      2.408836   149A      2.504272   150A      2.542571  
     151A      2.738141   152A      2.757909   153A      2.771449  
     154A      2.814926   155A      2.819066   156A      2.863537  
     157A      2.918762   158A      2.945993   159A      3.081155  
     160A      3.099224   161A      3.131874   162A      3.183464  
     163A      3.187254   164A      3.215230   165A      3.241717  
     166A      3.279158   167A      3.287679   168A      3.329748  
     169A      3.342938   170A      3.399349   171A      3.414963  
     172A      3.436946   173A      3.454061   174A      3.499768  
     175A      3.506546   176A      3.510411   177A      3.525943  
     178A      3.546390   179A      3.554848   180A      3.555292  
     181A      3.569393   182A      3.579261   183A      3.599359  
     184A      3.607757   185A      3.612567   186A      3.622539  
     187A      3.675913   188A      3.748715   189A      3.754231  
     190A      3.786603   191A      3.792819   192A      3.795260  
     193A      3.803335   194A      3.820432   195A      3.823218  
     196A      3.845359   197A      3.852446   198A      3.873938  
     199A      3.876429   200A      3.904808   201A      3.922071  
     202A      3.931827   203A      3.946503   204A      3.950822  
     205A      4.074861   206A      4.076978   207A      4.099837  
     208A      4.102932   209A      4.153593   210A      4.164022  
     211A      4.180103   212A      4.186696   213A      4.190787  
     214A      4.219481   215A      4.232839   216A      4.234438  
     217A      4.285944   218A      4.296485   219A      4.343580  
     220A      4.350288   221A      4.379806   222A      4.401784  
     223A      4.422570   224A      4.434169   225A      4.453683  
     226A      4.462885   227A      4.474549   228A      4.488201  
     229A      4.490327   230A      4.492528   231A      4.515461  
     232A      4.525166   233A      4.525492   234A      4.543155  
     235A      4.588364   236A      4.594656   237A      4.609040  
     238A      4.615774   239A      4.660042   240A      4.677950  
     241A      4.708240   242A      4.720692   243A      4.729340  
     244A      4.730592   245A      4.737195   246A      4.766980  
     247A      4.770956   248A      4.801908   249A      4.806958  
     250A      4.817719   251A      4.833462   252A      4.855859  
     253A      4.867089   254A      4.934802   255A      4.938188  
     256A      4.941160   257A      4.972595   258A      4.973896  
     259A      4.992809   260A      4.999825   261A      5.012631  
     262A      5.028714   263A      5.049846   264A      5.107252  
     265A      5.151894   266A      5.179932   267A      5.217497  
     268A      5.223818   269A      5.281018   270A      5.285639  
     271A      5.294275   272A      5.322865   273A      5.338804  
     274A      5.347111   275A      5.362489   276A      5.391525  
     277A      5.397591   278A      5.421184   279A      5.645916  
     280A      5.653238   281A      5.693801   282A      5.705137  
     283A      5.714812   284A      5.718621   285A      5.762613  
     286A      5.764190   287A      5.784836   288A      5.791617  
     289A      5.799184   290A      5.918155   291A      5.929190  
     292A      5.930610   293A      6.001617   294A      6.007588  
     295A      6.226486   296A      6.328544   297A      6.333884  
     298A      6.354345   299A      6.372077   300A      6.403137  
     301A      6.442282   302A      6.450501   303A      6.467821  
     304A      6.480878   305A      6.506728   306A      6.535325  
     307A      6.803077   308A      6.898709   309A      7.351080  
     310A      7.501239   311A      7.508140   312A      7.653562  
     313A      7.677104   314A      7.794565   315A      7.799264  
     316A      7.903173   317A      7.911785   318A      8.258810  
     319A      9.758465   320A      9.929316   321A     14.322197  
     322A     14.680494   323A     45.197597   324A     45.617924  

    Final Occupation by Irrep:
              A 
    DOCC [     9 ]

  @DF-RHF Final Energy:   -79.26014994168357

   => Energetics <=

    Nuclear Repulsion Energy =             42.3400388663490830
    One-Electron Energy =                -189.2849946345145042
    Two-Electron Energy =                  67.6848058264818491
    Total Energy =                        -79.2601499416835651

Computation Completed


Properties will be evaluated at   0.000000,   0.000000,   0.000000 [a0]

Properties computed using the SCF density matrix

  Nuclear Dipole Moment: [e a0]
     X:    58.5736      Y:    -0.0000      Z:     0.7871

  Electronic Dipole Moment: [e a0]
     X:   -58.5733      Y:     0.0000      Z:    -0.7871

  Dipole Moment: [e a0]
     X:     0.0002      Y:    -0.0000      Z:     0.0000     Total:     0.0002

  Dipole Moment: [D]
     X:     0.0006      Y:    -0.0000      Z:     0.0000     Total:     0.0006


*** tstop() called on r282 at Wed Sep 15 07:28:19 2021
Module time:
	user time   =       4.84 seconds =       0.08 minutes
	system time =       0.12 seconds =       0.00 minutes
	total time  =          5 seconds =       0.08 minutes
Total time:
	user time   =      16.04 seconds =       0.27 minutes
	system time =       0.52 seconds =       0.01 minutes
	total time  =         17 seconds =       0.28 minutes

  //>>>>>>>>>>>>>>>>>>>>>>>>>>>>>>>>>>>//
  //            Monomer B HF           //
  //<<<<<<<<<<<<<<<<<<<<<<<<<<<<<<<<<<<//


*** tstart() called on r282
*** at Wed Sep 15 07:28:19 2021

   => Loading Basis Set <=

    Name: JUN-CC-PVTZ
    Role: ORBITAL
    Keyword: BASIS
    atoms 1-2, 9-10  entry C          line   217 file /home/r08543048/miniconda3/share/psi4/basis/jun-cc-pvtz.gbs 
    atoms 3-8, 11-16 entry H          line    36 file /home/r08543048/miniconda3/share/psi4/basis/jun-cc-pvtz.gbs 


         ---------------------------------------------------------
                                   SCF
               by Justin Turney, Rob Parrish, Andy Simmonett
                          and Daniel G. A. Smith
                              RHF Reference
                        1 Threads,  20980 MiB Core
         ---------------------------------------------------------

  ==> Geometry <==

    Molecular point group: c1
    Full point group: C1

    Geometry (in Angstrom), charge = 0, multiplicity = 1:

       Center              X                  Y                   Z               Mass       
    ------------   -----------------  -----------------  -----------------  -----------------
      Gh(C)           1.721929560000    -0.684427862917     0.358208209687    12.000000000000
      Gh(C)           1.721978560000     0.684426137083    -0.311926790313    12.000000000000
      Gh(H)           0.842930560000    -0.816338862917     0.988253209687     1.007825032230
      Gh(H)           2.602564560000    -0.814681862917     0.986080209687     1.007825032230
      Gh(H)           1.720570560000    -1.485181862917    -0.380545790313     1.007825032230
      Gh(H)           1.720400560000     1.485180137083     0.426827209687     1.007825032230
      Gh(H)           0.843126560000     0.816291137083    -0.942184790313     1.007825032230
      Gh(H)           2.602761560000     0.814723137083    -0.939582790313     1.007825032230
         C           -1.721934560000    -0.684426002917    -0.358208810313    12.000000000000
         C           -1.721973560000     0.684427997083     0.311927189687    12.000000000000
         H           -1.720592560000    -1.485180002917     0.380546189687     1.007825032230
         H           -0.842932560000    -0.816347002917    -0.988244810313     1.007825032230
         H           -2.602565560000    -0.814669002917    -0.986087810313     1.007825032230
         H           -0.843124560000     0.816283997083     0.942191189687     1.007825032230
         H           -2.602758560000     0.814734997083     0.939577189687     1.007825032230
         H           -1.720380560000     1.485181997083    -0.426826810313     1.007825032230

  Running in c1 symmetry.

  Rotational constants: A =      0.33530  B =      0.08514  C =      0.07621 [cm^-1]
  Rotational constants: A =  10051.92926  B =   2552.38700  C =   2284.67098 [MHz]
  Nuclear repulsion =   42.340041252263866

  Charge       = 0
  Multiplicity = 1
  Electrons    = 18
  Nalpha       = 9
  Nbeta        = 9

  ==> Algorithm <==

  SCF Algorithm Type is DF.
  DIIS enabled.
  MOM disabled.
  Fractional occupation disabled.
  Guess Type is SAD.
  Energy threshold   = 1.00e-08
  Density threshold  = 1.00e-08
  Integral threshold = 0.00e+00

  ==> Primary Basis <==

  Basis Set: JUN-CC-PVTZ
    Blend: JUN-CC-PVTZ
    Number of shells: 124
    Number of basis function: 324
    Number of Cartesian functions: 360
    Spherical Harmonics?: true
    Max angular momentum: 3

   => Loading Basis Set <=

    Name: (JUN-CC-PVTZ AUX)
    Role: JKFIT
    Keyword: DF_BASIS_SCF
    atoms 1-2, 9-10  entry C          line   152 file /home/r08543048/miniconda3/share/psi4/basis/jun-cc-pvtz-jkfit.gbs 
    atoms 3-8, 11-16 entry H          line    70 file /home/r08543048/miniconda3/share/psi4/basis/jun-cc-pvtz-jkfit.gbs 

  ==> Pre-Iterations <==

   -------------------------------------------------------
    Irrep   Nso     Nmo     Nalpha   Nbeta   Ndocc  Nsocc
   -------------------------------------------------------
     A        324     324       0       0       0       0
   -------------------------------------------------------
    Total     324     324       9       9       9       0
   -------------------------------------------------------

  ==> Integral Setup <==

  ==> DiskDFJK: Density-Fitted J/K Matrices <==

    J tasked:                  Yes
    K tasked:                  Yes
    wK tasked:                  No
    OpenMP threads:              1
    Integrals threads:           1
    Memory [MiB]:            15735
    Algorithm:                Core
    Integral Cache:           LOAD
    Schwarz Cutoff:          1E-12
    Fitting Condition:       1E-10

   => Auxiliary Basis Set <=

  Basis Set: (JUN-CC-PVTZ AUX)
    Blend: JUN-CC-PVTZ-JKFIT
    Number of shells: 236
    Number of basis function: 740
    Number of Cartesian functions: 884
    Spherical Harmonics?: true
    Max angular momentum: 4

  Minimum eigenvalue in the overlap matrix is 1.1286428025E-04.
  Using Symmetric Orthogonalization.

  SCF Guess: Superposition of Atomic Densities via on-the-fly atomic UHF.

  ==> Iterations <==

                           Total Energy        Delta E     RMS |[F,P]|

   @DF-RHF iter SAD:   -78.66015784734164   -7.86602e+01   0.00000e+00 
   @DF-RHF iter   1:   -79.14809904726934   -4.87941e-01   1.34049e-03 DIIS
   @DF-RHF iter   2:   -79.23892188016964   -9.08228e-02   6.12103e-04 DIIS
   @DF-RHF iter   3:   -79.25885572414921   -1.99338e-02   1.00083e-04 DIIS
   @DF-RHF iter   4:   -79.26012125743242   -1.26553e-03   1.38843e-05 DIIS
   @DF-RHF iter   5:   -79.26014910216375   -2.78447e-05   2.48173e-06 DIIS
   @DF-RHF iter   6:   -79.26014994298725   -8.40824e-07   2.97866e-07 DIIS
   @DF-RHF iter   7:   -79.26014995583809   -1.28508e-08   3.29472e-08 DIIS
   @DF-RHF iter   8:   -79.26014995597193   -1.33838e-10   5.34593e-09 DIIS
  Energy and wave function converged.


  ==> Post-Iterations <==

    Orbital Energies [Eh]
    ---------------------

    Doubly Occupied:                                                      

       1A    -11.210501     2A    -11.209889     3A     -1.018472  
       4A     -0.841706     5A     -0.597136     6A     -0.596901  
       7A     -0.509952     8A     -0.486689     9A     -0.486446  

    Virtual:                                                              

      10A      0.040500    11A      0.050878    12A      0.058436  
      13A      0.063573    14A      0.081147    15A      0.092142  
      16A      0.092515    17A      0.098057    18A      0.102980  
      19A      0.117560    20A      0.123539    21A      0.125807  
      22A      0.134220    23A      0.157145    24A      0.160272  
      25A      0.188836    26A      0.216376    27A      0.235646  
      28A      0.237172    29A      0.263543    30A      0.285633  
      31A      0.287134    32A      0.293414    33A      0.297386  
      34A      0.307157    35A      0.314177    36A      0.324704  
      37A      0.338114    38A      0.343430    39A      0.345232  
      40A      0.347451    41A      0.356080    42A      0.357066  
      43A      0.365226    44A      0.366240    45A      0.377525  
      46A      0.390910    47A      0.407845    48A      0.422228  
      49A      0.435408    50A      0.438221    51A      0.466079  
      52A      0.483676    53A      0.493167    54A      0.494028  
      55A      0.517537    56A      0.519288    57A      0.533289  
      58A      0.546386    59A      0.567134    60A      0.570622  
      61A      0.607896    62A      0.617337    63A      0.634279  
      64A      0.636443    65A      0.653347    66A      0.657262  
      67A      0.664397    68A      0.717653    69A      0.749495  
      70A      0.753589    71A      0.756174    72A      0.775908  
      73A      0.784854    74A      0.796605    75A      0.801140  
      76A      0.836435    77A      0.862180    78A      0.878718  
      79A      0.879641    80A      0.952962    81A      0.958036  
      82A      0.975663    83A      1.016310    84A      1.027309  
      85A      1.043008    86A      1.056091    87A      1.061171  
      88A      1.090091    89A      1.113118    90A      1.118955  
      91A      1.130723    92A      1.158510    93A      1.161329  
      94A      1.172802    95A      1.210827    96A      1.216695  
      97A      1.233779    98A      1.243827    99A      1.267821  
     100A      1.301137   101A      1.307629   102A      1.310429  
     103A      1.335313   104A      1.337579   105A      1.342485  
     106A      1.362722   107A      1.382506   108A      1.386285  
     109A      1.393890   110A      1.410726   111A      1.424770  
     112A      1.448304   113A      1.466590   114A      1.481952  
     115A      1.497597   116A      1.505053   117A      1.519391  
     118A      1.542922   119A      1.544778   120A      1.570536  
     121A      1.576360   122A      1.617792   123A      1.634432  
     124A      1.643435   125A      1.653139   126A      1.665582  
     127A      1.684120   128A      1.697990   129A      1.708726  
     130A      1.723421   131A      1.772303   132A      1.792274  
     133A      1.799296   134A      1.820118   135A      1.822339  
     136A      1.903011   137A      1.914974   138A      1.924993  
     139A      1.977248   140A      1.997975   141A      2.019545  
     142A      2.089950   143A      2.093171   144A      2.239369  
     145A      2.292250   146A      2.315650   147A      2.406289  
     148A      2.408836   149A      2.504272   150A      2.542571  
     151A      2.738141   152A      2.757908   153A      2.771450  
     154A      2.814926   155A      2.819066   156A      2.863536  
     157A      2.918762   158A      2.945993   159A      3.081155  
     160A      3.099224   161A      3.131874   162A      3.183464  
     163A      3.187254   164A      3.215230   165A      3.241717  
     166A      3.279158   167A      3.287679   168A      3.329748  
     169A      3.342938   170A      3.399349   171A      3.414963  
     172A      3.436946   173A      3.454061   174A      3.499767  
     175A      3.506546   176A      3.510411   177A      3.525943  
     178A      3.546390   179A      3.554848   180A      3.555293  
     181A      3.569393   182A      3.579260   183A      3.599359  
     184A      3.607757   185A      3.612567   186A      3.622539  
     187A      3.675913   188A      3.748714   189A      3.754234  
     190A      3.786604   191A      3.792819   192A      3.795260  
     193A      3.803335   194A      3.820432   195A      3.823218  
     196A      3.845359   197A      3.852446   198A      3.873939  
     199A      3.876429   200A      3.904808   201A      3.922071  
     202A      3.931827   203A      3.946504   204A      3.950823  
     205A      4.074861   206A      4.076978   207A      4.099835  
     208A      4.102933   209A      4.153592   210A      4.164023  
     211A      4.180103   212A      4.186697   213A      4.190787  
     214A      4.219480   215A      4.232840   216A      4.234437  
     217A      4.285945   218A      4.296484   219A      4.343580  
     220A      4.350288   221A      4.379806   222A      4.401784  
     223A      4.422570   224A      4.434169   225A      4.453683  
     226A      4.462885   227A      4.474549   228A      4.488201  
     229A      4.490328   230A      4.492528   231A      4.515461  
     232A      4.525166   233A      4.525493   234A      4.543155  
     235A      4.588363   236A      4.594657   237A      4.609039  
     238A      4.615774   239A      4.660042   240A      4.677950  
     241A      4.708240   242A      4.720692   243A      4.729340  
     244A      4.730592   245A      4.737195   246A      4.766981  
     247A      4.770956   248A      4.801908   249A      4.806958  
     250A      4.817718   251A      4.833462   252A      4.855859  
     253A      4.867089   254A      4.934803   255A      4.938188  
     256A      4.941161   257A      4.972596   258A      4.973896  
     259A      4.992809   260A      4.999825   261A      5.012631  
     262A      5.028713   263A      5.049846   264A      5.107252  
     265A      5.151894   266A      5.179933   267A      5.217498  
     268A      5.223819   269A      5.281018   270A      5.285640  
     271A      5.294276   272A      5.322865   273A      5.338805  
     274A      5.347111   275A      5.362490   276A      5.391524  
     277A      5.397590   278A      5.421184   279A      5.645915  
     280A      5.653237   281A      5.693801   282A      5.705139  
     283A      5.714811   284A      5.718622   285A      5.762614  
     286A      5.764191   287A      5.784837   288A      5.791618  
     289A      5.799185   290A      5.918156   291A      5.929191  
     292A      5.930610   293A      6.001617   294A      6.007588  
     295A      6.226485   296A      6.328544   297A      6.333883  
     298A      6.354344   299A      6.372077   300A      6.403139  
     301A      6.442281   302A      6.450500   303A      6.467821  
     304A      6.480878   305A      6.506728   306A      6.535325  
     307A      6.803077   308A      6.898708   309A      7.351080  
     310A      7.501238   311A      7.508140   312A      7.653562  
     313A      7.677101   314A      7.794565   315A      7.799259  
     316A      7.903174   317A      7.911780   318A      8.258810  
     319A      9.758463   320A      9.929314   321A     14.322200  
     322A     14.680501   323A     45.197592   324A     45.617909  

    Final Occupation by Irrep:
              A 
    DOCC [     9 ]

  @DF-RHF Final Energy:   -79.26014995597193

   => Energetics <=

    Nuclear Repulsion Energy =             42.3400412522638661
    One-Electron Energy =                -189.2849990877300286
    Two-Electron Energy =                  67.6848078794942438
    Total Energy =                        -79.2601499559719258

Computation Completed


Properties will be evaluated at   0.000000,   0.000000,   0.000000 [a0]

Properties computed using the SCF density matrix

  Nuclear Dipole Moment: [e a0]
     X:   -58.5736      Y:     0.0000      Z:    -0.7871

  Electronic Dipole Moment: [e a0]
     X:    58.5733      Y:    -0.0000      Z:     0.7871

  Dipole Moment: [e a0]
     X:    -0.0002      Y:    -0.0000      Z:    -0.0000     Total:     0.0002

  Dipole Moment: [D]
     X:    -0.0006      Y:    -0.0000      Z:    -0.0000     Total:     0.0006


*** tstop() called on r282 at Wed Sep 15 07:28:24 2021
Module time:
	user time   =       4.72 seconds =       0.08 minutes
	system time =       0.16 seconds =       0.00 minutes
	total time  =          5 seconds =       0.08 minutes
Total time:
	user time   =      20.77 seconds =       0.35 minutes
	system time =       0.68 seconds =       0.01 minutes
	total time  =         22 seconds =       0.37 minutes
  Constructing Basis Sets for SAPT...

   => Loading Basis Set <=

    Name: (JUN-CC-PVTZ AUX)
    Role: RIFIT
    Keyword: DF_BASIS_SAPT
    atoms 1-2, 9-10  entry C          line   132 file /home/r08543048/miniconda3/share/psi4/basis/jun-cc-pvtz-ri.gbs 
    atoms 3-8, 11-16 entry H          line    30 file /home/r08543048/miniconda3/share/psi4/basis/jun-cc-pvtz-ri.gbs 


  //>>>>>>>>>>>>>>>>>>>>>>>>>>>>>>>>>>>//
  //               SAPT0               //
  //<<<<<<<<<<<<<<<<<<<<<<<<<<<<<<<<<<<//


*** tstart() called on r282
*** at Wed Sep 15 07:28:25 2021

        SAPT0  
    Ed Hohenstein
     6 June 2009

      Orbital Information
  --------------------------
    NSO        =       324
    NMO        =       324
    NRI        =       748
    NOCC A     =         9
    NOCC B     =         9
    FOCC A     =         0
    FOCC B     =         0
    NVIR A     =       315
    NVIR B     =       315

    Elst10,r            =    -0.002093803844 [Eh]
    Exch10              =     0.006925240234 [Eh]
    Exch10 (S^2)        =     0.006901565148 [Eh]

    Iter     Energy [mEh]          dE [mEh]         Residual      Time [s]
       1      -0.46180716       0.461807157       2.771705311             1
       2      -0.56001122       0.098204059       0.410634503             1
       3      -0.55926619      -0.000745028       0.132775457             1
       4      -0.55824961      -0.001016579       0.026544695             1
       5      -0.55839671       0.000147099       0.005018598             2
       6      -0.55839657      -0.000000138       0.000930742             2
       7      -0.55839299      -0.000003581       0.000165505             2
       8      -0.55839331       0.000000320       0.000041555             2
       9      -0.55839339       0.000000076       0.000010402             3
      10      -0.55839337      -0.000000011       0.000002236             3
      11      -0.55839337      -0.000000005       0.000000408             3

    CHF Iterations converged


    Iter     Energy [mEh]          dE [mEh]         Residual      Time [s]
       1      -0.46180644       0.461806444       2.771703620             0
       2      -0.56001034       0.098203894       0.410635407             1
       3      -0.55926533      -0.000745012       0.132775667             1
       4      -0.55824874      -0.001016584       0.026544727             1
       5      -0.55839584       0.000147100       0.005018601             1
       6      -0.55839570      -0.000000138       0.000930746             1
       7      -0.55839212      -0.000003581       0.000165511             2
       8      -0.55839244       0.000000320       0.000041561             2
       9      -0.55839252       0.000000076       0.000010404             2
      10      -0.55839251      -0.000000011       0.000002236             2
      11      -0.55839250      -0.000000005       0.000000408             3

    CHF Iterations converged

    Ind20,r (A<-B)      =    -0.000558393369 [Eh]
    Ind20,r (B<-A)      =    -0.000558392503 [Eh]
    Ind20,r             =    -0.001116785872 [Eh]
    Exch-Ind20,r (A<-B) =     0.000503342679 [Eh]
    Exch-Ind20,r (B<-A) =     0.000503341775 [Eh]
    Exch-Ind20,r        =     0.001006684454 [Eh]
    Disp20              =    -0.006722998911 [Eh]
    Disp20 (SS)         =    -0.003361499456 [Eh]
    Disp20 (OS)         =    -0.003361499456 [Eh]
    Exch-Disp20         =     0.000682356631 [Eh]
    Exch-Disp20 (SS)    =     0.000445403384 [Eh]
    Exch-Disp20 (OS)    =     0.000236953248 [Eh]

    SAPT Results 
  --------------------------------------------------------------------------------------------------------
    Electrostatics                 -2.09380384 [mEh]      -1.31388175 [kcal/mol]      -5.49728123 [kJ/mol]
      Elst10,r                     -2.09380384 [mEh]      -1.31388175 [kcal/mol]      -5.49728123 [kJ/mol]

    Exchange                        6.92524023 [mEh]       4.34565385 [kcal/mol]      18.18221573 [kJ/mol]
      Exch10                        6.92524023 [mEh]       4.34565385 [kcal/mol]      18.18221573 [kJ/mol]
      Exch10(S^2)                   6.90156515 [mEh]       4.33079751 [kcal/mol]      18.12005680 [kJ/mol]

    Induction                      -0.53376786 [mEh]      -0.33494439 [kcal/mol]      -1.40140731 [kJ/mol]
      Ind20,r                      -1.11678587 [mEh]      -0.70079371 [kcal/mol]      -2.93212090 [kJ/mol]
      Exch-Ind20,r                  1.00668445 [mEh]       0.63170403 [kcal/mol]       2.64304967 [kJ/mol]
      delta HF,r (2)               -0.42366644 [mEh]      -0.26585470 [kcal/mol]      -1.11233608 [kJ/mol]

    Dispersion                     -6.04064228 [mEh]      -3.79056026 [kcal/mol]     -15.85970412 [kJ/mol]
      Disp20                       -6.72299891 [mEh]      -4.21874551 [kcal/mol]     -17.65123121 [kJ/mol]
      Exch-Disp20                   0.68235663 [mEh]       0.42818525 [kcal/mol]       1.79152709 [kJ/mol]
      Disp20 (SS)                  -3.36149946 [mEh]      -2.10937275 [kcal/mol]      -8.82561560 [kJ/mol]
      Disp20 (OS)                  -3.36149946 [mEh]      -2.10937275 [kcal/mol]      -8.82561560 [kJ/mol]
      Exch-Disp20 (SS)              0.44540338 [mEh]       0.27949484 [kcal/mol]       1.16940642 [kJ/mol]
      Exch-Disp20 (OS)              0.23695325 [mEh]       0.14869041 [kcal/mol]       0.62212067 [kJ/mol]

  Total HF                          4.29766853 [mEh]       2.69682772 [kcal/mol]      11.28352718 [kJ/mol]
  Total SAPT0                      -1.74297375 [mEh]      -1.09373254 [kcal/mol]      -4.57617694 [kJ/mol]

  Special recipe for scaled SAPT0 (see Manual):
    Electrostatics sSAPT0          -2.09380384 [mEh]      -1.31388175 [kcal/mol]      -5.49728123 [kJ/mol]
    Exchange sSAPT0                 6.92524023 [mEh]       4.34565385 [kcal/mol]      18.18221573 [kJ/mol]
    Induction sSAPT0               -0.52337230 [mEh]      -0.32842108 [kcal/mol]      -1.37411379 [kJ/mol]
    Dispersion sSAPT0              -6.03359591 [mEh]      -3.78613859 [kcal/mol]     -15.84120387 [kJ/mol]
  Total sSAPT0                     -1.72553182 [mEh]      -1.08278757 [kcal/mol]      -4.53038317 [kJ/mol]
  --------------------------------------------------------------------------------------------------------

*** tstop() called on r282 at Wed Sep 15 07:28:46 2021
Module time:
	user time   =      17.52 seconds =       0.29 minutes
	system time =       3.74 seconds =       0.06 minutes
	total time  =         21 seconds =       0.35 minutes
Total time:
	user time   =      38.40 seconds =       0.64 minutes
	system time =       4.42 seconds =       0.07 minutes
	total time  =         44 seconds =       0.73 minutes

    Psi4 stopped on: Wednesday, 15 September 2021 07:28AM
    Psi4 wall time for execution: 0:00:43.82

*** Psi4 exiting successfully. Buy a developer a beer!
