
    -----------------------------------------------------------------------
          Psi4: An Open-Source Ab Initio Electronic Structure Package
                               Psi4 1.3.2 release

                         Git: Rev {HEAD} ecbda83 


    R. M. Parrish, L. A. Burns, D. G. A. Smith, A. C. Simmonett,
    A. E. DePrince III, E. G. Hohenstein, U. Bozkaya, A. Yu. Sokolov,
    R. Di Remigio, R. M. Richard, J. F. Gonthier, A. M. James,
    H. R. McAlexander, A. Kumar, M. Saitow, X. Wang, B. P. Pritchard,
    P. Verma, H. F. Schaefer III, K. Patkowski, R. A. King, E. F. Valeev,
    F. A. Evangelista, J. M. Turney, T. D. Crawford, and C. D. Sherrill,
    J. Chem. Theory Comput. 13(7) pp 3185--3197 (2017).
    (doi: 10.1021/acs.jctc.7b00174)


                         Additional Contributions by
    P. Kraus, H. Kruse, M. H. Lechner, M. C. Schieber, R. A. Shaw,
    A. Alenaizan, R. Galvelis, Z. L. Glick, S. Lehtola, and J. P. Misiewicz

    -----------------------------------------------------------------------


    Psi4 started on: Wednesday, 15 September 2021 07:36AM

    Process ID: 6029
    Host:       r282
    PSIDATADIR: /home/r08543048/miniconda3/share/psi4
    Memory:     500.0 MiB
    Threads:    1
    
  ==> Input File <==

--------------------------------------------------------------------------
# Any line starting with the # character is a comment line
#! Sample  computation

memory 22 gb

molecule Dimer {

0 1
 C                 -1.49627305   -1.23363809    0.51183856
 C                 -1.18529505   -0.05068009   -0.39672444
 C                 -1.28625005    1.27855491    0.34095556
 H                 -0.80659905   -1.26495709    1.35680456
 H                 -2.50746005   -1.15608409    0.91397656
 H                 -1.41758305   -2.18171209   -0.01972844
 H                 -1.87256605   -0.05106809   -1.24532344
 H                 -0.18177405   -0.16349209   -0.81210644
 H                 -1.05986905    2.12088091   -0.31252044
 H                 -2.29149705    1.42248091    0.73982456
 H                 -0.58943805    1.30967491    1.18003756
--
0 1
 C                  1.49597405   -1.23376491   -0.51184256
 C                  1.18543805   -0.05072391    0.39676444
 C                  1.28642505    1.27846609   -0.34098856
 H                  0.80606005   -1.26503491   -1.35662056
 H                  2.50706005   -1.15637391   -0.91426456
 H                  1.41727805   -2.18180191    0.01978844
 H                  1.87292605   -0.05119291    1.24518744
 H                  0.18200105   -0.16334791    0.81240944
 H                  1.06041005    2.12085009    0.31253944
 H                  2.29157705    1.42219509   -0.74016856
 H                  0.58936105    1.30969109   -1.17984756

units angstrom
no_reorient
symmetry c1
}

set globals{
  basis jun-cc-pvtz
}

energy('sapt0')
--------------------------------------------------------------------------

  Memory set to  20.489 GiB by Python driver.

  //>>>>>>>>>>>>>>>>>>>>>>>>>>>>>>>>>>>//
  //              Dimer HF             //
  //<<<<<<<<<<<<<<<<<<<<<<<<<<<<<<<<<<<//


*** tstart() called on r282
*** at Wed Sep 15 07:36:26 2021

   => Loading Basis Set <=

    Name: JUN-CC-PVTZ
    Role: ORBITAL
    Keyword: BASIS
    atoms 1-3, 12-14  entry C          line   217 file /home/r08543048/miniconda3/share/psi4/basis/jun-cc-pvtz.gbs 
    atoms 4-11, 15-22 entry H          line    36 file /home/r08543048/miniconda3/share/psi4/basis/jun-cc-pvtz.gbs 


         ---------------------------------------------------------
                                   SCF
               by Justin Turney, Rob Parrish, Andy Simmonett
                          and Daniel G. A. Smith
                              RHF Reference
                        1 Threads,  20980 MiB Core
         ---------------------------------------------------------

  ==> Geometry <==

    Molecular point group: c1
    Full point group: C1

    Geometry (in Angstrom), charge = 0, multiplicity = 1:

       Center              X                  Y                   Z               Mass       
    ------------   -----------------  -----------------  -----------------  -----------------
         C           -1.496274344928    -1.232841828463     0.511838288726    12.000000000000
         C           -1.185296344928    -0.049883828463    -0.396724711274    12.000000000000
         C           -1.286251344928     1.279351171537     0.340955288726    12.000000000000
         H           -0.806600344928    -1.264160828463     1.356804288726     1.007825032230
         H           -2.507461344928    -1.155287828463     0.913976288726     1.007825032230
         H           -1.417584344928    -2.180915828463    -0.019728711274     1.007825032230
         H           -1.872567344928    -0.050271828463    -1.245323711274     1.007825032230
         H           -0.181775344928    -0.162695828463    -0.812106711274     1.007825032230
         H           -1.059870344928     2.121677171537    -0.312520711274     1.007825032230
         H           -2.291498344928     1.423277171537     0.739824288726     1.007825032230
         H           -0.589439344928     1.310471171537     1.180037288726     1.007825032230
         C            1.495972755072    -1.232968648463    -0.511842831274    12.000000000000
         C            1.185436755072    -0.049927648463     0.396764168726    12.000000000000
         C            1.286423755072     1.279262351537    -0.340988831274    12.000000000000
         H            0.806058755072    -1.264238648463    -1.356620831274     1.007825032230
         H            2.507058755072    -1.155577648463    -0.914264831274     1.007825032230
         H            1.417276755072    -2.181005648463     0.019788168726     1.007825032230
         H            1.872924755072    -0.050396648463     1.245187168726     1.007825032230
         H            0.181999755072    -0.162551648463     0.812409168726     1.007825032230
         H            1.060408755072     2.121646351537     0.312539168726     1.007825032230
         H            2.291575755072     1.422991351537    -0.740168831274     1.007825032230
         H            0.589359755072     1.310487351537    -1.179847831274     1.007825032230

  Running in c1 symmetry.

  Rotational constants: A =      0.12875  B =      0.08749  C =      0.06069 [cm^-1]
  Rotational constants: A =   3859.85428  B =   2622.81238  C =   1819.57719 [MHz]
  Nuclear repulsion =  282.313598626657438

  Charge       = 0
  Multiplicity = 1
  Electrons    = 52
  Nalpha       = 26
  Nbeta        = 26

  ==> Algorithm <==

  SCF Algorithm Type is DF.
  DIIS enabled.
  MOM disabled.
  Fractional occupation disabled.
  Guess Type is SAD.
  Energy threshold   = 1.00e-08
  Density threshold  = 1.00e-08
  Integral threshold = 0.00e+00

  ==> Primary Basis <==

  Basis Set: JUN-CC-PVTZ
    Blend: JUN-CC-PVTZ
    Number of shells: 174
    Number of basis function: 458
    Number of Cartesian functions: 510
    Spherical Harmonics?: true
    Max angular momentum: 3

   => Loading Basis Set <=

    Name: (JUN-CC-PVTZ AUX)
    Role: JKFIT
    Keyword: DF_BASIS_SCF
    atoms 1-3, 12-14  entry C          line   152 file /home/r08543048/miniconda3/share/psi4/basis/jun-cc-pvtz-jkfit.gbs 
    atoms 4-11, 15-22 entry H          line    70 file /home/r08543048/miniconda3/share/psi4/basis/jun-cc-pvtz-jkfit.gbs 

  ==> Pre-Iterations <==

   -------------------------------------------------------
    Irrep   Nso     Nmo     Nalpha   Nbeta   Ndocc  Nsocc
   -------------------------------------------------------
     A        458     458       0       0       0       0
   -------------------------------------------------------
    Total     458     458      26      26      26       0
   -------------------------------------------------------

  ==> Integral Setup <==

  ==> DiskDFJK: Density-Fitted J/K Matrices <==

    J tasked:                  Yes
    K tasked:                  Yes
    wK tasked:                  No
    OpenMP threads:              1
    Integrals threads:           1
    Memory [MiB]:            15735
    Algorithm:                Core
    Integral Cache:           SAVE
    Schwarz Cutoff:          1E-12
    Fitting Condition:       1E-10

   => Auxiliary Basis Set <=

  Basis Set: (JUN-CC-PVTZ AUX)
    Blend: JUN-CC-PVTZ-JKFIT
    Number of shells: 334
    Number of basis function: 1050
    Number of Cartesian functions: 1256
    Spherical Harmonics?: true
    Max angular momentum: 4

  Minimum eigenvalue in the overlap matrix is 4.5551912578E-05.
  Using Symmetric Orthogonalization.

  SCF Guess: Superposition of Atomic Densities via on-the-fly atomic UHF.

  ==> Iterations <==

                           Total Energy        Delta E     RMS |[F,P]|

   @DF-RHF iter SAD:  -236.87784410082213   -2.36878e+02   0.00000e+00 
   @DF-RHF iter   1:  -236.17083809327954    7.07006e-01   1.61845e-03 DIIS
   @DF-RHF iter   2:  -236.43215616566050   -2.61318e-01   8.30751e-04 DIIS
   @DF-RHF iter   3:  -236.50611913948563   -7.39630e-02   1.48477e-04 DIIS
   @DF-RHF iter   4:  -236.51056712860685   -4.44799e-03   3.61798e-05 DIIS
   @DF-RHF iter   5:  -236.51078606627334   -2.18938e-04   8.63230e-06 DIIS
   @DF-RHF iter   6:  -236.51080107223015   -1.50060e-05   1.58616e-06 DIIS
   @DF-RHF iter   7:  -236.51080160609229   -5.33862e-07   3.72263e-07 DIIS
   @DF-RHF iter   8:  -236.51080163832006   -3.22278e-08   8.90501e-08 DIIS
   @DF-RHF iter   9:  -236.51080163986882   -1.54876e-09   2.39120e-08 DIIS
   @DF-RHF iter  10:  -236.51080163999296   -1.24146e-10   5.98914e-09 DIIS
  Energy and wave function converged.


  ==> Post-Iterations <==

    Orbital Energies [Eh]
    ---------------------

    Doubly Occupied:                                                      

       1A    -11.207203     2A    -11.207199     3A    -11.202300  
       4A    -11.202282     5A    -11.201670     6A    -11.201658  
       7A     -1.098925     8A     -1.029646     9A     -0.945355  
      10A     -0.911691    11A     -0.810496    12A     -0.805847  
      13A     -0.691463    14A     -0.617447    15A     -0.601537  
      16A     -0.568500    17A     -0.562680    18A     -0.553706  
      19A     -0.530210    20A     -0.505358    21A     -0.488581  
      22A     -0.478685    23A     -0.471384    24A     -0.461709  
      25A     -0.450514    26A     -0.445778  

    Virtual:                                                              

      27A      0.049307    28A      0.052978    29A      0.055783  
      30A      0.060853    31A      0.074347    32A      0.077993  
      33A      0.090333    34A      0.093538    35A      0.093730  
      36A      0.117049    37A      0.121045    38A      0.123609  
      39A      0.125313    40A      0.129588    41A      0.132878  
      42A      0.154549    43A      0.157390    44A      0.164138  
      45A      0.167543    46A      0.177738    47A      0.191307  
      48A      0.202854    49A      0.209272    50A      0.213748  
      51A      0.261149    52A      0.265286    53A      0.277917  
      54A      0.283952    55A      0.289973    56A      0.303156  
      57A      0.303340    58A      0.310189    59A      0.312661  
      60A      0.316450    61A      0.321492    62A      0.327006  
      63A      0.330245    64A      0.340381    65A      0.345329  
      66A      0.347776    67A      0.350272    68A      0.365129  
      69A      0.372391    70A      0.378906    71A      0.384032  
      72A      0.389911    73A      0.397089    74A      0.405239  
      75A      0.413975    76A      0.417712    77A      0.431196  
      78A      0.431453    79A      0.446778    80A      0.453398  
      81A      0.457553    82A      0.479287    83A      0.486439  
      84A      0.501750    85A      0.506938    86A      0.507277  
      87A      0.519282    88A      0.533037    89A      0.535411  
      90A      0.538329    91A      0.563598    92A      0.567418  
      93A      0.573322    94A      0.589057    95A      0.589989  
      96A      0.597569    97A      0.606437    98A      0.607986  
      99A      0.609577   100A      0.636317   101A      0.648920  
     102A      0.664323   103A      0.679366   104A      0.690616  
     105A      0.699903   106A      0.706052   107A      0.726254  
     108A      0.749540   109A      0.756884   110A      0.759498  
     111A      0.765221   112A      0.771619   113A      0.779568  
     114A      0.789293   115A      0.795936   116A      0.813249  
     117A      0.816610   118A      0.824501   119A      0.831574  
     120A      0.836035   121A      0.845427   122A      0.860598  
     123A      0.863967   124A      0.867373   125A      0.870664  
     126A      0.894439   127A      0.894716   128A      0.901043  
     129A      0.916915   130A      0.922494   131A      0.940893  
     132A      0.952068   133A      0.971513   134A      0.983679  
     135A      0.990065   136A      1.032909   137A      1.048232  
     138A      1.048860   139A      1.061932   140A      1.083321  
     141A      1.108650   142A      1.128569   143A      1.132832  
     144A      1.158134   145A      1.167133   146A      1.187747  
     147A      1.203554   148A      1.207825   149A      1.226082  
     150A      1.230997   151A      1.275743   152A      1.299093  
     153A      1.302559   154A      1.303214   155A      1.326039  
     156A      1.353501   157A      1.354884   158A      1.381027  
     159A      1.393134   160A      1.399140   161A      1.416705  
     162A      1.435281   163A      1.435399   164A      1.461296  
     165A      1.471943   166A      1.482533   167A      1.500558  
     168A      1.503586   169A      1.508971   170A      1.515211  
     171A      1.522818   172A      1.544944   173A      1.548128  
     174A      1.558027   175A      1.564133   176A      1.578730  
     177A      1.582446   178A      1.594620   179A      1.602342  
     180A      1.610402   181A      1.620980   182A      1.624022  
     183A      1.653356   184A      1.655183   185A      1.660738  
     186A      1.687083   187A      1.695397   188A      1.696209  
     189A      1.702626   190A      1.709794   191A      1.759459  
     192A      1.775606   193A      1.776286   194A      1.788590  
     195A      1.796095   196A      1.805939   197A      1.823409  
     198A      1.832767   199A      1.838367   200A      1.858748  
     201A      1.878000   202A      1.887348   203A      1.902366  
     204A      1.920018   205A      1.940822   206A      1.954783  
     207A      1.963460   208A      1.966120   209A      1.997501  
     210A      2.006207   211A      2.018104   212A      2.042592  
     213A      2.083806   214A      2.117010   215A      2.130380  
     216A      2.198455   217A      2.227725   218A      2.324751  
     219A      2.724451   220A      2.748661   221A      2.752160  
     222A      2.766728   223A      2.793620   224A      2.834442  
     225A      2.843997   226A      2.890497   227A      2.900173  
     228A      2.931514   229A      2.933034   230A      2.938252  
     231A      2.962717   232A      2.970932   233A      2.987122  
     234A      2.990135   235A      3.003268   236A      3.024861  
     237A      3.034983   238A      3.050782   239A      3.069584  
     240A      3.075125   241A      3.086293   242A      3.119303  
     243A      3.136412   244A      3.151494   245A      3.155585  
     246A      3.171452   247A      3.172083   248A      3.202293  
     249A      3.209731   250A      3.251699   251A      3.255013  
     252A      3.275897   253A      3.277912   254A      3.309907  
     255A      3.314496   256A      3.331634   257A      3.342654  
     258A      3.348609   259A      3.350591   260A      3.361640  
     261A      3.384944   262A      3.386503   263A      3.391251  
     264A      3.409828   265A      3.423460   266A      3.433561  
     267A      3.434043   268A      3.457178   269A      3.469187  
     270A      3.470535   271A      3.477413   272A      3.486737  
     273A      3.516424   274A      3.519914   275A      3.528121  
     276A      3.528525   277A      3.540415   278A      3.555780  
     279A      3.566509   280A      3.570876   281A      3.584499  
     282A      3.590602   283A      3.598714   284A      3.603660  
     285A      3.618293   286A      3.627881   287A      3.643328  
     288A      3.667144   289A      3.694927   290A      3.701235  
     291A      3.705424   292A      3.718632   293A      3.740646  
     294A      3.752010   295A      3.773947   296A      3.787348  
     297A      3.793993   298A      3.797272   299A      3.805232  
     300A      3.816190   301A      3.823366   302A      3.848509  
     303A      3.850540   304A      3.859155   305A      3.875302  
     306A      3.882570   307A      3.920192   308A      3.922284  
     309A      3.936717   310A      3.945958   311A      3.947226  
     312A      3.974662   313A      3.979198   314A      4.024622  
     315A      4.031157   316A      4.062284   317A      4.082325  
     318A      4.092439   319A      4.105175   320A      4.120999  
     321A      4.148226   322A      4.168127   323A      4.186945  
     324A      4.195163   325A      4.196257   326A      4.258211  
     327A      4.268520   328A      4.281309   329A      4.297972  
     330A      4.305977   331A      4.309099   332A      4.323682  
     333A      4.326409   334A      4.334431   335A      4.346293  
     336A      4.355917   337A      4.365949   338A      4.381783  
     339A      4.391098   340A      4.413287   341A      4.423042  
     342A      4.432823   343A      4.457098   344A      4.463578  
     345A      4.474370   346A      4.483247   347A      4.491753  
     348A      4.491785   349A      4.516786   350A      4.542013  
     351A      4.546194   352A      4.553424   353A      4.576916  
     354A      4.579791   355A      4.606460   356A      4.628960  
     357A      4.631060   358A      4.643171   359A      4.647432  
     360A      4.675140   361A      4.681976   362A      4.699267  
     363A      4.707407   364A      4.713282   365A      4.716084  
     366A      4.727127   367A      4.735600   368A      4.783888  
     369A      4.798255   370A      4.804136   371A      4.809399  
     372A      4.836841   373A      4.867100   374A      4.875432  
     375A      4.903994   376A      4.927181   377A      4.945895  
     378A      4.950497   379A      4.991398   380A      5.000634  
     381A      5.046351   382A      5.059659   383A      5.072257  
     384A      5.081211   385A      5.120794   386A      5.124563  
     387A      5.131442   388A      5.173337   389A      5.212587  
     390A      5.216605   391A      5.227197   392A      5.240526  
     393A      5.249203   394A      5.267212   395A      5.299093  
     396A      5.300538   397A      5.326296   398A      5.330901  
     399A      5.340508   400A      5.388236   401A      5.389389  
     402A      5.407493   403A      5.428880   404A      5.439635  
     405A      5.471746   406A      5.520121   407A      5.538414  
     408A      5.539530   409A      5.553012   410A      5.553220  
     411A      5.577435   412A      5.608529   413A      5.636115  
     414A      5.662352   415A      5.673798   416A      5.699452  
     417A      5.701189   418A      5.751844   419A      5.766609  
     420A      5.778550   421A      5.798599   422A      5.809548  
     423A      5.824051   424A      5.835217   425A      5.854690  
     426A      5.857835   427A      5.859725   428A      5.865159  
     429A      5.895985   430A      5.906825   431A      5.907995  
     432A      5.918666   433A      5.990465   434A      6.000934  
     435A      6.040242   436A      6.077390   437A      6.083815  
     438A      6.102569   439A      6.165376   440A      6.251569  
     441A      6.256896   442A      6.340533   443A      6.498685  
     444A      6.538788   445A      6.559795   446A      6.584010  
     447A      6.605900   448A      6.622155   449A      6.660714  
     450A      6.695245   451A      6.753883   452A      6.878691  
     453A     14.424433   454A     14.631944   455A     14.975559  
     456A     15.120801   457A     15.157621   458A     15.373515  

    Final Occupation by Irrep:
              A 
    DOCC [    26 ]

  @DF-RHF Final Energy:  -236.51080163999296

   => Energetics <=

    Nuclear Repulsion Energy =            282.3135986266574378
    One-Electron Energy =                -877.1451519339998413
    Two-Electron Energy =                 358.3207516673493842
    Total Energy =                       -236.5108016399929625

Computation Completed


Properties will be evaluated at   0.000000,   0.000000,   0.000000 [a0]

Properties computed using the SCF density matrix

  Nuclear Dipole Moment: [e a0]
     X:    -0.0001      Y:     0.0782      Z:    -0.0000

  Electronic Dipole Moment: [e a0]
     X:     0.0002      Y:    -0.1053      Z:    -0.0000

  Dipole Moment: [e a0]
     X:     0.0001      Y:    -0.0270      Z:    -0.0000     Total:     0.0270

  Dipole Moment: [D]
     X:     0.0002      Y:    -0.0687      Z:    -0.0001     Total:     0.0687


*** tstop() called on r282 at Wed Sep 15 07:37:09 2021
Module time:
	user time   =      42.14 seconds =       0.70 minutes
	system time =       1.12 seconds =       0.02 minutes
	total time  =         43 seconds =       0.72 minutes
Total time:
	user time   =      42.14 seconds =       0.70 minutes
	system time =       1.12 seconds =       0.02 minutes
	total time  =         43 seconds =       0.72 minutes

  //>>>>>>>>>>>>>>>>>>>>>>>>>>>>>>>>>>>//
  //            Monomer A HF           //
  //<<<<<<<<<<<<<<<<<<<<<<<<<<<<<<<<<<<//


*** tstart() called on r282
*** at Wed Sep 15 07:37:09 2021

   => Loading Basis Set <=

    Name: JUN-CC-PVTZ
    Role: ORBITAL
    Keyword: BASIS
    atoms 1-3, 12-14  entry C          line   217 file /home/r08543048/miniconda3/share/psi4/basis/jun-cc-pvtz.gbs 
    atoms 4-11, 15-22 entry H          line    36 file /home/r08543048/miniconda3/share/psi4/basis/jun-cc-pvtz.gbs 


         ---------------------------------------------------------
                                   SCF
               by Justin Turney, Rob Parrish, Andy Simmonett
                          and Daniel G. A. Smith
                              RHF Reference
                        1 Threads,  20980 MiB Core
         ---------------------------------------------------------

  ==> Geometry <==

    Molecular point group: c1
    Full point group: C1

    Geometry (in Angstrom), charge = 0, multiplicity = 1:

       Center              X                  Y                   Z               Mass       
    ------------   -----------------  -----------------  -----------------  -----------------
         C           -1.496274344928    -1.232841828463     0.511838288726    12.000000000000
         C           -1.185296344928    -0.049883828463    -0.396724711274    12.000000000000
         C           -1.286251344928     1.279351171537     0.340955288726    12.000000000000
         H           -0.806600344928    -1.264160828463     1.356804288726     1.007825032230
         H           -2.507461344928    -1.155287828463     0.913976288726     1.007825032230
         H           -1.417584344928    -2.180915828463    -0.019728711274     1.007825032230
         H           -1.872567344928    -0.050271828463    -1.245323711274     1.007825032230
         H           -0.181775344928    -0.162695828463    -0.812106711274     1.007825032230
         H           -1.059870344928     2.121677171537    -0.312520711274     1.007825032230
         H           -2.291498344928     1.423277171537     0.739824288726     1.007825032230
         H           -0.589439344928     1.310471171537     1.180037288726     1.007825032230
      Gh(C)           1.495972755072    -1.232968648463    -0.511842831274    12.000000000000
      Gh(C)           1.185436755072    -0.049927648463     0.396764168726    12.000000000000
      Gh(C)           1.286423755072     1.279262351537    -0.340988831274    12.000000000000
      Gh(H)           0.806058755072    -1.264238648463    -1.356620831274     1.007825032230
      Gh(H)           2.507058755072    -1.155577648463    -0.914264831274     1.007825032230
      Gh(H)           1.417276755072    -2.181005648463     0.019788168726     1.007825032230
      Gh(H)           1.872924755072    -0.050396648463     1.245187168726     1.007825032230
      Gh(H)           0.181999755072    -0.162551648463     0.812409168726     1.007825032230
      Gh(H)           1.060408755072     2.121646351537     0.312539168726     1.007825032230
      Gh(H)           2.291575755072     1.422991351537    -0.740168831274     1.007825032230
      Gh(H)           0.589359755072     1.310487351537    -1.179847831274     1.007825032230

  Running in c1 symmetry.

  Rotational constants: A =      0.12875  B =      0.08749  C =      0.06069 [cm^-1]
  Rotational constants: A =   3859.85428  B =   2622.81238  C =   1819.57719 [MHz]
  Nuclear repulsion =   82.817219279052708

  Charge       = 0
  Multiplicity = 1
  Electrons    = 26
  Nalpha       = 13
  Nbeta        = 13

  ==> Algorithm <==

  SCF Algorithm Type is DF.
  DIIS enabled.
  MOM disabled.
  Fractional occupation disabled.
  Guess Type is SAD.
  Energy threshold   = 1.00e-08
  Density threshold  = 1.00e-08
  Integral threshold = 0.00e+00

  ==> Primary Basis <==

  Basis Set: JUN-CC-PVTZ
    Blend: JUN-CC-PVTZ
    Number of shells: 174
    Number of basis function: 458
    Number of Cartesian functions: 510
    Spherical Harmonics?: true
    Max angular momentum: 3

   => Loading Basis Set <=

    Name: (JUN-CC-PVTZ AUX)
    Role: JKFIT
    Keyword: DF_BASIS_SCF
    atoms 1-3, 12-14  entry C          line   152 file /home/r08543048/miniconda3/share/psi4/basis/jun-cc-pvtz-jkfit.gbs 
    atoms 4-11, 15-22 entry H          line    70 file /home/r08543048/miniconda3/share/psi4/basis/jun-cc-pvtz-jkfit.gbs 

  ==> Pre-Iterations <==

   -------------------------------------------------------
    Irrep   Nso     Nmo     Nalpha   Nbeta   Ndocc  Nsocc
   -------------------------------------------------------
     A        458     458       0       0       0       0
   -------------------------------------------------------
    Total     458     458      13      13      13       0
   -------------------------------------------------------

  ==> Integral Setup <==

  ==> DiskDFJK: Density-Fitted J/K Matrices <==

    J tasked:                  Yes
    K tasked:                  Yes
    wK tasked:                  No
    OpenMP threads:              1
    Integrals threads:           1
    Memory [MiB]:            15735
    Algorithm:                Core
    Integral Cache:           LOAD
    Schwarz Cutoff:          1E-12
    Fitting Condition:       1E-10

   => Auxiliary Basis Set <=

  Basis Set: (JUN-CC-PVTZ AUX)
    Blend: JUN-CC-PVTZ-JKFIT
    Number of shells: 334
    Number of basis function: 1050
    Number of Cartesian functions: 1256
    Spherical Harmonics?: true
    Max angular momentum: 4

  Minimum eigenvalue in the overlap matrix is 4.5551912578E-05.
  Using Symmetric Orthogonalization.

  SCF Guess: Superposition of Atomic Densities via on-the-fly atomic UHF.

  ==> Iterations <==

                           Total Energy        Delta E     RMS |[F,P]|

   @DF-RHF iter SAD:  -117.72589923810280   -1.17726e+02   0.00000e+00 
   @DF-RHF iter   1:  -118.14641909232213   -4.20520e-01   1.12550e-03 DIIS
   @DF-RHF iter   2:  -118.27583195363600   -1.29413e-01   5.32597e-04 DIIS
   @DF-RHF iter   3:  -118.30627313085543   -3.04412e-02   8.94946e-05 DIIS
   @DF-RHF iter   4:  -118.30812675886310   -1.85363e-03   1.76731e-05 DIIS
   @DF-RHF iter   5:  -118.30818530903271   -5.85502e-05   4.96992e-06 DIIS
   @DF-RHF iter   6:  -118.30818994419566   -4.63516e-06   8.92581e-07 DIIS
   @DF-RHF iter   7:  -118.30819011625442   -1.72059e-07   1.68390e-07 DIIS
   @DF-RHF iter   8:  -118.30819012380682   -7.55240e-09   2.95501e-08 DIIS
   @DF-RHF iter   9:  -118.30819012404226   -2.35431e-10   5.82827e-09 DIIS
  Energy and wave function converged.


  ==> Post-Iterations <==

    Orbital Energies [Eh]
    ---------------------

    Doubly Occupied:                                                      

       1A    -11.215589     2A    -11.207871     3A    -11.207821  
       4A     -1.054037     5A     -0.924832     6A     -0.799825  
       7A     -0.624738     8A     -0.598258     9A     -0.549389  
      10A     -0.530200    11A     -0.475535    12A     -0.474959  
      13A     -0.467989  

    Virtual:                                                              

      14A      0.035398    15A      0.048322    16A      0.052901  
      17A      0.056659    18A      0.071215    19A      0.075716  
      20A      0.088510    21A      0.091028    22A      0.091917  
      23A      0.115389    24A      0.116233    25A      0.120993  
      26A      0.122144    27A      0.125578    28A      0.130208  
      29A      0.135281    30A      0.150545    31A      0.156995  
      32A      0.159199    33A      0.166669    34A      0.170640  
      35A      0.179559    36A      0.202827    37A      0.207275  
      38A      0.238315    39A      0.252535    40A      0.266863  
      41A      0.269993    42A      0.272739    43A      0.294568  
      44A      0.295339    45A      0.305863    46A      0.310212  
      47A      0.313425    48A      0.320259    49A      0.324222  
      50A      0.332567    51A      0.336426    52A      0.341510  
      53A      0.352370    54A      0.353859    55A      0.363347  
      56A      0.366657    57A      0.380733    58A      0.388763  
      59A      0.398405    60A      0.403901    61A      0.412012  
      62A      0.417688    63A      0.424612    64A      0.437379  
      65A      0.440964    66A      0.453006    67A      0.455971  
      68A      0.463789    69A      0.490341    70A      0.495630  
      71A      0.501928    72A      0.508461    73A      0.516945  
      74A      0.529305    75A      0.537158    76A      0.543175  
      77A      0.552570    78A      0.562200    79A      0.575982  
      80A      0.581691    81A      0.587361    82A      0.598544  
      83A      0.603378    84A      0.612278    85A      0.620497  
      86A      0.622124    87A      0.637509    88A      0.643633  
      89A      0.644501    90A      0.653288    91A      0.669611  
      92A      0.676677    93A      0.686471    94A      0.698391  
      95A      0.706076    96A      0.724752    97A      0.728314  
      98A      0.741968    99A      0.775400   100A      0.779601  
     101A      0.799191   102A      0.806289   103A      0.814950  
     104A      0.817998   105A      0.834802   106A      0.840929  
     107A      0.852377   108A      0.866632   109A      0.891691  
     110A      0.898347   111A      0.909403   112A      0.917779  
     113A      0.928669   114A      0.961605   115A      0.975698  
     116A      0.979972   117A      1.004112   118A      1.044352  
     119A      1.062309   120A      1.071011   121A      1.102620  
     122A      1.122181   123A      1.134702   124A      1.146253  
     125A      1.154762   126A      1.170341   127A      1.184866  
     128A      1.193452   129A      1.199356   130A      1.217540  
     131A      1.225918   132A      1.228647   133A      1.248786  
     134A      1.258344   135A      1.266821   136A      1.288368  
     137A      1.292503   138A      1.303467   139A      1.322493  
     140A      1.334208   141A      1.345407   142A      1.355433  
     143A      1.370146   144A      1.379823   145A      1.388500  
     146A      1.394846   147A      1.404673   148A      1.409718  
     149A      1.427503   150A      1.441454   151A      1.455717  
     152A      1.469368   153A      1.478775   154A      1.503085  
     155A      1.508807   156A      1.531665   157A      1.539447  
     158A      1.545138   159A      1.552879   160A      1.562651  
     161A      1.568632   162A      1.580746   163A      1.594082  
     164A      1.602049   165A      1.615564   166A      1.621279  
     167A      1.642510   168A      1.656750   169A      1.657424  
     170A      1.684393   171A      1.694444   172A      1.700107  
     173A      1.708505   174A      1.722888   175A      1.732294  
     176A      1.746739   177A      1.758872   178A      1.775828  
     179A      1.800933   180A      1.812948   181A      1.820712  
     182A      1.851819   183A      1.868122   184A      1.880585  
     185A      1.893266   186A      1.898914   187A      1.909426  
     188A      1.927237   189A      1.936436   190A      1.944279  
     191A      1.986318   192A      2.002270   193A      2.007712  
     194A      2.027995   195A      2.052425   196A      2.070458  
     197A      2.093030   198A      2.106639   199A      2.119608  
     200A      2.133680   201A      2.167611   202A      2.225021  
     203A      2.247075   204A      2.307006   205A      2.318298  
     206A      2.336615   207A      2.367226   208A      2.440456  
     209A      2.459575   210A      2.477609   211A      2.523798  
     212A      2.548861   213A      2.593606   214A      2.625074  
     215A      2.679426   216A      2.803100   217A      2.843698  
     218A      2.897167   219A      2.906429   220A      2.957542  
     221A      2.974555   222A      2.998550   223A      3.031613  
     224A      3.059782   225A      3.101588   226A      3.143359  
     227A      3.143566   228A      3.159532   229A      3.177742  
     230A      3.190788   231A      3.214032   232A      3.252313  
     233A      3.298194   234A      3.326009   235A      3.343049  
     236A      3.353030   237A      3.364281   238A      3.379704  
     239A      3.394798   240A      3.424783   241A      3.434946  
     242A      3.459439   243A      3.460601   244A      3.483705  
     245A      3.494342   246A      3.501270   247A      3.529504  
     248A      3.534038   249A      3.547200   250A      3.569401  
     251A      3.579325   252A      3.587768   253A      3.615076  
     254A      3.625707   255A      3.630220   256A      3.635580  
     257A      3.652063   258A      3.667798   259A      3.680975  
     260A      3.693875   261A      3.713706   262A      3.721807  
     263A      3.735779   264A      3.769491   265A      3.773378  
     266A      3.780869   267A      3.785675   268A      3.801951  
     269A      3.825992   270A      3.848491   271A      3.853322  
     272A      3.866434   273A      3.867927   274A      3.878647  
     275A      3.898228   276A      3.909562   277A      3.915627  
     278A      3.927226   279A      3.931044   280A      3.968460  
     281A      3.988053   282A      4.008416   283A      4.041933  
     284A      4.055551   285A      4.065755   286A      4.086866  
     287A      4.112685   288A      4.124237   289A      4.136354  
     290A      4.143775   291A      4.158617   292A      4.177121  
     293A      4.219049   294A      4.225405   295A      4.237055  
     296A      4.255935   297A      4.274656   298A      4.289667  
     299A      4.302411   300A      4.310363   301A      4.317628  
     302A      4.319134   303A      4.338300   304A      4.348396  
     305A      4.360021   306A      4.379450   307A      4.401151  
     308A      4.414278   309A      4.426449   310A      4.437818  
     311A      4.448787   312A      4.457026   313A      4.479417  
     314A      4.484214   315A      4.497049   316A      4.512236  
     317A      4.520459   318A      4.537460   319A      4.544026  
     320A      4.555021   321A      4.574637   322A      4.581923  
     323A      4.593736   324A      4.603567   325A      4.625015  
     326A      4.635576   327A      4.650845   328A      4.678576  
     329A      4.688410   330A      4.697410   331A      4.709898  
     332A      4.728773   333A      4.734985   334A      4.755039  
     335A      4.765329   336A      4.775996   337A      4.787869  
     338A      4.808666   339A      4.815778   340A      4.824265  
     341A      4.834850   342A      4.843755   343A      4.854207  
     344A      4.871495   345A      4.877678   346A      4.890747  
     347A      4.915674   348A      4.925763   349A      4.933364  
     350A      4.941279   351A      4.946791   352A      4.974349  
     353A      4.983504   354A      5.001509   355A      5.018140  
     356A      5.021061   357A      5.026361   358A      5.047088  
     359A      5.060138   360A      5.071241   361A      5.076711  
     362A      5.095011   363A      5.099605   364A      5.117828  
     365A      5.144301   366A      5.174416   367A      5.185268  
     368A      5.196123   369A      5.200275   370A      5.228212  
     371A      5.238389   372A      5.244979   373A      5.252231  
     374A      5.296906   375A      5.302129   376A      5.312173  
     377A      5.335836   378A      5.358711   379A      5.362373  
     380A      5.397737   381A      5.410146   382A      5.414550  
     383A      5.439958   384A      5.488230   385A      5.495218  
     386A      5.518155   387A      5.539369   388A      5.546282  
     389A      5.597182   390A      5.604563   391A      5.631014  
     392A      5.649187   393A      5.672011   394A      5.689557  
     395A      5.697179   396A      5.730215   397A      5.754667  
     398A      5.781863   399A      5.793095   400A      5.810561  
     401A      5.832211   402A      5.847386   403A      5.874453  
     404A      5.902904   405A      5.911785   406A      5.934346  
     407A      5.964433   408A      6.020412   409A      6.031365  
     410A      6.047739   411A      6.061424   412A      6.090383  
     413A      6.120278   414A      6.176779   415A      6.193888  
     416A      6.286133   417A      6.316993   418A      6.335762  
     419A      6.375623   420A      6.416558   421A      6.435513  
     422A      6.447065   423A      6.495245   424A      6.522011  
     425A      6.575340   426A      6.593861   427A      6.604614  
     428A      6.623107   429A      6.662291   430A      6.721647  
     431A      6.797621   432A      6.853153   433A      6.961563  
     434A      7.028364   435A      7.160554   436A      7.378922  
     437A      7.589081   438A      7.649055   439A      7.709453  
     440A      7.724541   441A      7.770887   442A      7.840654  
     443A      7.851070   444A      7.887603   445A      7.935841  
     446A      7.978927   447A      8.291055   448A      8.397131  
     449A      8.581038   450A      9.803451   451A     10.071006  
     452A     10.159883   453A     14.568651   454A     15.049161  
     455A     15.242565   456A     45.710193   457A     46.452005  
     458A     46.879331  

    Final Occupation by Irrep:
              A 
    DOCC [    13 ]

  @DF-RHF Final Energy:  -118.30819012404226

   => Energetics <=

    Nuclear Repulsion Energy =             82.8172192790527077
    One-Electron Energy =                -321.9887307932885960
    Two-Electron Energy =                 120.8633213901936188
    Total Energy =                       -118.3081901240422553

Computation Completed


Properties will be evaluated at   0.000000,   0.000000,   0.000000 [a0]

Properties computed using the SCF density matrix

  Nuclear Dipole Moment: [e a0]
     X:   -65.2593      Y:     0.0413      Z:     8.5744

  Electronic Dipole Moment: [e a0]
     X:    65.2674      Y:    -0.0442      Z:    -8.6064

  Dipole Moment: [e a0]
     X:     0.0082      Y:    -0.0029      Z:    -0.0320     Total:     0.0331

  Dipole Moment: [D]
     X:     0.0207      Y:    -0.0074      Z:    -0.0812     Total:     0.0842


*** tstop() called on r282 at Wed Sep 15 07:37:32 2021
Module time:
	user time   =      22.54 seconds =       0.38 minutes
	system time =       0.48 seconds =       0.01 minutes
	total time  =         23 seconds =       0.38 minutes
Total time:
	user time   =      64.68 seconds =       1.08 minutes
	system time =       1.60 seconds =       0.03 minutes
	total time  =         66 seconds =       1.10 minutes

  //>>>>>>>>>>>>>>>>>>>>>>>>>>>>>>>>>>>//
  //            Monomer B HF           //
  //<<<<<<<<<<<<<<<<<<<<<<<<<<<<<<<<<<<//


*** tstart() called on r282
*** at Wed Sep 15 07:37:32 2021

   => Loading Basis Set <=

    Name: JUN-CC-PVTZ
    Role: ORBITAL
    Keyword: BASIS
    atoms 1-3, 12-14  entry C          line   217 file /home/r08543048/miniconda3/share/psi4/basis/jun-cc-pvtz.gbs 
    atoms 4-11, 15-22 entry H          line    36 file /home/r08543048/miniconda3/share/psi4/basis/jun-cc-pvtz.gbs 


         ---------------------------------------------------------
                                   SCF
               by Justin Turney, Rob Parrish, Andy Simmonett
                          and Daniel G. A. Smith
                              RHF Reference
                        1 Threads,  20980 MiB Core
         ---------------------------------------------------------

  ==> Geometry <==

    Molecular point group: c1
    Full point group: C1

    Geometry (in Angstrom), charge = 0, multiplicity = 1:

       Center              X                  Y                   Z               Mass       
    ------------   -----------------  -----------------  -----------------  -----------------
      Gh(C)          -1.496274344928    -1.232841828463     0.511838288726    12.000000000000
      Gh(C)          -1.185296344928    -0.049883828463    -0.396724711274    12.000000000000
      Gh(C)          -1.286251344928     1.279351171537     0.340955288726    12.000000000000
      Gh(H)          -0.806600344928    -1.264160828463     1.356804288726     1.007825032230
      Gh(H)          -2.507461344928    -1.155287828463     0.913976288726     1.007825032230
      Gh(H)          -1.417584344928    -2.180915828463    -0.019728711274     1.007825032230
      Gh(H)          -1.872567344928    -0.050271828463    -1.245323711274     1.007825032230
      Gh(H)          -0.181775344928    -0.162695828463    -0.812106711274     1.007825032230
      Gh(H)          -1.059870344928     2.121677171537    -0.312520711274     1.007825032230
      Gh(H)          -2.291498344928     1.423277171537     0.739824288726     1.007825032230
      Gh(H)          -0.589439344928     1.310471171537     1.180037288726     1.007825032230
         C            1.495972755072    -1.232968648463    -0.511842831274    12.000000000000
         C            1.185436755072    -0.049927648463     0.396764168726    12.000000000000
         C            1.286423755072     1.279262351537    -0.340988831274    12.000000000000
         H            0.806058755072    -1.264238648463    -1.356620831274     1.007825032230
         H            2.507058755072    -1.155577648463    -0.914264831274     1.007825032230
         H            1.417276755072    -2.181005648463     0.019788168726     1.007825032230
         H            1.872924755072    -0.050396648463     1.245187168726     1.007825032230
         H            0.181999755072    -0.162551648463     0.812409168726     1.007825032230
         H            1.060408755072     2.121646351537     0.312539168726     1.007825032230
         H            2.291575755072     1.422991351537    -0.740168831274     1.007825032230
         H            0.589359755072     1.310487351537    -1.179847831274     1.007825032230

  Running in c1 symmetry.

  Rotational constants: A =      0.12875  B =      0.08749  C =      0.06069 [cm^-1]
  Rotational constants: A =   3859.85428  B =   2622.81238  C =   1819.57719 [MHz]
  Nuclear repulsion =   82.817242756398954

  Charge       = 0
  Multiplicity = 1
  Electrons    = 26
  Nalpha       = 13
  Nbeta        = 13

  ==> Algorithm <==

  SCF Algorithm Type is DF.
  DIIS enabled.
  MOM disabled.
  Fractional occupation disabled.
  Guess Type is SAD.
  Energy threshold   = 1.00e-08
  Density threshold  = 1.00e-08
  Integral threshold = 0.00e+00

  ==> Primary Basis <==

  Basis Set: JUN-CC-PVTZ
    Blend: JUN-CC-PVTZ
    Number of shells: 174
    Number of basis function: 458
    Number of Cartesian functions: 510
    Spherical Harmonics?: true
    Max angular momentum: 3

   => Loading Basis Set <=

    Name: (JUN-CC-PVTZ AUX)
    Role: JKFIT
    Keyword: DF_BASIS_SCF
    atoms 1-3, 12-14  entry C          line   152 file /home/r08543048/miniconda3/share/psi4/basis/jun-cc-pvtz-jkfit.gbs 
    atoms 4-11, 15-22 entry H          line    70 file /home/r08543048/miniconda3/share/psi4/basis/jun-cc-pvtz-jkfit.gbs 

  ==> Pre-Iterations <==

   -------------------------------------------------------
    Irrep   Nso     Nmo     Nalpha   Nbeta   Ndocc  Nsocc
   -------------------------------------------------------
     A        458     458       0       0       0       0
   -------------------------------------------------------
    Total     458     458      13      13      13       0
   -------------------------------------------------------

  ==> Integral Setup <==

  ==> DiskDFJK: Density-Fitted J/K Matrices <==

    J tasked:                  Yes
    K tasked:                  Yes
    wK tasked:                  No
    OpenMP threads:              1
    Integrals threads:           1
    Memory [MiB]:            15735
    Algorithm:                Core
    Integral Cache:           LOAD
    Schwarz Cutoff:          1E-12
    Fitting Condition:       1E-10

   => Auxiliary Basis Set <=

  Basis Set: (JUN-CC-PVTZ AUX)
    Blend: JUN-CC-PVTZ-JKFIT
    Number of shells: 334
    Number of basis function: 1050
    Number of Cartesian functions: 1256
    Spherical Harmonics?: true
    Max angular momentum: 4

  Minimum eigenvalue in the overlap matrix is 4.5551912578E-05.
  Using Symmetric Orthogonalization.

  SCF Guess: Superposition of Atomic Densities via on-the-fly atomic UHF.

  ==> Iterations <==

                           Total Energy        Delta E     RMS |[F,P]|

   @DF-RHF iter SAD:  -117.72590114813704   -1.17726e+02   0.00000e+00 
   @DF-RHF iter   1:  -118.14641877089213   -4.20518e-01   1.12550e-03 DIIS
   @DF-RHF iter   2:  -118.27583184735425   -1.29413e-01   5.32598e-04 DIIS
   @DF-RHF iter   3:  -118.30627316621988   -3.04413e-02   8.94947e-05 DIIS
   @DF-RHF iter   4:  -118.30812679659776   -1.85363e-03   1.76731e-05 DIIS
   @DF-RHF iter   5:  -118.30818534682069   -5.85502e-05   4.96992e-06 DIIS
   @DF-RHF iter   6:  -118.30818998197390   -4.63515e-06   8.92583e-07 DIIS
   @DF-RHF iter   7:  -118.30819015403640   -1.72062e-07   1.68389e-07 DIIS
   @DF-RHF iter   8:  -118.30819016158605   -7.54966e-09   2.95500e-08 DIIS
   @DF-RHF iter   9:  -118.30819016182403   -2.37975e-10   5.82824e-09 DIIS
  Energy and wave function converged.


  ==> Post-Iterations <==

    Orbital Energies [Eh]
    ---------------------

    Doubly Occupied:                                                      

       1A    -11.215589     2A    -11.207870     3A    -11.207821  
       4A     -1.054037     5A     -0.924832     6A     -0.799824  
       7A     -0.624738     8A     -0.598258     9A     -0.549390  
      10A     -0.530201    11A     -0.475536    12A     -0.474957  
      13A     -0.467989  

    Virtual:                                                              

      14A      0.035398    15A      0.048322    16A      0.052901  
      17A      0.056659    18A      0.071215    19A      0.075716  
      20A      0.088509    21A      0.091028    22A      0.091916  
      23A      0.115389    24A      0.116229    25A      0.120993  
      26A      0.122144    27A      0.125580    28A      0.130209  
      29A      0.135281    30A      0.150546    31A      0.156994  
      32A      0.159200    33A      0.166669    34A      0.170645  
      35A      0.179562    36A      0.202828    37A      0.207269  
      38A      0.238313    39A      0.252532    40A      0.266854  
      41A      0.269988    42A      0.272740    43A      0.294571  
      44A      0.295344    45A      0.305872    46A      0.310211  
      47A      0.313427    48A      0.320257    49A      0.324216  
      50A      0.332577    51A      0.336424    52A      0.341507  
      53A      0.352372    54A      0.353863    55A      0.363351  
      56A      0.366657    57A      0.380722    58A      0.388764  
      59A      0.398409    60A      0.403895    61A      0.412019  
      62A      0.417699    63A      0.424611    64A      0.437373  
      65A      0.440950    66A      0.453010    67A      0.455965  
      68A      0.463796    69A      0.490341    70A      0.495607  
      71A      0.501935    72A      0.508468    73A      0.516973  
      74A      0.529303    75A      0.537163    76A      0.543167  
      77A      0.552571    78A      0.562205    79A      0.575980  
      80A      0.581687    81A      0.587364    82A      0.598536  
      83A      0.603362    84A      0.612284    85A      0.620489  
      86A      0.622128    87A      0.637502    88A      0.643629  
      89A      0.644477    90A      0.653277    91A      0.669603  
      92A      0.676682    93A      0.686497    94A      0.698393  
      95A      0.706065    96A      0.724760    97A      0.728318  
      98A      0.741991    99A      0.775392   100A      0.779596  
     101A      0.799184   102A      0.806275   103A      0.814967  
     104A      0.818003   105A      0.834817   106A      0.840939  
     107A      0.852372   108A      0.866616   109A      0.891672  
     110A      0.898334   111A      0.909394   112A      0.917783  
     113A      0.928687   114A      0.961610   115A      0.975700  
     116A      0.979964   117A      1.004141   118A      1.044361  
     119A      1.062348   120A      1.071004   121A      1.102599  
     122A      1.122173   123A      1.134720   124A      1.146242  
     125A      1.154782   126A      1.170379   127A      1.184844  
     128A      1.193463   129A      1.199321   130A      1.217539  
     131A      1.225911   132A      1.228656   133A      1.248823  
     134A      1.258308   135A      1.266818   136A      1.288365  
     137A      1.292521   138A      1.303466   139A      1.322462  
     140A      1.334194   141A      1.345400   142A      1.355451  
     143A      1.370160   144A      1.379844   145A      1.388520  
     146A      1.394858   147A      1.404669   148A      1.409713  
     149A      1.427515   150A      1.441433   151A      1.455736  
     152A      1.469353   153A      1.478781   154A      1.503049  
     155A      1.508800   156A      1.531604   157A      1.539418  
     158A      1.545165   159A      1.552907   160A      1.562635  
     161A      1.568620   162A      1.580748   163A      1.594129  
     164A      1.602055   165A      1.615544   166A      1.621255  
     167A      1.642501   168A      1.656718   169A      1.657432  
     170A      1.684383   171A      1.694452   172A      1.700151  
     173A      1.708553   174A      1.722922   175A      1.732231  
     176A      1.746734   177A      1.758885   178A      1.775813  
     179A      1.800923   180A      1.812921   181A      1.820692  
     182A      1.851823   183A      1.868125   184A      1.880585  
     185A      1.893259   186A      1.898929   187A      1.909423  
     188A      1.927220   189A      1.936490   190A      1.944289  
     191A      1.986291   192A      2.002286   193A      2.007697  
     194A      2.028055   195A      2.052447   196A      2.070434  
     197A      2.093104   198A      2.106637   199A      2.119602  
     200A      2.133659   201A      2.167533   202A      2.224964  
     203A      2.247048   204A      2.306988   205A      2.318270  
     206A      2.336684   207A      2.367236   208A      2.440478  
     209A      2.459485   210A      2.477638   211A      2.523815  
     212A      2.548804   213A      2.593611   214A      2.625068  
     215A      2.679478   216A      2.803049   217A      2.843668  
     218A      2.897130   219A      2.906476   220A      2.957612  
     221A      2.974558   222A      2.998594   223A      3.031634  
     224A      3.059806   225A      3.101570   226A      3.143385  
     227A      3.143573   228A      3.159515   229A      3.177698  
     230A      3.190811   231A      3.214017   232A      3.252338  
     233A      3.298155   234A      3.325977   235A      3.343029  
     236A      3.353045   237A      3.364280   238A      3.379668  
     239A      3.394816   240A      3.424788   241A      3.434936  
     242A      3.459427   243A      3.460638   244A      3.483742  
     245A      3.494360   246A      3.501293   247A      3.529542  
     248A      3.534065   249A      3.547201   250A      3.569470  
     251A      3.579378   252A      3.587756   253A      3.615078  
     254A      3.625742   255A      3.630207   256A      3.635589  
     257A      3.652091   258A      3.667783   259A      3.681028  
     260A      3.693842   261A      3.713694   262A      3.721784  
     263A      3.735780   264A      3.769468   265A      3.773337  
     266A      3.780875   267A      3.785638   268A      3.801936  
     269A      3.826010   270A      3.848448   271A      3.853330  
     272A      3.866426   273A      3.867892   274A      3.878637  
     275A      3.898223   276A      3.909593   277A      3.915595  
     278A      3.927215   279A      3.931010   280A      3.968429  
     281A      3.988051   282A      4.008495   283A      4.041980  
     284A      4.055471   285A      4.065739   286A      4.086887  
     287A      4.112647   288A      4.124238   289A      4.136321  
     290A      4.143789   291A      4.158619   292A      4.177110  
     293A      4.219135   294A      4.225434   295A      4.237027  
     296A      4.255964   297A      4.274634   298A      4.289683  
     299A      4.302386   300A      4.310353   301A      4.317618  
     302A      4.319103   303A      4.338273   304A      4.348406  
     305A      4.360030   306A      4.379452   307A      4.401146  
     308A      4.414288   309A      4.426468   310A      4.437801  
     311A      4.448807   312A      4.456986   313A      4.479489  
     314A      4.484219   315A      4.497067   316A      4.512236  
     317A      4.520497   318A      4.537465   319A      4.544022  
     320A      4.555004   321A      4.574615   322A      4.581926  
     323A      4.593758   324A      4.603590   325A      4.625044  
     326A      4.635549   327A      4.650839   328A      4.678501  
     329A      4.688462   330A      4.697430   331A      4.709913  
     332A      4.728783   333A      4.734961   334A      4.755042  
     335A      4.765304   336A      4.775985   337A      4.787961  
     338A      4.808705   339A      4.815738   340A      4.824235  
     341A      4.834831   342A      4.843755   343A      4.854220  
     344A      4.871511   345A      4.877664   346A      4.890731  
     347A      4.915711   348A      4.925759   349A      4.933379  
     350A      4.941238   351A      4.946786   352A      4.974294  
     353A      4.983501   354A      5.001524   355A      5.018136  
     356A      5.021045   357A      5.026268   358A      5.047092  
     359A      5.060095   360A      5.071247   361A      5.076749  
     362A      5.095015   363A      5.099584   364A      5.117817  
     365A      5.144311   366A      5.174327   367A      5.185323  
     368A      5.196132   369A      5.200327   370A      5.228203  
     371A      5.238357   372A      5.244976   373A      5.252258  
     374A      5.296807   375A      5.302211   376A      5.312081  
     377A      5.335780   378A      5.358721   379A      5.362325  
     380A      5.397779   381A      5.410202   382A      5.414539  
     383A      5.440083   384A      5.488240   385A      5.495306  
     386A      5.518131   387A      5.539373   388A      5.546208  
     389A      5.597206   390A      5.604596   391A      5.631040  
     392A      5.649200   393A      5.671928   394A      5.689541  
     395A      5.697179   396A      5.730277   397A      5.754756  
     398A      5.781860   399A      5.793094   400A      5.810648  
     401A      5.832219   402A      5.847392   403A      5.874418  
     404A      5.902925   405A      5.911810   406A      5.934438  
     407A      5.964392   408A      6.020499   409A      6.031460  
     410A      6.047747   411A      6.061424   412A      6.090286  
     413A      6.120166   414A      6.176875   415A      6.193851  
     416A      6.286148   417A      6.316947   418A      6.335801  
     419A      6.375695   420A      6.416511   421A      6.435462  
     422A      6.446998   423A      6.495239   424A      6.521973  
     425A      6.575262   426A      6.593813   427A      6.604591  
     428A      6.623289   429A      6.662233   430A      6.721660  
     431A      6.797727   432A      6.853002   433A      6.961597  
     434A      7.028108   435A      7.160653   436A      7.378848  
     437A      7.589084   438A      7.649022   439A      7.709442  
     440A      7.724541   441A      7.770895   442A      7.840685  
     443A      7.851094   444A      7.887527   445A      7.935862  
     446A      7.978933   447A      8.291051   448A      8.397202  
     449A      8.581051   450A      9.803453   451A     10.070928  
     452A     10.159918   453A     14.568276   454A     15.049301  
     455A     15.242745   456A     45.710996   457A     46.451803  
     458A     46.878875  

    Final Occupation by Irrep:
              A 
    DOCC [    13 ]

  @DF-RHF Final Energy:  -118.30819016182403

   => Energetics <=

    Nuclear Repulsion Energy =             82.8172427563989544
    One-Electron Energy =                -321.9887786072180234
    Two-Electron Energy =                 120.8633456889950253
    Total Energy =                       -118.3081901618240295

Computation Completed


Properties will be evaluated at   0.000000,   0.000000,   0.000000 [a0]

Properties computed using the SCF density matrix

  Nuclear Dipole Moment: [e a0]
     X:    65.2592      Y:     0.0369      Z:    -8.5744

  Electronic Dipole Moment: [e a0]
     X:   -65.2673      Y:    -0.0398      Z:     8.6064

  Dipole Moment: [e a0]
     X:    -0.0082      Y:    -0.0029      Z:     0.0320     Total:     0.0331

  Dipole Moment: [D]
     X:    -0.0207      Y:    -0.0074      Z:     0.0812     Total:     0.0842


*** tstop() called on r282 at Wed Sep 15 07:37:55 2021
Module time:
	user time   =      22.13 seconds =       0.37 minutes
	system time =       0.49 seconds =       0.01 minutes
	total time  =         23 seconds =       0.38 minutes
Total time:
	user time   =      86.81 seconds =       1.45 minutes
	system time =       2.09 seconds =       0.03 minutes
	total time  =         89 seconds =       1.48 minutes
  Constructing Basis Sets for SAPT...

   => Loading Basis Set <=

    Name: (JUN-CC-PVTZ AUX)
    Role: RIFIT
    Keyword: DF_BASIS_SAPT
    atoms 1-3, 12-14  entry C          line   132 file /home/r08543048/miniconda3/share/psi4/basis/jun-cc-pvtz-ri.gbs 
    atoms 4-11, 15-22 entry H          line    30 file /home/r08543048/miniconda3/share/psi4/basis/jun-cc-pvtz-ri.gbs 


  //>>>>>>>>>>>>>>>>>>>>>>>>>>>>>>>>>>>//
  //               SAPT0               //
  //<<<<<<<<<<<<<<<<<<<<<<<<<<<<<<<<<<<//


*** tstart() called on r282
*** at Wed Sep 15 07:37:55 2021

        SAPT0  
    Ed Hohenstein
     6 June 2009

      Orbital Information
  --------------------------
    NSO        =       458
    NMO        =       458
    NRI        =      1062
    NOCC A     =        13
    NOCC B     =        13
    FOCC A     =         0
    FOCC B     =         0
    NVIR A     =       445
    NVIR B     =       445

    Elst10,r            =    -0.061661741467 [Eh]
    Exch10              =     0.181237287701 [Eh]
    Exch10 (S^2)        =     0.171173873974 [Eh]

    Iter     Energy [mEh]          dE [mEh]         Residual      Time [s]
       1     -23.65376624      23.653766238      27.082535449             0
       2     -29.54322475       5.889458510       8.516725689             1
       3     -30.05803670       0.514811953       2.179118370             2
       4     -29.91551607      -0.142520628       0.544935493             3
       5     -29.90815661      -0.007359459       0.109733920             3
       6     -29.91421626       0.006059643       0.018877511             4
       7     -29.91383989      -0.000376363       0.004342573             5
       8     -29.91377135      -0.000068541       0.001224473             6
       9     -29.91378430       0.000012951       0.000273634             6
      10     -29.91378907       0.000004762       0.000065678             7
      11     -29.91378828      -0.000000792       0.000014827             8
      12     -29.91378812      -0.000000160       0.000003816             9
      13     -29.91378814       0.000000024       0.000000857             9

    CHF Iterations converged


    Iter     Energy [mEh]          dE [mEh]         Residual      Time [s]
       1     -23.64148800      23.641488002      27.071882146             1
       2     -29.52694070       5.885452696       8.510151867             2
       3     -30.04098413       0.514043427       2.177756297             3
       4     -29.89864607      -0.142338056       0.544832592             3
       5     -29.89127202      -0.007374052       0.109706425             4
       6     -29.89732996       0.006057944       0.018869608             5
       7     -29.89695376      -0.000376197       0.004338173             6
       8     -29.89688536      -0.000068402       0.001223462             6
       9     -29.89689830       0.000012934       0.000273538             7
      10     -29.89690306       0.000004761       0.000065649             8
      11     -29.89690227      -0.000000791       0.000014809             9
      12     -29.89690211      -0.000000159       0.000003811             9
      13     -29.89690213       0.000000024       0.000000856            10

    CHF Iterations converged

    Ind20,r (A<-B)      =    -0.029913788139 [Eh]
    Ind20,r (B<-A)      =    -0.029896902130 [Eh]
    Ind20,r             =    -0.059810690269 [Eh]
    Exch-Ind20,r (A<-B) =     0.023844532392 [Eh]
    Exch-Ind20,r (B<-A) =     0.023829280045 [Eh]
    Exch-Ind20,r        =     0.047673812437 [Eh]
    Disp20              =    -0.058780907061 [Eh]
    Disp20 (SS)         =    -0.029390453530 [Eh]
    Disp20 (OS)         =    -0.029390453530 [Eh]
    Exch-Disp20         =     0.011620209383 [Eh]
    Exch-Disp20 (SS)    =     0.007460129943 [Eh]
    Exch-Disp20 (OS)    =     0.004160079440 [Eh]

    SAPT Results 
  --------------------------------------------------------------------------------------------------------
    Electrostatics                -61.66174147 [mEh]     -38.69332694 [kcal/mol]    -161.89287992 [kJ/mol]
      Elst10,r                    -61.66174147 [mEh]     -38.69332694 [kcal/mol]    -161.89287992 [kJ/mol]

    Exchange                      181.23728770 [mEh]     113.72811503 [kcal/mol]     475.83843330 [kJ/mol]
      Exch10                      181.23728770 [mEh]     113.72811503 [kcal/mol]     475.83843330 [kJ/mol]
      Exch10(S^2)                 171.17387397 [mEh]     107.41322758 [kcal/mol]     449.41694420 [kJ/mol]

    Induction                     -13.99690036 [mEh]      -8.78318758 [kcal/mol]     -36.74885683 [kJ/mol]
      Ind20,r                     -59.81069027 [mEh]     -37.53177478 [kcal/mol]    -157.03294567 [kJ/mol]
      Exch-Ind20,r                 47.67381244 [mEh]      29.91576896 [kcal/mol]     125.16757731 [kJ/mol]
      delta HF,r (2)               -1.86002253 [mEh]      -1.16718176 [kcal/mol]      -4.88348847 [kJ/mol]

    Dispersion                    -47.16069768 [mEh]     -29.59378458 [kcal/mol]    -123.82039470 [kJ/mol]
      Disp20                      -58.78090706 [mEh]     -36.88557606 [kcal/mol]    -154.32925023 [kJ/mol]
      Exch-Disp20                  11.62020938 [mEh]       7.29179147 [kcal/mol]      30.50885553 [kJ/mol]
      Disp20 (SS)                 -29.39045353 [mEh]     -18.44278803 [kcal/mol]     -77.16462511 [kJ/mol]
      Disp20 (OS)                 -29.39045353 [mEh]     -18.44278803 [kcal/mol]     -77.16462511 [kJ/mol]
      Exch-Disp20 (SS)              7.46012994 [mEh]       4.68130221 [kcal/mol]      19.58656847 [kJ/mol]
      Exch-Disp20 (OS)              4.16007944 [mEh]       2.61048926 [kcal/mol]      10.92228707 [kJ/mol]

  Total HF                        105.57864587 [mEh]      66.25160051 [kcal/mol]     277.19669655 [kJ/mol]
  Total SAPT0                      58.41794820 [mEh]      36.65781593 [kcal/mol]     153.37630186 [kJ/mol]

  Special recipe for scaled SAPT0 (see Manual):
    Electrostatics sSAPT0         -61.66174147 [mEh]     -38.69332694 [kcal/mol]    -161.89287992 [kJ/mol]
    Exchange sSAPT0               181.23728770 [mEh]     113.72811503 [kcal/mol]     475.83843330 [kJ/mol]
    Induction sSAPT0               -5.08456794 [mEh]      -3.19061455 [kcal/mol]     -13.34953130 [kJ/mol]
    Dispersion sSAPT0             -44.98836944 [mEh]     -28.23062804 [kcal/mol]    -118.11694770 [kJ/mol]
  Total sSAPT0                     69.50260885 [mEh]      43.61354550 [kcal/mol]     182.47907438 [kJ/mol]
  --------------------------------------------------------------------------------------------------------

*** tstop() called on r282 at Wed Sep 15 07:39:19 2021
Module time:
	user time   =      69.03 seconds =       1.15 minutes
	system time =      13.59 seconds =       0.23 minutes
	total time  =         84 seconds =       1.40 minutes
Total time:
	user time   =     155.98 seconds =       2.60 minutes
	system time =      15.68 seconds =       0.26 minutes
	total time  =        173 seconds =       2.88 minutes

    Psi4 stopped on: Wednesday, 15 September 2021 07:39AM
    Psi4 wall time for execution: 0:02:53.63

*** Psi4 exiting successfully. Buy a developer a beer!
