
    -----------------------------------------------------------------------
          Psi4: An Open-Source Ab Initio Electronic Structure Package
                               Psi4 1.3.2 release

                         Git: Rev {HEAD} ecbda83 


    R. M. Parrish, L. A. Burns, D. G. A. Smith, A. C. Simmonett,
    A. E. DePrince III, E. G. Hohenstein, U. Bozkaya, A. Yu. Sokolov,
    R. Di Remigio, R. M. Richard, J. F. Gonthier, A. M. James,
    H. R. McAlexander, A. Kumar, M. Saitow, X. Wang, B. P. Pritchard,
    P. Verma, H. F. Schaefer III, K. Patkowski, R. A. King, E. F. Valeev,
    F. A. Evangelista, J. M. Turney, T. D. Crawford, and C. D. Sherrill,
    J. Chem. Theory Comput. 13(7) pp 3185--3197 (2017).
    (doi: 10.1021/acs.jctc.7b00174)


                         Additional Contributions by
    P. Kraus, H. Kruse, M. H. Lechner, M. C. Schieber, R. A. Shaw,
    A. Alenaizan, R. Galvelis, Z. L. Glick, S. Lehtola, and J. P. Misiewicz

    -----------------------------------------------------------------------


    Psi4 started on: Wednesday, 15 September 2021 07:06AM

    Process ID: 3776
    Host:       r282
    PSIDATADIR: /home/r08543048/miniconda3/share/psi4
    Memory:     500.0 MiB
    Threads:    1
    
  ==> Input File <==

--------------------------------------------------------------------------
# Any line starting with the # character is a comment line
#! Sample  computation

memory 22 gb

molecule Dimer {

0 1
 C                 -1.90964691    1.94190005   -0.37977156
 C                 -2.80690391    1.09220905    0.12726944
 C                 -2.91888991   -0.34687495   -0.26288456
 H                 -1.87512891    2.97594305   -0.06570056
 H                 -1.19034191    1.61397405   -1.11965156
 H                 -3.50814191    1.45615805    0.87144544
 H                 -3.90665191   -0.56220295   -0.67352856
 H                 -2.16830391   -0.60779295   -1.00757756
 H                 -2.78526391   -0.99825595    0.60278944
--
0 1
 C                  1.90981091   -1.94191705    0.38029856
 C                  2.80646491   -1.09213405   -0.12765444
 C                  2.91908391    0.34683295    0.26272756
 H                  1.87481491   -2.97585505    0.06593756
 H                  1.19149891   -1.61419705    1.12123356
 H                  3.50669291   -1.45592605   -0.87286144
 H                  2.78433691    0.99846195   -0.60259044
 H                  2.16954891    0.60763195    1.00852256
 H                  3.90742791    0.56196495    0.67207356

units angstrom
no_reorient
symmetry c1
}

set globals{
  basis jun-cc-pvtz
}

energy('sapt0')
--------------------------------------------------------------------------

  Memory set to  20.489 GiB by Python driver.

  //>>>>>>>>>>>>>>>>>>>>>>>>>>>>>>>>>>>//
  //              Dimer HF             //
  //<<<<<<<<<<<<<<<<<<<<<<<<<<<<<<<<<<<//


*** tstart() called on r282
*** at Wed Sep 15 07:06:45 2021

   => Loading Basis Set <=

    Name: JUN-CC-PVTZ
    Role: ORBITAL
    Keyword: BASIS
    atoms 1-3, 10-12 entry C          line   217 file /home/r08543048/miniconda3/share/psi4/basis/jun-cc-pvtz.gbs 
    atoms 4-9, 13-18 entry H          line    36 file /home/r08543048/miniconda3/share/psi4/basis/jun-cc-pvtz.gbs 


         ---------------------------------------------------------
                                   SCF
               by Justin Turney, Rob Parrish, Andy Simmonett
                          and Daniel G. A. Smith
                              RHF Reference
                        1 Threads,  20980 MiB Core
         ---------------------------------------------------------

  ==> Geometry <==

    Molecular point group: c1
    Full point group: C1

    Geometry (in Angstrom), charge = 0, multiplicity = 1:

       Center              X                  Y                   Z               Mass       
    ------------   -----------------  -----------------  -----------------  -----------------
         C           -1.909641199938     1.941898917352    -0.379770522111    12.000000000000
         C           -2.806898199938     1.092207917352     0.127270477889    12.000000000000
         C           -2.918884199938    -0.346876082648    -0.262883522111    12.000000000000
         H           -1.875123199938     2.975941917352    -0.065699522111     1.007825032230
         H           -1.190336199938     1.613972917352    -1.119650522111     1.007825032230
         H           -3.508136199938     1.456156917352     0.871446477889     1.007825032230
         H           -3.906646199938    -0.562204082648    -0.673527522111     1.007825032230
         H           -2.168298199938    -0.607794082648    -1.007576522111     1.007825032230
         H           -2.785258199938    -0.998257082648     0.602790477889     1.007825032230
         C            1.909816620062    -1.941918182648     0.380299597889    12.000000000000
         C            2.806470620062    -1.092135182648    -0.127653402111    12.000000000000
         C            2.919089620062     0.346831817352     0.262728597889    12.000000000000
         H            1.874820620062    -2.975856182648     0.065938597889     1.007825032230
         H            1.191504620062    -1.614198182648     1.121234597889     1.007825032230
         H            3.506698620062    -1.455927182648    -0.872860402111     1.007825032230
         H            2.784342620062     0.998460817352    -0.602589402111     1.007825032230
         H            2.169554620062     0.607630817352     1.008523597889     1.007825032230
         H            3.907433620062     0.561963817352     0.672074597889     1.007825032230

  Running in c1 symmetry.

  Rotational constants: A =      0.14590  B =      0.02660  C =      0.02321 [cm^-1]
  Rotational constants: A =   4374.10607  B =    797.57280  C =    695.77692 [MHz]
  Nuclear repulsion =  196.120071710332468

  Charge       = 0
  Multiplicity = 1
  Electrons    = 48
  Nalpha       = 24
  Nbeta        = 24

  ==> Algorithm <==

  SCF Algorithm Type is DF.
  DIIS enabled.
  MOM disabled.
  Fractional occupation disabled.
  Guess Type is SAD.
  Energy threshold   = 1.00e-08
  Density threshold  = 1.00e-08
  Integral threshold = 0.00e+00

  ==> Primary Basis <==

  Basis Set: JUN-CC-PVTZ
    Blend: JUN-CC-PVTZ
    Number of shells: 150
    Number of basis function: 402
    Number of Cartesian functions: 450
    Spherical Harmonics?: true
    Max angular momentum: 3

   => Loading Basis Set <=

    Name: (JUN-CC-PVTZ AUX)
    Role: JKFIT
    Keyword: DF_BASIS_SCF
    atoms 1-3, 10-12 entry C          line   152 file /home/r08543048/miniconda3/share/psi4/basis/jun-cc-pvtz-jkfit.gbs 
    atoms 4-9, 13-18 entry H          line    70 file /home/r08543048/miniconda3/share/psi4/basis/jun-cc-pvtz-jkfit.gbs 

  ==> Pre-Iterations <==

   -------------------------------------------------------
    Irrep   Nso     Nmo     Nalpha   Nbeta   Ndocc  Nsocc
   -------------------------------------------------------
     A        402     402       0       0       0       0
   -------------------------------------------------------
    Total     402     402      24      24      24       0
   -------------------------------------------------------

  ==> Integral Setup <==

  ==> DiskDFJK: Density-Fitted J/K Matrices <==

    J tasked:                  Yes
    K tasked:                  Yes
    wK tasked:                  No
    OpenMP threads:              1
    Integrals threads:           1
    Memory [MiB]:            15735
    Algorithm:                Core
    Integral Cache:           SAVE
    Schwarz Cutoff:          1E-12
    Fitting Condition:       1E-10

   => Auxiliary Basis Set <=

  Basis Set: (JUN-CC-PVTZ AUX)
    Blend: JUN-CC-PVTZ-JKFIT
    Number of shells: 294
    Number of basis function: 930
    Number of Cartesian functions: 1116
    Spherical Harmonics?: true
    Max angular momentum: 4

  Minimum eigenvalue in the overlap matrix is 4.0631387612E-05.
  Using Symmetric Orthogonalization.

  SCF Guess: Superposition of Atomic Densities via on-the-fly atomic UHF.

  ==> Iterations <==

                           Total Energy        Delta E     RMS |[F,P]|

   @DF-RHF iter SAD:  -232.67003559680668   -2.32670e+02   0.00000e+00 
   @DF-RHF iter   1:  -233.97564721077293   -1.30561e+00   1.61299e-03 DIIS
   @DF-RHF iter   2:  -234.19066536147488   -2.15018e-01   6.94300e-04 DIIS
   @DF-RHF iter   3:  -234.23106170400371   -4.03963e-02   1.24594e-04 DIIS
   @DF-RHF iter   4:  -234.23366107357822   -2.59937e-03   3.68262e-05 DIIS
   @DF-RHF iter   5:  -234.23380549270308   -1.44419e-04   1.01164e-05 DIIS
   @DF-RHF iter   6:  -234.23381786068808   -1.23680e-05   1.84575e-06 DIIS
   @DF-RHF iter   7:  -234.23381850634334   -6.45655e-07   6.75453e-07 DIIS
   @DF-RHF iter   8:  -234.23381859259160   -8.62483e-08   2.38369e-07 DIIS
   @DF-RHF iter   9:  -234.23381860519919   -1.26076e-08   8.87617e-08 DIIS
   @DF-RHF iter  10:  -234.23381860733477   -2.13558e-09   2.02557e-08 DIIS
   @DF-RHF iter  11:  -234.23381860743581   -1.01039e-10   4.10835e-09 DIIS
  Energy and wave function converged.


  ==> Post-Iterations <==

    Orbital Energies [Eh]
    ---------------------

    Doubly Occupied:                                                      

       1A    -11.233837     2A    -11.233833     3A    -11.219662  
       4A    -11.219656     5A    -11.216937     6A    -11.216933  
       7A     -1.064256     8A     -1.064154     9A     -0.932024  
      10A     -0.931865    11A     -0.757601    12A     -0.757215  
      13A     -0.639442    14A     -0.639359    15A     -0.582057  
      16A     -0.581518    17A     -0.567533    18A     -0.567241  
      19A     -0.522425    20A     -0.522361    21A     -0.492645  
      22A     -0.492115    23A     -0.357584    24A     -0.357337  

    Virtual:                                                              

      25A      0.051563    26A      0.055282    27A      0.059343  
      28A      0.067029    29A      0.068519    30A      0.069425  
      31A      0.092697    32A      0.095540    33A      0.099057  
      34A      0.101127    35A      0.107547    36A      0.113883  
      37A      0.118209    38A      0.121556    39A      0.126136  
      40A      0.139489    41A      0.142732    42A      0.148521  
      43A      0.157241    44A      0.168541    45A      0.182100  
      46A      0.192601    47A      0.197214    48A      0.198188  
      49A      0.204490    50A      0.218561    51A      0.246067  
      52A      0.248300    53A      0.254462    54A      0.262828  
      55A      0.277542    56A      0.280805    57A      0.285330  
      58A      0.297292    59A      0.305476    60A      0.313558  
      61A      0.329253    62A      0.334107    63A      0.338525  
      64A      0.340236    65A      0.348456    66A      0.350501  
      67A      0.352909    68A      0.355663    69A      0.371621  
      70A      0.371793    71A      0.376091    72A      0.379126  
      73A      0.386791    74A      0.395298    75A      0.408066  
      76A      0.409505    77A      0.409870    78A      0.413830  
      79A      0.437853    80A      0.442871    81A      0.453968  
      82A      0.459578    83A      0.466966    84A      0.468087  
      85A      0.488109    86A      0.490504    87A      0.505000  
      88A      0.511829    89A      0.526986    90A      0.535023  
      91A      0.537842    92A      0.538752    93A      0.542677  
      94A      0.561819    95A      0.591073    96A      0.598512  
      97A      0.677609    98A      0.683394    99A      0.686056  
     100A      0.691566   101A      0.694462   102A      0.697118  
     103A      0.718022   104A      0.718147   105A      0.728014  
     106A      0.739884   107A      0.742499   108A      0.754851  
     109A      0.758119   110A      0.773685   111A      0.777448  
     112A      0.782403   113A      0.804514   114A      0.805900  
     115A      0.836495   116A      0.841762   117A      0.842759  
     118A      0.845099   119A      0.856363   120A      0.860363  
     121A      0.868719   122A      0.874010   123A      0.884968  
     124A      0.898626   125A      0.938683   126A      0.942334  
     127A      0.946868   128A      0.964493   129A      0.985350  
     130A      0.988477   131A      1.020684   132A      1.039205  
     133A      1.052828   134A      1.066588   135A      1.080140  
     136A      1.095818   137A      1.105486   138A      1.113335  
     139A      1.113608   140A      1.124420   141A      1.134169  
     142A      1.144917   143A      1.147486   144A      1.147769  
     145A      1.178705   146A      1.186690   147A      1.218856  
     148A      1.222963   149A      1.264895   150A      1.269446  
     151A      1.278046   152A      1.284033   153A      1.336042  
     154A      1.342919   155A      1.343788   156A      1.358710  
     157A      1.362107   158A      1.379500   159A      1.398015  
     160A      1.400046   161A      1.410174   162A      1.426159  
     163A      1.429046   164A      1.449733   165A      1.476066  
     166A      1.478178   167A      1.505114   168A      1.508093  
     169A      1.515064   170A      1.520572   171A      1.558822  
     172A      1.562955   173A      1.599585   174A      1.608730  
     175A      1.615768   176A      1.618030   177A      1.629055  
     178A      1.632198   179A      1.643207   180A      1.650184  
     181A      1.722339   182A      1.726180   183A      1.726244  
     184A      1.729550   185A      1.778052   186A      1.780379  
     187A      1.828415   188A      1.843856   189A      1.871637  
     190A      1.874813   191A      1.888917   192A      1.895892  
     193A      2.006600   194A      2.022347   195A      2.048262  
     196A      2.053060   197A      2.193968   198A      2.200682  
     199A      2.565274   200A      2.589317   201A      2.675604  
     202A      2.688509   203A      2.726529   204A      2.727889  
     205A      2.759464   206A      2.763593   207A      2.765503  
     208A      2.771703   209A      2.796370   210A      2.804520  
     211A      2.830666   212A      2.835065   213A      2.848023  
     214A      2.854377   215A      2.895332   216A      2.902624  
     217A      2.924716   218A      2.953359   219A      2.992211  
     220A      2.992568   221A      3.037141   222A      3.039659  
     223A      3.047003   224A      3.052647   225A      3.067788  
     226A      3.073972   227A      3.076642   228A      3.081013  
     229A      3.142611   230A      3.145882   231A      3.164296  
     232A      3.166440   233A      3.170346   234A      3.177944  
     235A      3.182037   236A      3.200243   237A      3.221234  
     238A      3.234087   239A      3.247470   240A      3.248488  
     241A      3.283398   242A      3.283593   243A      3.295049  
     244A      3.305281   245A      3.316452   246A      3.322077  
     247A      3.322307   248A      3.329343   249A      3.365364  
     250A      3.379252   251A      3.380864   252A      3.380927  
     253A      3.423207   254A      3.424236   255A      3.427868  
     256A      3.439320   257A      3.481652   258A      3.485051  
     259A      3.490094   260A      3.497982   261A      3.499037  
     262A      3.500342   263A      3.507004   264A      3.511131  
     265A      3.579216   266A      3.581405   267A      3.583793  
     268A      3.584685   269A      3.632338   270A      3.638932  
     271A      3.655073   272A      3.657862   273A      3.660529  
     274A      3.661020   275A      3.726101   276A      3.731563  
     277A      3.754782   278A      3.755816   279A      3.781070  
     280A      3.785567   281A      3.786698   282A      3.787404  
     283A      3.796437   284A      3.800765   285A      3.840037  
     286A      3.846101   287A      3.894107   288A      3.898188  
     289A      3.960147   290A      3.965443   291A      3.987336  
     292A      3.988823   293A      4.039143   294A      4.042901  
     295A      4.043509   296A      4.048450   297A      4.081802  
     298A      4.083294   299A      4.120885   300A      4.122062  
     301A      4.134521   302A      4.147685   303A      4.197143  
     304A      4.203555   305A      4.233285   306A      4.241717  
     307A      4.278569   308A      4.282191   309A      4.287001  
     310A      4.294834   311A      4.301635   312A      4.320762  
     313A      4.350592   314A      4.361053   315A      4.367760  
     316A      4.372959   317A      4.378067   318A      4.382386  
     319A      4.402905   320A      4.403345   321A      4.427959  
     322A      4.432551   323A      4.434544   324A      4.434785  
     325A      4.496563   326A      4.501307   327A      4.503430  
     328A      4.514638   329A      4.580749   330A      4.590717  
     331A      4.617665   332A      4.619324   333A      4.627493  
     334A      4.629357   335A      4.676694   336A      4.678762  
     337A      4.770398   338A      4.772051   339A      4.796270  
     340A      4.802619   341A      4.825668   342A      4.826790  
     343A      4.891258   344A      4.891306   345A      4.904849  
     346A      4.909276   347A      5.026873   348A      5.030852  
     349A      5.061501   350A      5.062985   351A      5.172178  
     352A      5.174186   353A      5.192510   354A      5.193391  
     355A      5.204947   356A      5.218634   357A      5.294193  
     358A      5.295442   359A      5.315180   360A      5.320246  
     361A      5.354118   362A      5.354950   363A      5.381594  
     364A      5.386657   365A      5.420252   366A      5.421941  
     367A      5.470030   368A      5.470599   369A      5.563781  
     370A      5.565287   371A      5.617971   372A      5.620665  
     373A      5.671501   374A      5.671816   375A      5.679520  
     376A      5.679922   377A      5.748202   378A      5.748530  
     379A      5.778038   380A      5.778138   381A      5.842872  
     382A      5.846273   383A      5.944121   384A      5.953009  
     385A      6.073212   386A      6.074835   387A      6.358898  
     388A      6.364261   389A      6.437018   390A      6.438488  
     391A      6.443717   392A      6.446606   393A      6.506175  
     394A      6.510681   395A      6.697757   396A      6.697937  
     397A     12.051224   398A     12.051333   399A     14.443028  
     400A     14.496867   401A     15.229845   402A     15.251415  

    Final Occupation by Irrep:
              A 
    DOCC [    24 ]

  @DF-RHF Final Energy:  -234.23381860743581

   => Energetics <=

    Nuclear Repulsion Energy =            196.1200717103324678
    One-Electron Energy =                -702.3686049555890349
    Two-Electron Energy =                 272.0147146378207594
    Total Energy =                       -234.2338186074358077

Computation Completed


Properties will be evaluated at   0.000000,   0.000000,   0.000000 [a0]

Properties computed using the SCF density matrix

  Nuclear Dipole Moment: [e a0]
     X:     0.0005      Y:    -0.0001      Z:     0.0001

  Electronic Dipole Moment: [e a0]
     X:    -0.0005      Y:     0.0001      Z:    -0.0002

  Dipole Moment: [e a0]
     X:     0.0000      Y:    -0.0000      Z:    -0.0001     Total:     0.0001

  Dipole Moment: [D]
     X:     0.0000      Y:    -0.0000      Z:    -0.0002     Total:     0.0002


*** tstop() called on r282 at Wed Sep 15 07:07:09 2021
Module time:
	user time   =      23.40 seconds =       0.39 minutes
	system time =       0.67 seconds =       0.01 minutes
	total time  =         24 seconds =       0.40 minutes
Total time:
	user time   =      23.40 seconds =       0.39 minutes
	system time =       0.67 seconds =       0.01 minutes
	total time  =         24 seconds =       0.40 minutes

  //>>>>>>>>>>>>>>>>>>>>>>>>>>>>>>>>>>>//
  //            Monomer A HF           //
  //<<<<<<<<<<<<<<<<<<<<<<<<<<<<<<<<<<<//


*** tstart() called on r282
*** at Wed Sep 15 07:07:09 2021

   => Loading Basis Set <=

    Name: JUN-CC-PVTZ
    Role: ORBITAL
    Keyword: BASIS
    atoms 1-3, 10-12 entry C          line   217 file /home/r08543048/miniconda3/share/psi4/basis/jun-cc-pvtz.gbs 
    atoms 4-9, 13-18 entry H          line    36 file /home/r08543048/miniconda3/share/psi4/basis/jun-cc-pvtz.gbs 


         ---------------------------------------------------------
                                   SCF
               by Justin Turney, Rob Parrish, Andy Simmonett
                          and Daniel G. A. Smith
                              RHF Reference
                        1 Threads,  20980 MiB Core
         ---------------------------------------------------------

  ==> Geometry <==

    Molecular point group: c1
    Full point group: C1

    Geometry (in Angstrom), charge = 0, multiplicity = 1:

       Center              X                  Y                   Z               Mass       
    ------------   -----------------  -----------------  -----------------  -----------------
         C           -1.909641199938     1.941898917352    -0.379770522111    12.000000000000
         C           -2.806898199938     1.092207917352     0.127270477889    12.000000000000
         C           -2.918884199938    -0.346876082648    -0.262883522111    12.000000000000
         H           -1.875123199938     2.975941917352    -0.065699522111     1.007825032230
         H           -1.190336199938     1.613972917352    -1.119650522111     1.007825032230
         H           -3.508136199938     1.456156917352     0.871446477889     1.007825032230
         H           -3.906646199938    -0.562204082648    -0.673527522111     1.007825032230
         H           -2.168298199938    -0.607794082648    -1.007576522111     1.007825032230
         H           -2.785258199938    -0.998257082648     0.602790477889     1.007825032230
      Gh(C)           1.909816620062    -1.941918182648     0.380299597889    12.000000000000
      Gh(C)           2.806470620062    -1.092135182648    -0.127653402111    12.000000000000
      Gh(C)           2.919089620062     0.346831817352     0.262728597889    12.000000000000
      Gh(H)           1.874820620062    -2.975856182648     0.065938597889     1.007825032230
      Gh(H)           1.191504620062    -1.614198182648     1.121234597889     1.007825032230
      Gh(H)           3.506698620062    -1.455927182648    -0.872860402111     1.007825032230
      Gh(H)           2.784342620062     0.998460817352    -0.602589402111     1.007825032230
      Gh(H)           2.169554620062     0.607630817352     1.008523597889     1.007825032230
      Gh(H)           3.907433620062     0.561963817352     0.672074597889     1.007825032230

  Running in c1 symmetry.

  Rotational constants: A =      0.14590  B =      0.02660  C =      0.02321 [cm^-1]
  Rotational constants: A =   4374.10607  B =    797.57280  C =    695.77692 [MHz]
  Nuclear repulsion =   70.871491972997745

  Charge       = 0
  Multiplicity = 1
  Electrons    = 24
  Nalpha       = 12
  Nbeta        = 12

  ==> Algorithm <==

  SCF Algorithm Type is DF.
  DIIS enabled.
  MOM disabled.
  Fractional occupation disabled.
  Guess Type is SAD.
  Energy threshold   = 1.00e-08
  Density threshold  = 1.00e-08
  Integral threshold = 0.00e+00

  ==> Primary Basis <==

  Basis Set: JUN-CC-PVTZ
    Blend: JUN-CC-PVTZ
    Number of shells: 150
    Number of basis function: 402
    Number of Cartesian functions: 450
    Spherical Harmonics?: true
    Max angular momentum: 3

   => Loading Basis Set <=

    Name: (JUN-CC-PVTZ AUX)
    Role: JKFIT
    Keyword: DF_BASIS_SCF
    atoms 1-3, 10-12 entry C          line   152 file /home/r08543048/miniconda3/share/psi4/basis/jun-cc-pvtz-jkfit.gbs 
    atoms 4-9, 13-18 entry H          line    70 file /home/r08543048/miniconda3/share/psi4/basis/jun-cc-pvtz-jkfit.gbs 

  ==> Pre-Iterations <==

   -------------------------------------------------------
    Irrep   Nso     Nmo     Nalpha   Nbeta   Ndocc  Nsocc
   -------------------------------------------------------
     A        402     402       0       0       0       0
   -------------------------------------------------------
    Total     402     402      12      12      12       0
   -------------------------------------------------------

  ==> Integral Setup <==

  ==> DiskDFJK: Density-Fitted J/K Matrices <==

    J tasked:                  Yes
    K tasked:                  Yes
    wK tasked:                  No
    OpenMP threads:              1
    Integrals threads:           1
    Memory [MiB]:            15735
    Algorithm:                Core
    Integral Cache:           LOAD
    Schwarz Cutoff:          1E-12
    Fitting Condition:       1E-10

   => Auxiliary Basis Set <=

  Basis Set: (JUN-CC-PVTZ AUX)
    Blend: JUN-CC-PVTZ-JKFIT
    Number of shells: 294
    Number of basis function: 930
    Number of Cartesian functions: 1116
    Spherical Harmonics?: true
    Max angular momentum: 4

  Minimum eigenvalue in the overlap matrix is 4.0631387612E-05.
  Using Symmetric Orthogonalization.

  SCF Guess: Superposition of Atomic Densities via on-the-fly atomic UHF.

  ==> Iterations <==

                           Total Energy        Delta E     RMS |[F,P]|

   @DF-RHF iter SAD:  -116.33324395433662   -1.16333e+02   0.00000e+00 
   @DF-RHF iter   1:  -116.98771031247610   -6.54466e-01   1.14073e-03 DIIS
   @DF-RHF iter   2:  -117.09536889142716   -1.07659e-01   4.89924e-04 DIIS
   @DF-RHF iter   3:  -117.11548039114086   -2.01115e-02   8.80066e-05 DIIS
   @DF-RHF iter   4:  -117.11677438957130   -1.29400e-03   2.64935e-05 DIIS
   @DF-RHF iter   5:  -117.11684825907938   -7.38695e-05   7.12254e-06 DIIS
   @DF-RHF iter   6:  -117.11685446010146   -6.20102e-06   1.28320e-06 DIIS
   @DF-RHF iter   7:  -117.11685476748255   -3.07381e-07   4.70952e-07 DIIS
   @DF-RHF iter   8:  -117.11685480803078   -4.05482e-08   1.63019e-07 DIIS
   @DF-RHF iter   9:  -117.11685481383837   -5.80759e-09   5.93256e-08 DIIS
   @DF-RHF iter  10:  -117.11685481477824   -9.39863e-10   1.34587e-08 DIIS
   @DF-RHF iter  11:  -117.11685481482303   -4.47926e-11   2.37918e-09 DIIS
  Energy and wave function converged.


  ==> Post-Iterations <==

    Orbital Energies [Eh]
    ---------------------

    Doubly Occupied:                                                      

       1A    -11.234393     2A    -11.220818     3A    -11.217535  
       4A     -1.064936     5A     -0.932797     6A     -0.758098  
       7A     -0.640071     8A     -0.582623     9A     -0.568360  
      10A     -0.523409    11A     -0.493158    12A     -0.357997  

    Virtual:                                                              

      13A      0.034509    14A      0.046487    15A      0.056157  
      16A      0.061240    17A      0.065067    18A      0.066712  
      19A      0.086024    20A      0.089730    21A      0.093857  
      22A      0.098425    23A      0.104318    24A      0.111629  
      25A      0.115462    26A      0.121353    27A      0.128289  
      28A      0.132371    29A      0.137043    30A      0.143090  
      31A      0.153126    32A      0.159910    33A      0.163182  
      34A      0.171754    35A      0.187566    36A      0.198407  
      37A      0.208202    38A      0.225826    39A      0.244846  
      40A      0.253560    41A      0.263168    42A      0.269317  
      43A      0.271489    44A      0.284052    45A      0.287627  
      46A      0.295082    47A      0.310409    48A      0.315444  
      49A      0.324743    50A      0.333510    51A      0.336304  
      52A      0.342230    53A      0.343868    54A      0.348085  
      55A      0.353543    56A      0.356683    57A      0.365365  
      58A      0.372031    59A      0.381047    60A      0.384733  
      61A      0.400080    62A      0.402577    63A      0.403641  
      64A      0.410559    65A      0.416986    66A      0.419576  
      67A      0.434491    68A      0.441318    69A      0.447346  
      70A      0.463007    71A      0.465154    72A      0.472723  
      73A      0.490125    74A      0.503025    75A      0.510123  
      76A      0.517042    77A      0.528840    78A      0.534477  
      79A      0.534949    80A      0.543831    81A      0.556123  
      82A      0.566649    83A      0.586865    84A      0.601162  
      85A      0.615033    86A      0.627810    87A      0.642076  
      88A      0.657839    89A      0.684348    90A      0.688047  
      91A      0.694642    92A      0.697120    93A      0.707050  
      94A      0.729500    95A      0.735848    96A      0.738263  
      97A      0.752893    98A      0.769056    99A      0.777799  
     100A      0.804494   101A      0.806893   102A      0.823410  
     103A      0.841149   104A      0.848710   105A      0.858134  
     106A      0.874363   107A      0.878963   108A      0.941413  
     109A      0.953286   110A      0.977024   111A      0.988342  
     112A      1.006244   113A      1.048961   114A      1.056043  
     115A      1.068724   116A      1.075792   117A      1.097587  
     118A      1.106807   119A      1.112091   120A      1.128800  
     121A      1.130855   122A      1.136579   123A      1.141885  
     124A      1.153487   125A      1.157725   126A      1.167926  
     127A      1.207450   128A      1.211406   129A      1.219665  
     130A      1.236161   131A      1.245457   132A      1.252785  
     133A      1.257447   134A      1.270650   135A      1.277527  
     136A      1.288724   137A      1.308228   138A      1.318600  
     139A      1.331558   140A      1.339063   141A      1.341508  
     142A      1.360543   143A      1.364838   144A      1.377996  
     145A      1.394632   146A      1.403954   147A      1.412963  
     148A      1.429099   149A      1.431619   150A      1.447042  
     151A      1.466862   152A      1.475536   153A      1.482710  
     154A      1.499321   155A      1.508438   156A      1.516031  
     157A      1.543138   158A      1.546598   159A      1.559580  
     160A      1.570278   161A      1.598007   162A      1.603458  
     163A      1.612947   164A      1.619349   165A      1.628742  
     166A      1.632006   167A      1.644965   168A      1.657594  
     169A      1.663587   170A      1.723475   171A      1.728342  
     172A      1.748286   173A      1.779591   174A      1.791977  
     175A      1.836293   176A      1.851033   177A      1.877567  
     178A      1.889819   179A      1.964709   180A      1.988775  
     181A      2.014070   182A      2.046471   183A      2.049279  
     184A      2.065514   185A      2.084608   186A      2.197009  
     187A      2.219857   188A      2.222831   189A      2.332300  
     190A      2.349720   191A      2.433796   192A      2.512785  
     193A      2.531016   194A      2.579834   195A      2.667099  
     196A      2.682755   197A      2.727007   198A      2.763895  
     199A      2.767770   200A      2.799300   201A      2.833609  
     202A      2.851485   203A      2.886886   204A      2.898553  
     205A      2.936784   206A      2.992059   207A      3.037397  
     208A      3.048813   209A      3.070295   210A      3.076936  
     211A      3.144528   212A      3.163617   213A      3.174908  
     214A      3.189903   215A      3.226692   216A      3.247268  
     217A      3.283303   218A      3.298445   219A      3.316679  
     220A      3.323700   221A      3.367961   222A      3.379584  
     223A      3.398016   224A      3.421321   225A      3.430403  
     226A      3.432156   227A      3.483852   228A      3.490609  
     229A      3.495042   230A      3.497668   231A      3.508699  
     232A      3.533669   233A      3.542121   234A      3.576407  
     235A      3.580680   236A      3.582884   237A      3.621431  
     238A      3.628702   239A      3.638093   240A      3.654630  
     241A      3.659831   242A      3.678062   243A      3.683802  
     244A      3.695038   245A      3.727826   246A      3.751394  
     247A      3.754782   248A      3.778058   249A      3.782994  
     250A      3.786958   251A      3.795944   252A      3.825272  
     253A      3.840412   254A      3.855756   255A      3.877669  
     256A      3.895183   257A      3.920505   258A      3.959745  
     259A      3.968988   260A      3.988230   261A      3.990022  
     262A      4.032626   263A      4.039017   264A      4.042837  
     265A      4.059488   266A      4.062748   267A      4.081185  
     268A      4.090748   269A      4.116974   270A      4.123738  
     271A      4.139090   272A      4.157856   273A      4.172677  
     274A      4.182757   275A      4.199623   276A      4.235208  
     277A      4.250274   278A      4.259560   279A      4.280237  
     280A      4.286348   281A      4.297098   282A      4.310035  
     283A      4.343791   284A      4.359793   285A      4.363016  
     286A      4.376469   287A      4.378666   288A      4.402234  
     289A      4.415596   290A      4.430453   291A      4.432360  
     292A      4.440976   293A      4.448226   294A      4.497288  
     295A      4.498773   296A      4.507497   297A      4.513101  
     298A      4.526925   299A      4.561643   300A      4.579995  
     301A      4.587141   302A      4.599325   303A      4.617530  
     304A      4.626562   305A      4.641954   306A      4.647899  
     307A      4.676651   308A      4.704779   309A      4.710964  
     310A      4.741773   311A      4.750901   312A      4.764506  
     313A      4.770085   314A      4.783232   315A      4.796473  
     316A      4.801177   317A      4.817436   318A      4.825261  
     319A      4.827038   320A      4.877543   321A      4.887081  
     322A      4.890523   323A      4.894745   324A      4.908768  
     325A      4.943839   326A      4.957674   327A      4.986745  
     328A      5.020711   329A      5.026099   330A      5.031463  
     331A      5.060345   332A      5.062011   333A      5.138695  
     334A      5.162013   335A      5.172622   336A      5.192464  
     337A      5.207418   338A      5.219811   339A      5.293984  
     340A      5.302338   341A      5.317984   342A      5.353843  
     343A      5.383304   344A      5.396201   345A      5.420182  
     346A      5.461449   347A      5.469760   348A      5.498533  
     349A      5.528508   350A      5.553308   351A      5.563711  
     352A      5.618339   353A      5.668259   354A      5.673092  
     355A      5.678895   356A      5.747186   357A      5.776687  
     358A      5.788233   359A      5.822639   360A      5.843740  
     361A      5.881350   362A      5.947499   363A      5.985716  
     364A      6.029590   365A      6.073232   366A      6.124529  
     367A      6.133394   368A      6.186853   369A      6.236436  
     370A      6.301426   371A      6.360933   372A      6.366412  
     373A      6.376437   374A      6.437074   375A      6.444187  
     376A      6.507289   377A      6.597325   378A      6.697015  
     379A      6.710044   380A      6.724686   381A      6.834688  
     382A      7.079710   383A      7.373200   384A      7.412710  
     385A      7.521189   386A      7.593315   387A      7.639279  
     388A      7.805946   389A      7.907635   390A      7.976395  
     391A      8.089638   392A      8.283381   393A      8.706926  
     394A      9.339792   395A      9.816156   396A     10.185390  
     397A     12.050802   398A     14.469214   399A     15.239763  
     400A     40.420130   401A     45.612704   402A     46.991101  

    Final Occupation by Irrep:
              A 
    DOCC [    12 ]

  @DF-RHF Final Energy:  -117.11685481482303

   => Energetics <=

    Nuclear Repulsion Energy =             70.8714919729977453
    One-Electron Energy =                -296.7883053237097215
    Two-Electron Energy =                 108.7999585358889476
    Total Energy =                       -117.1168548148230286

Computation Completed


Properties will be evaluated at   0.000000,   0.000000,   0.000000 [a0]

Properties computed using the SCF density matrix

  Nuclear Dipole Moment: [e a0]
     X:  -115.7388      Y:    37.7968      Z:    -8.4745

  Electronic Dipole Moment: [e a0]
     X:   115.6562      Y:   -37.9391      Z:     8.4999

  Dipole Moment: [e a0]
     X:    -0.0826      Y:    -0.1424      Z:     0.0254     Total:     0.1665

  Dipole Moment: [D]
     X:    -0.2100      Y:    -0.3618      Z:     0.0645     Total:     0.4233


*** tstop() called on r282 at Wed Sep 15 07:07:21 2021
Module time:
	user time   =      11.82 seconds =       0.20 minutes
	system time =       0.34 seconds =       0.01 minutes
	total time  =         12 seconds =       0.20 minutes
Total time:
	user time   =      35.22 seconds =       0.59 minutes
	system time =       1.01 seconds =       0.02 minutes
	total time  =         36 seconds =       0.60 minutes

  //>>>>>>>>>>>>>>>>>>>>>>>>>>>>>>>>>>>//
  //            Monomer B HF           //
  //<<<<<<<<<<<<<<<<<<<<<<<<<<<<<<<<<<<//


*** tstart() called on r282
*** at Wed Sep 15 07:07:21 2021

   => Loading Basis Set <=

    Name: JUN-CC-PVTZ
    Role: ORBITAL
    Keyword: BASIS
    atoms 1-3, 10-12 entry C          line   217 file /home/r08543048/miniconda3/share/psi4/basis/jun-cc-pvtz.gbs 
    atoms 4-9, 13-18 entry H          line    36 file /home/r08543048/miniconda3/share/psi4/basis/jun-cc-pvtz.gbs 


         ---------------------------------------------------------
                                   SCF
               by Justin Turney, Rob Parrish, Andy Simmonett
                          and Daniel G. A. Smith
                              RHF Reference
                        1 Threads,  20980 MiB Core
         ---------------------------------------------------------

  ==> Geometry <==

    Molecular point group: c1
    Full point group: C1

    Geometry (in Angstrom), charge = 0, multiplicity = 1:

       Center              X                  Y                   Z               Mass       
    ------------   -----------------  -----------------  -----------------  -----------------
      Gh(C)          -1.909641199938     1.941898917352    -0.379770522111    12.000000000000
      Gh(C)          -2.806898199938     1.092207917352     0.127270477889    12.000000000000
      Gh(C)          -2.918884199938    -0.346876082648    -0.262883522111    12.000000000000
      Gh(H)          -1.875123199938     2.975941917352    -0.065699522111     1.007825032230
      Gh(H)          -1.190336199938     1.613972917352    -1.119650522111     1.007825032230
      Gh(H)          -3.508136199938     1.456156917352     0.871446477889     1.007825032230
      Gh(H)          -3.906646199938    -0.562204082648    -0.673527522111     1.007825032230
      Gh(H)          -2.168298199938    -0.607794082648    -1.007576522111     1.007825032230
      Gh(H)          -2.785258199938    -0.998257082648     0.602790477889     1.007825032230
         C            1.909816620062    -1.941918182648     0.380299597889    12.000000000000
         C            2.806470620062    -1.092135182648    -0.127653402111    12.000000000000
         C            2.919089620062     0.346831817352     0.262728597889    12.000000000000
         H            1.874820620062    -2.975856182648     0.065938597889     1.007825032230
         H            1.191504620062    -1.614198182648     1.121234597889     1.007825032230
         H            3.506698620062    -1.455927182648    -0.872860402111     1.007825032230
         H            2.784342620062     0.998460817352    -0.602589402111     1.007825032230
         H            2.169554620062     0.607630817352     1.008523597889     1.007825032230
         H            3.907433620062     0.561963817352     0.672074597889     1.007825032230

  Running in c1 symmetry.

  Rotational constants: A =      0.14590  B =      0.02660  C =      0.02321 [cm^-1]
  Rotational constants: A =   4374.10607  B =    797.57280  C =    695.77692 [MHz]
  Nuclear repulsion =   70.871383723929810

  Charge       = 0
  Multiplicity = 1
  Electrons    = 24
  Nalpha       = 12
  Nbeta        = 12

  ==> Algorithm <==

  SCF Algorithm Type is DF.
  DIIS enabled.
  MOM disabled.
  Fractional occupation disabled.
  Guess Type is SAD.
  Energy threshold   = 1.00e-08
  Density threshold  = 1.00e-08
  Integral threshold = 0.00e+00

  ==> Primary Basis <==

  Basis Set: JUN-CC-PVTZ
    Blend: JUN-CC-PVTZ
    Number of shells: 150
    Number of basis function: 402
    Number of Cartesian functions: 450
    Spherical Harmonics?: true
    Max angular momentum: 3

   => Loading Basis Set <=

    Name: (JUN-CC-PVTZ AUX)
    Role: JKFIT
    Keyword: DF_BASIS_SCF
    atoms 1-3, 10-12 entry C          line   152 file /home/r08543048/miniconda3/share/psi4/basis/jun-cc-pvtz-jkfit.gbs 
    atoms 4-9, 13-18 entry H          line    70 file /home/r08543048/miniconda3/share/psi4/basis/jun-cc-pvtz-jkfit.gbs 

  ==> Pre-Iterations <==

   -------------------------------------------------------
    Irrep   Nso     Nmo     Nalpha   Nbeta   Ndocc  Nsocc
   -------------------------------------------------------
     A        402     402       0       0       0       0
   -------------------------------------------------------
    Total     402     402      12      12      12       0
   -------------------------------------------------------

  ==> Integral Setup <==

  ==> DiskDFJK: Density-Fitted J/K Matrices <==

    J tasked:                  Yes
    K tasked:                  Yes
    wK tasked:                  No
    OpenMP threads:              1
    Integrals threads:           1
    Memory [MiB]:            15735
    Algorithm:                Core
    Integral Cache:           LOAD
    Schwarz Cutoff:          1E-12
    Fitting Condition:       1E-10

   => Auxiliary Basis Set <=

  Basis Set: (JUN-CC-PVTZ AUX)
    Blend: JUN-CC-PVTZ-JKFIT
    Number of shells: 294
    Number of basis function: 930
    Number of Cartesian functions: 1116
    Spherical Harmonics?: true
    Max angular momentum: 4

  Minimum eigenvalue in the overlap matrix is 4.0631387612E-05.
  Using Symmetric Orthogonalization.

  SCF Guess: Superposition of Atomic Densities via on-the-fly atomic UHF.

  ==> Iterations <==

                           Total Energy        Delta E     RMS |[F,P]|

   @DF-RHF iter SAD:  -116.33323962075065   -1.16333e+02   0.00000e+00 
   @DF-RHF iter   1:  -116.98771031992334   -6.54471e-01   1.14073e-03 DIIS
   @DF-RHF iter   2:  -117.09536903874672   -1.07659e-01   4.89924e-04 DIIS
   @DF-RHF iter   3:  -117.11548057691049   -2.01115e-02   8.80070e-05 DIIS
   @DF-RHF iter   4:  -117.11677458652028   -1.29401e-03   2.64943e-05 DIIS
   @DF-RHF iter   5:  -117.11684845991162   -7.38734e-05   7.12255e-06 DIIS
   @DF-RHF iter   6:  -117.11685466102310   -6.20111e-06   1.28323e-06 DIIS
   @DF-RHF iter   7:  -117.11685496841159   -3.07388e-07   4.70968e-07 DIIS
   @DF-RHF iter   8:  -117.11685500896269   -4.05511e-08   1.63024e-07 DIIS
   @DF-RHF iter   9:  -117.11685501477064   -5.80795e-09   5.93267e-08 DIIS
   @DF-RHF iter  10:  -117.11685501571033   -9.39693e-10   1.34587e-08 DIIS
   @DF-RHF iter  11:  -117.11685501575347   -4.31442e-11   2.37912e-09 DIIS
  Energy and wave function converged.


  ==> Post-Iterations <==

    Orbital Energies [Eh]
    ---------------------

    Doubly Occupied:                                                      

       1A    -11.234393     2A    -11.220819     3A    -11.217535  
       4A     -1.064935     5A     -0.932799     6A     -0.758097  
       7A     -0.640070     8A     -0.582626     9A     -0.568359  
      10A     -0.523409    11A     -0.493157    12A     -0.357997  

    Virtual:                                                              

      13A      0.034514    14A      0.046488    15A      0.056155  
      16A      0.061235    17A      0.065068    18A      0.066715  
      19A      0.086010    20A      0.089732    21A      0.093853  
      22A      0.098439    23A      0.104318    24A      0.111631  
      25A      0.115460    26A      0.121348    27A      0.128301  
      28A      0.132353    29A      0.137048    30A      0.143094  
      31A      0.153117    32A      0.159933    33A      0.163209  
      34A      0.171766    35A      0.187560    36A      0.198402  
      37A      0.208196    38A      0.225811    39A      0.244866  
      40A      0.253536    41A      0.263195    42A      0.269270  
      43A      0.271475    44A      0.284059    45A      0.287627  
      46A      0.295091    47A      0.310423    48A      0.315445  
      49A      0.324761    50A      0.333527    51A      0.336297  
      52A      0.342250    53A      0.343862    54A      0.348076  
      55A      0.353543    56A      0.356681    57A      0.365377  
      58A      0.372031    59A      0.381025    60A      0.384767  
      61A      0.400094    62A      0.402545    63A      0.403646  
      64A      0.410602    65A      0.416926    66A      0.419561  
      67A      0.434506    68A      0.441332    69A      0.447352  
      70A      0.462959    71A      0.465201    72A      0.472734  
      73A      0.490138    74A      0.503044    75A      0.510145  
      76A      0.517048    77A      0.528845    78A      0.534441  
      79A      0.534954    80A      0.543811    81A      0.556107  
      82A      0.566654    83A      0.586870    84A      0.601170  
      85A      0.615034    86A      0.627790    87A      0.642060  
      88A      0.657869    89A      0.684343    90A      0.688053  
      91A      0.694638    92A      0.697128    93A      0.707068  
      94A      0.729497    95A      0.735819    96A      0.738285  
      97A      0.752911    98A      0.769035    99A      0.777812  
     100A      0.804472   101A      0.806901   102A      0.823393  
     103A      0.841153   104A      0.848731   105A      0.858122  
     106A      0.874408   107A      0.878964   108A      0.941405  
     109A      0.953292   110A      0.977017   111A      0.988345  
     112A      1.006287   113A      1.048964   114A      1.056035  
     115A      1.068762   116A      1.075791   117A      1.097580  
     118A      1.106860   119A      1.112111   120A      1.128815  
     121A      1.130841   122A      1.136554   123A      1.141862  
     124A      1.153502   125A      1.157722   126A      1.167884  
     127A      1.207428   128A      1.211379   129A      1.219640  
     130A      1.236178   131A      1.245485   132A      1.252815  
     133A      1.257467   134A      1.270627   135A      1.277499  
     136A      1.288687   137A      1.308269   138A      1.318589  
     139A      1.331561   140A      1.339057   141A      1.341527  
     142A      1.360572   143A      1.364836   144A      1.377991  
     145A      1.394625   146A      1.403939   147A      1.412936  
     148A      1.429087   149A      1.431648   150A      1.447048  
     151A      1.466884   152A      1.475607   153A      1.482712  
     154A      1.499335   155A      1.508458   156A      1.516035  
     157A      1.543142   158A      1.546562   159A      1.559560  
     160A      1.570278   161A      1.598015   162A      1.603445  
     163A      1.612908   164A      1.619329   165A      1.628752  
     166A      1.632037   167A      1.644967   168A      1.657599  
     169A      1.663559   170A      1.723481   171A      1.728343  
     172A      1.748296   173A      1.779588   174A      1.791984  
     175A      1.836309   176A      1.851036   177A      1.877573  
     178A      1.889820   179A      1.964711   180A      1.988785  
     181A      2.014079   182A      2.046479   183A      2.049245  
     184A      2.065493   185A      2.084607   186A      2.197025  
     187A      2.219865   188A      2.222824   189A      2.332309  
     190A      2.349715   191A      2.433810   192A      2.512800  
     193A      2.531027   194A      2.579857   195A      2.667086  
     196A      2.682764   197A      2.727039   198A      2.763904  
     199A      2.767762   200A      2.799315   201A      2.833623  
     202A      2.851498   203A      2.886888   204A      2.898558  
     205A      2.936799   206A      2.992072   207A      3.037393  
     208A      3.048814   209A      3.070302   210A      3.076944  
     211A      3.144517   212A      3.163621   213A      3.174912  
     214A      3.189931   215A      3.226674   216A      3.247273  
     217A      3.283304   218A      3.298434   219A      3.316678  
     220A      3.323698   221A      3.367952   222A      3.379578  
     223A      3.398007   224A      3.421317   225A      3.430392  
     226A      3.432160   227A      3.483843   228A      3.490631  
     229A      3.495040   230A      3.497668   231A      3.508700  
     232A      3.533675   233A      3.542115   234A      3.576398  
     235A      3.580690   236A      3.582892   237A      3.621434  
     238A      3.628699   239A      3.638078   240A      3.654619  
     241A      3.659825   242A      3.678067   243A      3.683779  
     244A      3.695046   245A      3.727829   246A      3.751398  
     247A      3.754786   248A      3.778062   249A      3.783005  
     250A      3.786939   251A      3.795944   252A      3.825279  
     253A      3.840414   254A      3.855768   255A      3.877670  
     256A      3.895176   257A      3.920519   258A      3.959738  
     259A      3.968981   260A      3.988222   261A      3.990033  
     262A      4.032629   263A      4.039021   264A      4.042847  
     265A      4.059492   266A      4.062753   267A      4.081186  
     268A      4.090754   269A      4.116987   270A      4.123734  
     271A      4.139116   272A      4.157850   273A      4.172673  
     274A      4.182762   275A      4.199613   276A      4.235217  
     277A      4.250267   278A      4.259577   279A      4.280249  
     280A      4.286366   281A      4.297095   282A      4.310053  
     283A      4.343797   284A      4.359786   285A      4.363014  
     286A      4.376476   287A      4.378662   288A      4.402230  
     289A      4.415619   290A      4.430448   291A      4.432362  
     292A      4.440966   293A      4.448224   294A      4.497300  
     295A      4.498785   296A      4.507492   297A      4.513103  
     298A      4.526919   299A      4.561650   300A      4.580004  
     301A      4.587155   302A      4.599325   303A      4.617525  
     304A      4.626564   305A      4.641966   306A      4.647922  
     307A      4.676643   308A      4.704784   309A      4.710967  
     310A      4.741758   311A      4.750854   312A      4.764483  
     313A      4.770082   314A      4.783233   315A      4.796482  
     316A      4.801171   317A      4.817441   318A      4.825279  
     319A      4.827031   320A      4.877550   321A      4.887090  
     322A      4.890500   323A      4.894751   324A      4.908770  
     325A      4.943847   326A      4.957670   327A      4.986760  
     328A      5.020709   329A      5.026094   330A      5.031467  
     331A      5.060345   332A      5.062029   333A      5.138695  
     334A      5.162003   335A      5.172612   336A      5.192472  
     337A      5.207413   338A      5.219822   339A      5.293981  
     340A      5.302356   341A      5.317981   342A      5.353839  
     343A      5.383306   344A      5.396204   345A      5.420182  
     346A      5.461453   347A      5.469761   348A      5.498528  
     349A      5.528516   350A      5.553308   351A      5.563698  
     352A      5.618332   353A      5.668262   354A      5.673101  
     355A      5.678897   356A      5.747182   357A      5.776691  
     358A      5.788245   359A      5.822635   360A      5.843732  
     361A      5.881363   362A      5.947474   363A      5.985711  
     364A      6.029600   365A      6.073252   366A      6.124532  
     367A      6.133397   368A      6.186853   369A      6.236472  
     370A      6.301430   371A      6.360955   372A      6.366407  
     373A      6.376446   374A      6.437072   375A      6.444187  
     376A      6.507276   377A      6.597329   378A      6.697029  
     379A      6.710056   380A      6.724674   381A      6.834701  
     382A      7.079727   383A      7.373191   384A      7.412706  
     385A      7.521177   386A      7.593317   387A      7.639273  
     388A      7.805958   389A      7.907662   390A      7.976390  
     391A      8.089674   392A      8.283381   393A      8.706920  
     394A      9.339797   395A      9.816152   396A     10.185396  
     397A     12.050790   398A     14.469203   399A     15.239752  
     400A     40.420169   401A     45.612726   402A     46.991102  

    Final Occupation by Irrep:
              A 
    DOCC [    12 ]

  @DF-RHF Final Energy:  -117.11685501575347

   => Energetics <=

    Nuclear Repulsion Energy =             70.8713837239298101
    One-Electron Energy =                -296.7880851952359080
    Two-Electron Energy =                 108.7998464555526397
    Total Energy =                       -117.1168550157534725

Computation Completed


Properties will be evaluated at   0.000000,   0.000000,   0.000000 [a0]

Properties computed using the SCF density matrix

  Nuclear Dipole Moment: [e a0]
     X:   115.7393      Y:   -37.7969      Z:     8.4746

  Electronic Dipole Moment: [e a0]
     X:  -115.6567      Y:    37.9393      Z:    -8.5000

  Dipole Moment: [e a0]
     X:     0.0826      Y:     0.1424      Z:    -0.0254     Total:     0.1665

  Dipole Moment: [D]
     X:     0.2099      Y:     0.3619      Z:    -0.0647     Total:     0.4233


*** tstop() called on r282 at Wed Sep 15 07:07:33 2021
Module time:
	user time   =      11.83 seconds =       0.20 minutes
	system time =       0.33 seconds =       0.01 minutes
	total time  =         12 seconds =       0.20 minutes
Total time:
	user time   =      47.05 seconds =       0.78 minutes
	system time =       1.34 seconds =       0.02 minutes
	total time  =         48 seconds =       0.80 minutes
  Constructing Basis Sets for SAPT...

   => Loading Basis Set <=

    Name: (JUN-CC-PVTZ AUX)
    Role: RIFIT
    Keyword: DF_BASIS_SAPT
    atoms 1-3, 10-12 entry C          line   132 file /home/r08543048/miniconda3/share/psi4/basis/jun-cc-pvtz-ri.gbs 
    atoms 4-9, 13-18 entry H          line    30 file /home/r08543048/miniconda3/share/psi4/basis/jun-cc-pvtz-ri.gbs 


  //>>>>>>>>>>>>>>>>>>>>>>>>>>>>>>>>>>>//
  //               SAPT0               //
  //<<<<<<<<<<<<<<<<<<<<<<<<<<<<<<<<<<<//


*** tstart() called on r282
*** at Wed Sep 15 07:07:33 2021

        SAPT0  
    Ed Hohenstein
     6 June 2009

      Orbital Information
  --------------------------
    NSO        =       402
    NMO        =       402
    NRI        =       942
    NOCC A     =        12
    NOCC B     =        12
    FOCC A     =         0
    FOCC B     =         0
    NVIR A     =       390
    NVIR B     =       390

    Elst10,r            =    -0.000140180758 [Eh]
    Exch10              =     0.000044100136 [Eh]
    Exch10 (S^2)        =     0.000044099113 [Eh]

    Iter     Energy [mEh]          dE [mEh]         Residual      Time [s]
       1      -0.00713887       0.007138868       0.417866620             1
       2      -0.00832593       0.001187060       0.158819264             1
       3      -0.00857462       0.000248695       0.031979704             2
       4      -0.00854912      -0.000025505       0.014677244             2
       5      -0.00853391      -0.000015208       0.003357058             2
       6      -0.00853573       0.000001818       0.001764261             3
       7      -0.00853720       0.000001474       0.000400115             3
       8      -0.00853680      -0.000000399       0.000082198             4
       9      -0.00853682       0.000000013       0.000020100             4
      10      -0.00853682       0.000000008       0.000005769             5
      11      -0.00853682      -0.000000000       0.000001554             5
      12      -0.00853682      -0.000000001       0.000000374             6

    CHF Iterations converged


    Iter     Energy [mEh]          dE [mEh]         Residual      Time [s]
       1      -0.00713397       0.007133968       0.417458013             0
       2      -0.00832048       0.001186509       0.158666419             1
       3      -0.00856860       0.000248123       0.031988040             1
       4      -0.00854322      -0.000025376       0.014672362             2
       5      -0.00852799      -0.000015238       0.003354659             2
       6      -0.00852979       0.000001806       0.001759972             2
       7      -0.00853126       0.000001472       0.000399630             3
       8      -0.00853087      -0.000000398       0.000082213             3
       9      -0.00853088       0.000000013       0.000020144             4
      10      -0.00853089       0.000000008       0.000005786             4
      11      -0.00853089      -0.000000000       0.000001556             5
      12      -0.00853089      -0.000000001       0.000000375             5

    CHF Iterations converged

    Ind20,r (A<-B)      =    -0.000008536823 [Eh]
    Ind20,r (B<-A)      =    -0.000008530886 [Eh]
    Ind20,r             =    -0.000017067709 [Eh]
    Exch-Ind20,r (A<-B) =     0.000003653555 [Eh]
    Exch-Ind20,r (B<-A) =     0.000003660098 [Eh]
    Exch-Ind20,r        =     0.000007313653 [Eh]
    Disp20              =    -0.000684756220 [Eh]
    Disp20 (SS)         =    -0.000342378110 [Eh]
    Disp20 (OS)         =    -0.000342378110 [Eh]
    Exch-Disp20         =     0.000007944922 [Eh]
    Exch-Disp20 (SS)    =     0.000005638135 [Eh]
    Exch-Disp20 (OS)    =     0.000002306788 [Eh]

    SAPT Results 
  --------------------------------------------------------------------------------------------------------
    Electrostatics                 -0.14018076 [mEh]      -0.08796475 [kcal/mol]      -0.36804453 [kJ/mol]
      Elst10,r                     -0.14018076 [mEh]      -0.08796475 [kcal/mol]      -0.36804453 [kJ/mol]

    Exchange                        0.04410014 [mEh]       0.02767325 [kcal/mol]       0.11578489 [kJ/mol]
      Exch10                        0.04410014 [mEh]       0.02767325 [kcal/mol]       0.11578489 [kJ/mol]
      Exch10(S^2)                   0.04409911 [mEh]       0.02767261 [kcal/mol]       0.11578221 [kJ/mol]

    Induction                      -0.01269624 [mEh]      -0.00796701 [kcal/mol]      -0.03333397 [kJ/mol]
      Ind20,r                      -0.01706771 [mEh]      -0.01071015 [kcal/mol]      -0.04481126 [kJ/mol]
      Exch-Ind20,r                  0.00731365 [mEh]       0.00458939 [kcal/mol]       0.01920199 [kJ/mol]
      delta HF,r (2)               -0.00294218 [mEh]      -0.00184625 [kcal/mol]      -0.00772470 [kJ/mol]

    Dispersion                     -0.67681130 [mEh]      -0.42470550 [kcal/mol]      -1.77696782 [kJ/mol]
      Disp20                       -0.68475622 [mEh]      -0.42969102 [kcal/mol]      -1.79782721 [kJ/mol]
      Exch-Disp20                   0.00794492 [mEh]       0.00498551 [kcal/mol]       0.02085939 [kJ/mol]
      Disp20 (SS)                  -0.34237811 [mEh]      -0.21484551 [kcal/mol]      -0.89891360 [kJ/mol]
      Disp20 (OS)                  -0.34237811 [mEh]      -0.21484551 [kcal/mol]      -0.89891360 [kJ/mol]
      Exch-Disp20 (SS)              0.00563813 [mEh]       0.00353798 [kcal/mol]       0.01480292 [kJ/mol]
      Exch-Disp20 (OS)              0.00230679 [mEh]       0.00144753 [kcal/mol]       0.00605647 [kJ/mol]

  Total HF                         -0.10877686 [mEh]      -0.06825851 [kcal/mol]      -0.28559360 [kJ/mol]
  Total SAPT0                      -0.78558816 [mEh]      -0.49296401 [kcal/mol]      -2.06256142 [kJ/mol]

  Special recipe for scaled SAPT0 (see Manual):
    Electrostatics sSAPT0          -0.14018076 [mEh]      -0.08796475 [kcal/mol]      -0.36804453 [kJ/mol]
    Exchange sSAPT0                 0.04410014 [mEh]       0.02767325 [kcal/mol]       0.11578489 [kJ/mol]
    Induction sSAPT0               -0.01269573 [mEh]      -0.00796669 [kcal/mol]      -0.03333263 [kJ/mol]
    Dispersion sSAPT0              -0.67681074 [mEh]      -0.42470515 [kcal/mol]      -1.77696636 [kJ/mol]
  Total sSAPT0                     -0.78558709 [mEh]      -0.49296334 [kcal/mol]      -2.06255863 [kJ/mol]
  --------------------------------------------------------------------------------------------------------

*** tstop() called on r282 at Wed Sep 15 07:08:23 2021
Module time:
	user time   =      41.04 seconds =       0.68 minutes
	system time =       7.89 seconds =       0.13 minutes
	total time  =         50 seconds =       0.83 minutes
Total time:
	user time   =      88.20 seconds =       1.47 minutes
	system time =       9.23 seconds =       0.15 minutes
	total time  =         98 seconds =       1.63 minutes

    Psi4 stopped on: Wednesday, 15 September 2021 07:08AM
    Psi4 wall time for execution: 0:01:38.55

*** Psi4 exiting successfully. Buy a developer a beer!
