
    -----------------------------------------------------------------------
          Psi4: An Open-Source Ab Initio Electronic Structure Package
                               Psi4 1.3.2 release

                         Git: Rev {HEAD} ecbda83 


    R. M. Parrish, L. A. Burns, D. G. A. Smith, A. C. Simmonett,
    A. E. DePrince III, E. G. Hohenstein, U. Bozkaya, A. Yu. Sokolov,
    R. Di Remigio, R. M. Richard, J. F. Gonthier, A. M. James,
    H. R. McAlexander, A. Kumar, M. Saitow, X. Wang, B. P. Pritchard,
    P. Verma, H. F. Schaefer III, K. Patkowski, R. A. King, E. F. Valeev,
    F. A. Evangelista, J. M. Turney, T. D. Crawford, and C. D. Sherrill,
    J. Chem. Theory Comput. 13(7) pp 3185--3197 (2017).
    (doi: 10.1021/acs.jctc.7b00174)


                         Additional Contributions by
    P. Kraus, H. Kruse, M. H. Lechner, M. C. Schieber, R. A. Shaw,
    A. Alenaizan, R. Galvelis, Z. L. Glick, S. Lehtola, and J. P. Misiewicz

    -----------------------------------------------------------------------


    Psi4 started on: Wednesday, 15 September 2021 07:08AM

    Process ID: 4211
    Host:       r282
    PSIDATADIR: /home/r08543048/miniconda3/share/psi4
    Memory:     500.0 MiB
    Threads:    1
    
  ==> Input File <==

--------------------------------------------------------------------------
# Any line starting with the # character is a comment line
#! Sample  computation

memory 22 gb

molecule Dimer {

0 1
 C                 -0.86797659    0.88267721   -0.17247972
 C                 -1.76523359    0.03298621    0.33456128
 C                 -1.87721959   -1.40609779   -0.05559272
 H                 -0.83345859    1.91672021    0.14159128
 H                 -0.14867159    0.55475121   -0.91235972
 H                 -2.46647159    0.39693521    1.07873728
 H                 -2.86498159   -1.62142579   -0.46623672
 H                 -1.12663359   -1.66701579   -0.80028572
 H                 -1.74359359   -2.05747879    0.81008128
--
0 1
 C                  0.86814059   -0.88269421    0.17300672
 C                  1.76479459   -0.03291121   -0.33494628
 C                  1.87741359    1.40605579    0.05543572
 H                  0.83314459   -1.91663221   -0.14135428
 H                  0.14982859   -0.55497421    0.91394172
 H                  2.46502259   -0.39670321   -1.08015328
 H                  1.74266659    2.05768479   -0.80988228
 H                  1.12787859    1.66685479    0.80123072
 H                  2.86575759    1.62118779    0.46478172

units angstrom
no_reorient
symmetry c1
}

set globals{
  basis jun-cc-pvtz
}

energy('sapt0')
--------------------------------------------------------------------------

  Memory set to  20.489 GiB by Python driver.

  //>>>>>>>>>>>>>>>>>>>>>>>>>>>>>>>>>>>//
  //              Dimer HF             //
  //<<<<<<<<<<<<<<<<<<<<<<<<<<<<<<<<<<<//


*** tstart() called on r282
*** at Wed Sep 15 07:08:24 2021

   => Loading Basis Set <=

    Name: JUN-CC-PVTZ
    Role: ORBITAL
    Keyword: BASIS
    atoms 1-3, 10-12 entry C          line   217 file /home/r08543048/miniconda3/share/psi4/basis/jun-cc-pvtz.gbs 
    atoms 4-9, 13-18 entry H          line    36 file /home/r08543048/miniconda3/share/psi4/basis/jun-cc-pvtz.gbs 


         ---------------------------------------------------------
                                   SCF
               by Justin Turney, Rob Parrish, Andy Simmonett
                          and Daniel G. A. Smith
                              RHF Reference
                        1 Threads,  20980 MiB Core
         ---------------------------------------------------------

  ==> Geometry <==

    Molecular point group: c1
    Full point group: C1

    Geometry (in Angstrom), charge = 0, multiplicity = 1:

       Center              X                  Y                   Z               Mass       
    ------------   -----------------  -----------------  -----------------  -----------------
         C           -0.867970879938     0.882676077352    -0.172478682111    12.000000000000
         C           -1.765227879938     0.032985077352     0.334562317889    12.000000000000
         C           -1.877213879938    -1.406098922648    -0.055591682111    12.000000000000
         H           -0.833452879938     1.916719077352     0.141592317889     1.007825032230
         H           -0.148665879938     0.554750077352    -0.912358682111     1.007825032230
         H           -2.466465879938     0.396934077352     1.078738317889     1.007825032230
         H           -2.864975879938    -1.621426922648    -0.466235682111     1.007825032230
         H           -1.126627879938    -1.667016922648    -0.800284682111     1.007825032230
         H           -1.743587879938    -2.057479922648     0.810082317889     1.007825032230
         C            0.868146300062    -0.882695342648     0.173007757889    12.000000000000
         C            1.764800300062    -0.032912342648    -0.334945242111    12.000000000000
         C            1.877419300062     1.406054657352     0.055436757889    12.000000000000
         H            0.833150300062    -1.916633342648    -0.141353242111     1.007825032230
         H            0.149834300062    -0.554975342648     0.913942757889     1.007825032230
         H            2.465028300062    -0.396704342648    -1.080152242111     1.007825032230
         H            1.742672300062     2.057683657352    -0.809881242111     1.007825032230
         H            1.127884300062     1.666853657352     0.801231757889     1.007825032230
         H            2.865763300062     1.621186657352     0.464782757889     1.007825032230

  Running in c1 symmetry.

  Rotational constants: A =      0.20940  B =      0.06737  C =      0.05418 [cm^-1]
  Rotational constants: A =   6277.78396  B =   2019.79631  C =   1624.35912 [MHz]
  Nuclear repulsion =  235.635939381513907

  Charge       = 0
  Multiplicity = 1
  Electrons    = 48
  Nalpha       = 24
  Nbeta        = 24

  ==> Algorithm <==

  SCF Algorithm Type is DF.
  DIIS enabled.
  MOM disabled.
  Fractional occupation disabled.
  Guess Type is SAD.
  Energy threshold   = 1.00e-08
  Density threshold  = 1.00e-08
  Integral threshold = 0.00e+00

  ==> Primary Basis <==

  Basis Set: JUN-CC-PVTZ
    Blend: JUN-CC-PVTZ
    Number of shells: 150
    Number of basis function: 402
    Number of Cartesian functions: 450
    Spherical Harmonics?: true
    Max angular momentum: 3

   => Loading Basis Set <=

    Name: (JUN-CC-PVTZ AUX)
    Role: JKFIT
    Keyword: DF_BASIS_SCF
    atoms 1-3, 10-12 entry C          line   152 file /home/r08543048/miniconda3/share/psi4/basis/jun-cc-pvtz-jkfit.gbs 
    atoms 4-9, 13-18 entry H          line    70 file /home/r08543048/miniconda3/share/psi4/basis/jun-cc-pvtz-jkfit.gbs 

  ==> Pre-Iterations <==

   -------------------------------------------------------
    Irrep   Nso     Nmo     Nalpha   Nbeta   Ndocc  Nsocc
   -------------------------------------------------------
     A        402     402       0       0       0       0
   -------------------------------------------------------
    Total     402     402      24      24      24       0
   -------------------------------------------------------

  ==> Integral Setup <==

  ==> DiskDFJK: Density-Fitted J/K Matrices <==

    J tasked:                  Yes
    K tasked:                  Yes
    wK tasked:                  No
    OpenMP threads:              1
    Integrals threads:           1
    Memory [MiB]:            15735
    Algorithm:                Core
    Integral Cache:           SAVE
    Schwarz Cutoff:          1E-12
    Fitting Condition:       1E-10

   => Auxiliary Basis Set <=

  Basis Set: (JUN-CC-PVTZ AUX)
    Blend: JUN-CC-PVTZ-JKFIT
    Number of shells: 294
    Number of basis function: 930
    Number of Cartesian functions: 1116
    Spherical Harmonics?: true
    Max angular momentum: 4

  Minimum eigenvalue in the overlap matrix is 2.7338549227E-05.
  Using Symmetric Orthogonalization.

  SCF Guess: Superposition of Atomic Densities via on-the-fly atomic UHF.

  ==> Iterations <==

                           Total Energy        Delta E     RMS |[F,P]|

   @DF-RHF iter SAD:  -233.49957088683249   -2.33500e+02   0.00000e+00 
   @DF-RHF iter   1:  -233.88845532557860   -3.88884e-01   1.63523e-03 DIIS
   @DF-RHF iter   2:  -234.10886861916330   -2.20413e-01   7.48314e-04 DIIS
   @DF-RHF iter   3:  -234.15608052299859   -4.72119e-02   1.35461e-04 DIIS
   @DF-RHF iter   4:  -234.15919556154913   -3.11504e-03   3.22065e-05 DIIS
   @DF-RHF iter   5:  -234.15933521829177   -1.39657e-04   8.98542e-06 DIIS
   @DF-RHF iter   6:  -234.15934898774276   -1.37695e-05   3.94401e-06 DIIS
   @DF-RHF iter   7:  -234.15935091783439   -1.93009e-06   1.07090e-06 DIIS
   @DF-RHF iter   8:  -234.15935130576963   -3.87935e-07   4.90671e-07 DIIS
   @DF-RHF iter   9:  -234.15935136113890   -5.53693e-08   1.48378e-07 DIIS
   @DF-RHF iter  10:  -234.15935136813283   -6.99393e-09   4.01935e-08 DIIS
   @DF-RHF iter  11:  -234.15935136858224   -4.49404e-10   1.02178e-08 DIIS
   @DF-RHF iter  12:  -234.15935136861594   -3.37081e-11   2.80968e-09 DIIS
  Energy and wave function converged.


  ==> Post-Iterations <==

    Orbital Energies [Eh]
    ---------------------

    Doubly Occupied:                                                      

       1A    -11.221513     2A    -11.221490     3A    -11.216904  
       4A    -11.216878     5A    -11.206391     6A    -11.206312  
       7A     -1.085152     8A     -1.049424     9A     -0.935635  
      10A     -0.929142    11A     -0.771093    12A     -0.745493  
      13A     -0.645956    14A     -0.644807    15A     -0.592140  
      16A     -0.589680    17A     -0.552809    18A     -0.552344  
      19A     -0.531941    20A     -0.508993    21A     -0.500721  
      22A     -0.483353    23A     -0.360995    24A     -0.320689  

    Virtual:                                                              

      25A      0.052463    26A      0.052551    27A      0.057250  
      28A      0.065246    29A      0.071288    30A      0.075101  
      31A      0.091617    32A      0.094876    33A      0.102390  
      34A      0.108854    35A      0.118986    36A      0.124179  
      37A      0.126298    38A      0.134309    39A      0.148883  
      40A      0.154494    41A      0.157611    42A      0.162120  
      43A      0.176763    44A      0.177126    45A      0.179304  
      46A      0.188523    47A      0.203224    48A      0.206989  
      49A      0.210719    50A      0.225631    51A      0.256120  
      52A      0.265472    53A      0.276366    54A      0.292261  
      55A      0.296270    56A      0.304069    57A      0.320194  
      58A      0.323650    59A      0.330729    60A      0.332932  
      61A      0.340548    62A      0.345627    63A      0.357387  
      64A      0.362234    65A      0.367321    66A      0.369693  
      67A      0.372340    68A      0.375419    69A      0.383401  
      70A      0.398240    71A      0.400932    72A      0.415363  
      73A      0.427347    74A      0.431775    75A      0.434673  
      76A      0.459317    77A      0.459971    78A      0.464968  
      79A      0.472896    80A      0.482954    81A      0.501357  
      82A      0.507379    83A      0.510006    84A      0.518113  
      85A      0.531544    86A      0.533961    87A      0.543480  
      88A      0.543843    89A      0.555234    90A      0.567203  
      91A      0.580652    92A      0.594994    93A      0.609343  
      94A      0.614363    95A      0.641720    96A      0.652779  
      97A      0.669406    98A      0.702608    99A      0.707674  
     100A      0.718605   101A      0.726054   102A      0.730725  
     103A      0.754370   104A      0.762198   105A      0.769055  
     106A      0.770297   107A      0.787139   108A      0.802299  
     109A      0.809208   110A      0.816934   111A      0.825910  
     112A      0.827295   113A      0.828177   114A      0.851445  
     115A      0.860828   116A      0.872986   117A      0.880457  
     118A      0.899930   119A      0.907484   120A      0.914209  
     121A      0.931731   122A      0.938973   123A      0.948883  
     124A      0.956598   125A      0.976211   126A      0.982716  
     127A      0.996435   128A      1.014950   129A      1.032847  
     130A      1.043063   131A      1.045349   132A      1.060715  
     133A      1.095366   134A      1.109107   135A      1.130430  
     136A      1.138765   137A      1.149827   138A      1.156731  
     139A      1.181131   140A      1.196115   141A      1.206809  
     142A      1.223818   143A      1.244895   144A      1.263984  
     145A      1.282402   146A      1.306149   147A      1.319500  
     148A      1.330917   149A      1.336454   150A      1.351897  
     151A      1.366760   152A      1.381197   153A      1.416823  
     154A      1.430616   155A      1.441168   156A      1.441415  
     157A      1.454287   158A      1.473338   159A      1.485882  
     160A      1.496338   161A      1.512285   162A      1.532717  
     163A      1.554379   164A      1.558111   165A      1.562759  
     166A      1.576944   167A      1.602414   168A      1.602898  
     169A      1.613775   170A      1.622872   171A      1.655447  
     172A      1.668122   173A      1.690741   174A      1.693964  
     175A      1.703315   176A      1.719270   177A      1.734180  
     178A      1.743726   179A      1.759105   180A      1.770139  
     181A      1.785178   182A      1.789847   183A      1.803552  
     184A      1.823963   185A      1.865210   186A      1.876712  
     187A      1.881505   188A      1.924527   189A      1.934293  
     190A      1.936848   191A      1.976776   192A      2.013617  
     193A      2.077583   194A      2.078213   195A      2.122168  
     196A      2.139742   197A      2.254433   198A      2.260220  
     199A      2.626336   200A      2.704631   201A      2.721595  
     202A      2.751640   203A      2.766531   204A      2.769809  
     205A      2.794980   206A      2.801303   207A      2.816963  
     208A      2.833475   209A      2.882160   210A      2.886654  
     211A      2.901649   212A      2.928069   213A      2.931711  
     214A      2.948385   215A      3.001953   216A      3.014066  
     217A      3.026860   218A      3.036184   219A      3.059000  
     220A      3.062499   221A      3.075036   222A      3.091947  
     223A      3.102155   224A      3.106682   225A      3.117913  
     226A      3.121038   227A      3.150750   228A      3.158380  
     229A      3.183526   230A      3.192079   231A      3.202470  
     232A      3.218369   233A      3.232808   234A      3.247879  
     235A      3.266214   236A      3.274166   237A      3.300929  
     238A      3.302303   239A      3.311236   240A      3.316622  
     241A      3.335305   242A      3.343639   243A      3.376618  
     244A      3.387262   245A      3.406250   246A      3.406835  
     247A      3.422104   248A      3.436825   249A      3.442467  
     250A      3.445372   251A      3.460740   252A      3.465223  
     253A      3.478389   254A      3.489806   255A      3.492960  
     256A      3.511993   257A      3.523257   258A      3.541389  
     259A      3.552438   260A      3.553930   261A      3.597943  
     262A      3.598063   263A      3.624589   264A      3.626626  
     265A      3.654340   266A      3.688393   267A      3.696552  
     268A      3.697075   269A      3.732905   270A      3.735336  
     271A      3.762066   272A      3.768101   273A      3.768121  
     274A      3.771444   275A      3.778584   276A      3.799578  
     277A      3.822067   278A      3.839879   279A      3.853441  
     280A      3.867694   281A      3.894330   282A      3.901337  
     283A      3.905480   284A      3.922349   285A      3.949872  
     286A      3.985337   287A      3.999682   288A      4.028739  
     289A      4.029749   290A      4.055738   291A      4.069502  
     292A      4.083792   293A      4.090499   294A      4.113627  
     295A      4.154950   296A      4.162432   297A      4.165059  
     298A      4.166719   299A      4.225943   300A      4.231715  
     301A      4.244395   302A      4.277405   303A      4.297508  
     304A      4.301705   305A      4.303648   306A      4.316684  
     307A      4.344919   308A      4.364871   309A      4.377852  
     310A      4.388411   311A      4.401820   312A      4.411149  
     313A      4.435548   314A      4.441118   315A      4.449890  
     316A      4.460063   317A      4.495990   318A      4.501141  
     319A      4.517670   320A      4.528929   321A      4.554948  
     322A      4.565797   323A      4.579902   324A      4.598208  
     325A      4.600776   326A      4.639798   327A      4.648910  
     328A      4.688907   329A      4.689505   330A      4.698435  
     331A      4.740846   332A      4.747103   333A      4.766134  
     334A      4.770511   335A      4.776660   336A      4.821808  
     337A      4.823819   338A      4.839240   339A      4.915798  
     340A      4.929139   341A      4.958934   342A      4.974177  
     343A      4.994102   344A      5.031320   345A      5.047825  
     346A      5.064757   347A      5.086476   348A      5.122938  
     349A      5.125326   350A      5.130851   351A      5.209268  
     352A      5.221214   353A      5.247157   354A      5.289701  
     355A      5.297789   356A      5.304969   357A      5.325974  
     358A      5.329195   359A      5.358365   360A      5.383413  
     361A      5.392547   362A      5.421710   363A      5.430552  
     364A      5.498843   365A      5.502018   366A      5.522989  
     367A      5.567950   368A      5.573023   369A      5.582325  
     370A      5.607373   371A      5.656282   372A      5.684511  
     373A      5.697570   374A      5.700645   375A      5.744586  
     376A      5.761093   377A      5.797833   378A      5.806762  
     379A      5.819759   380A      5.834645   381A      5.897571  
     382A      5.902539   383A      6.067685   384A      6.077577  
     385A      6.120438   386A      6.139061   387A      6.466216  
     388A      6.470860   389A      6.487076   390A      6.489301  
     391A      6.531938   392A      6.561676   393A      6.565075  
     394A      6.578731   395A      6.723552   396A      6.734143  
     397A     12.691672   398A     13.039392   399A     14.911202  
     400A     14.925736   401A     15.558396   402A     15.668512  

    Final Occupation by Irrep:
              A 
    DOCC [    24 ]

  @DF-RHF Final Energy:  -234.15935136861594

   => Energetics <=

    Nuclear Repulsion Energy =            235.6359393815139072
    One-Electron Energy =                -781.4108756026300853
    Two-Electron Energy =                 311.6155848525002057
    Total Energy =                       -234.1593513686159440

Computation Completed


Properties will be evaluated at   0.000000,   0.000000,   0.000000 [a0]

Properties computed using the SCF density matrix

  Nuclear Dipole Moment: [e a0]
     X:     0.0005      Y:    -0.0001      Z:     0.0001

  Electronic Dipole Moment: [e a0]
     X:    -0.0002      Y:    -0.0000      Z:    -0.0001

  Dipole Moment: [e a0]
     X:     0.0003      Y:    -0.0001      Z:    -0.0000     Total:     0.0004

  Dipole Moment: [D]
     X:     0.0008      Y:    -0.0003      Z:    -0.0001     Total:     0.0009


*** tstop() called on r282 at Wed Sep 15 07:08:54 2021
Module time:
	user time   =      28.94 seconds =       0.48 minutes
	system time =       0.80 seconds =       0.01 minutes
	total time  =         30 seconds =       0.50 minutes
Total time:
	user time   =      28.94 seconds =       0.48 minutes
	system time =       0.80 seconds =       0.01 minutes
	total time  =         30 seconds =       0.50 minutes

  //>>>>>>>>>>>>>>>>>>>>>>>>>>>>>>>>>>>//
  //            Monomer A HF           //
  //<<<<<<<<<<<<<<<<<<<<<<<<<<<<<<<<<<<//


*** tstart() called on r282
*** at Wed Sep 15 07:08:54 2021

   => Loading Basis Set <=

    Name: JUN-CC-PVTZ
    Role: ORBITAL
    Keyword: BASIS
    atoms 1-3, 10-12 entry C          line   217 file /home/r08543048/miniconda3/share/psi4/basis/jun-cc-pvtz.gbs 
    atoms 4-9, 13-18 entry H          line    36 file /home/r08543048/miniconda3/share/psi4/basis/jun-cc-pvtz.gbs 


         ---------------------------------------------------------
                                   SCF
               by Justin Turney, Rob Parrish, Andy Simmonett
                          and Daniel G. A. Smith
                              RHF Reference
                        1 Threads,  20980 MiB Core
         ---------------------------------------------------------

  ==> Geometry <==

    Molecular point group: c1
    Full point group: C1

    Geometry (in Angstrom), charge = 0, multiplicity = 1:

       Center              X                  Y                   Z               Mass       
    ------------   -----------------  -----------------  -----------------  -----------------
         C           -0.867970879938     0.882676077352    -0.172478682111    12.000000000000
         C           -1.765227879938     0.032985077352     0.334562317889    12.000000000000
         C           -1.877213879938    -1.406098922648    -0.055591682111    12.000000000000
         H           -0.833452879938     1.916719077352     0.141592317889     1.007825032230
         H           -0.148665879938     0.554750077352    -0.912358682111     1.007825032230
         H           -2.466465879938     0.396934077352     1.078738317889     1.007825032230
         H           -2.864975879938    -1.621426922648    -0.466235682111     1.007825032230
         H           -1.126627879938    -1.667016922648    -0.800284682111     1.007825032230
         H           -1.743587879938    -2.057479922648     0.810082317889     1.007825032230
      Gh(C)           0.868146300062    -0.882695342648     0.173007757889    12.000000000000
      Gh(C)           1.764800300062    -0.032912342648    -0.334945242111    12.000000000000
      Gh(C)           1.877419300062     1.406054657352     0.055436757889    12.000000000000
      Gh(H)           0.833150300062    -1.916633342648    -0.141353242111     1.007825032230
      Gh(H)           0.149834300062    -0.554975342648     0.913942757889     1.007825032230
      Gh(H)           2.465028300062    -0.396704342648    -1.080152242111     1.007825032230
      Gh(H)           1.742672300062     2.057683657352    -0.809881242111     1.007825032230
      Gh(H)           1.127884300062     1.666853657352     0.801231757889     1.007825032230
      Gh(H)           2.865763300062     1.621186657352     0.464782757889     1.007825032230

  Running in c1 symmetry.

  Rotational constants: A =      0.20940  B =      0.06737  C =      0.05418 [cm^-1]
  Rotational constants: A =   6277.78396  B =   2019.79631  C =   1624.35912 [MHz]
  Nuclear repulsion =   70.871491972997745

  Charge       = 0
  Multiplicity = 1
  Electrons    = 24
  Nalpha       = 12
  Nbeta        = 12

  ==> Algorithm <==

  SCF Algorithm Type is DF.
  DIIS enabled.
  MOM disabled.
  Fractional occupation disabled.
  Guess Type is SAD.
  Energy threshold   = 1.00e-08
  Density threshold  = 1.00e-08
  Integral threshold = 0.00e+00

  ==> Primary Basis <==

  Basis Set: JUN-CC-PVTZ
    Blend: JUN-CC-PVTZ
    Number of shells: 150
    Number of basis function: 402
    Number of Cartesian functions: 450
    Spherical Harmonics?: true
    Max angular momentum: 3

   => Loading Basis Set <=

    Name: (JUN-CC-PVTZ AUX)
    Role: JKFIT
    Keyword: DF_BASIS_SCF
    atoms 1-3, 10-12 entry C          line   152 file /home/r08543048/miniconda3/share/psi4/basis/jun-cc-pvtz-jkfit.gbs 
    atoms 4-9, 13-18 entry H          line    70 file /home/r08543048/miniconda3/share/psi4/basis/jun-cc-pvtz-jkfit.gbs 

  ==> Pre-Iterations <==

   -------------------------------------------------------
    Irrep   Nso     Nmo     Nalpha   Nbeta   Ndocc  Nsocc
   -------------------------------------------------------
     A        402     402       0       0       0       0
   -------------------------------------------------------
    Total     402     402      12      12      12       0
   -------------------------------------------------------

  ==> Integral Setup <==

  ==> DiskDFJK: Density-Fitted J/K Matrices <==

    J tasked:                  Yes
    K tasked:                  Yes
    wK tasked:                  No
    OpenMP threads:              1
    Integrals threads:           1
    Memory [MiB]:            15735
    Algorithm:                Core
    Integral Cache:           LOAD
    Schwarz Cutoff:          1E-12
    Fitting Condition:       1E-10

   => Auxiliary Basis Set <=

  Basis Set: (JUN-CC-PVTZ AUX)
    Blend: JUN-CC-PVTZ-JKFIT
    Number of shells: 294
    Number of basis function: 930
    Number of Cartesian functions: 1116
    Spherical Harmonics?: true
    Max angular momentum: 4

  Minimum eigenvalue in the overlap matrix is 2.7338549227E-05.
  Using Symmetric Orthogonalization.

  SCF Guess: Superposition of Atomic Densities via on-the-fly atomic UHF.

  ==> Iterations <==

                           Total Energy        Delta E     RMS |[F,P]|

   @DF-RHF iter SAD:  -116.33324799021418   -1.16333e+02   0.00000e+00 
   @DF-RHF iter   1:  -116.98779860460697   -6.54551e-01   1.14083e-03 DIIS
   @DF-RHF iter   2:  -117.09547887881047   -1.07680e-01   4.90097e-04 DIIS
   @DF-RHF iter   3:  -117.11560644892525   -2.01276e-02   8.80407e-05 DIIS
   @DF-RHF iter   4:  -117.11690146930415   -1.29502e-03   2.64959e-05 DIIS
   @DF-RHF iter   5:  -117.11697542268270   -7.39534e-05   7.13461e-06 DIIS
   @DF-RHF iter   6:  -117.11698165183932   -6.22916e-06   1.28649e-06 DIIS
   @DF-RHF iter   7:  -117.11698196166176   -3.09822e-07   4.72719e-07 DIIS
   @DF-RHF iter   8:  -117.11698200257155   -4.09098e-08   1.63675e-07 DIIS
   @DF-RHF iter   9:  -117.11698200843668   -5.86513e-09   5.95414e-08 DIIS
   @DF-RHF iter  10:  -117.11698200938082   -9.44141e-10   1.35267e-08 DIIS
   @DF-RHF iter  11:  -117.11698200942644   -4.56168e-11   2.39274e-09 DIIS
  Energy and wave function converged.


  ==> Post-Iterations <==

    Orbital Energies [Eh]
    ---------------------

    Doubly Occupied:                                                      

       1A    -11.234374     2A    -11.220802     3A    -11.217529  
       4A     -1.064915     5A     -0.932769     6A     -0.758066  
       7A     -0.640031     8A     -0.582582     9A     -0.568347  
      10A     -0.523374    11A     -0.493117    12A     -0.358017  

    Virtual:                                                              

      13A      0.038392    14A      0.049001    15A      0.054668  
      16A      0.060927    17A      0.069077    18A      0.074164  
      19A      0.088646    20A      0.098118    21A      0.098776  
      22A      0.107768    23A      0.113888    24A      0.119983  
      25A      0.124452    26A      0.131280    27A      0.135869  
      28A      0.147338    29A      0.156305    30A      0.158841  
      31A      0.160805    32A      0.172464    33A      0.176622  
      34A      0.182724    35A      0.185359    36A      0.205680  
      37A      0.215408    38A      0.245631    39A      0.253382  
      40A      0.266770    41A      0.276631    42A      0.285547  
      43A      0.293840    44A      0.303412    45A      0.309302  
      46A      0.316193    47A      0.329722    48A      0.331708  
      49A      0.342171    50A      0.342826    51A      0.350789  
      52A      0.357044    53A      0.370176    54A      0.376448  
      55A      0.382427    56A      0.389072    57A      0.395721  
      58A      0.400514    59A      0.411519    60A      0.424632  
      61A      0.426590    62A      0.437609    63A      0.442168  
      64A      0.455124    65A      0.463073    66A      0.479523  
      67A      0.485224    68A      0.496727    69A      0.504697  
      70A      0.511063    71A      0.519356    72A      0.522989  
      73A      0.528219    74A      0.537809    75A      0.554203  
      76A      0.565600    77A      0.575007    78A      0.582790  
      79A      0.589834    80A      0.596648    81A      0.604315  
      82A      0.621311    83A      0.637941    84A      0.645153  
      85A      0.650197    86A      0.668163    87A      0.673988  
      88A      0.689921    89A      0.698569    90A      0.709076  
      91A      0.732401    92A      0.737154    93A      0.746723  
      94A      0.774963    95A      0.785116    96A      0.805694  
      97A      0.808957    98A      0.822662    99A      0.829390  
     100A      0.834192   101A      0.855168   102A      0.860462  
     103A      0.884110   104A      0.895523   105A      0.917138  
     106A      0.945645   107A      0.959509   108A      0.966889  
     109A      0.970006   110A      1.003165   111A      1.037465  
     112A      1.052583   113A      1.083212   114A      1.088490  
     115A      1.109466   116A      1.117000   117A      1.134693  
     118A      1.147604   119A      1.158839   120A      1.169661  
     121A      1.195686   122A      1.207928   123A      1.219105  
     124A      1.229493   125A      1.248389   126A      1.255869  
     127A      1.264938   128A      1.272769   129A      1.283557  
     130A      1.298754   131A      1.309562   132A      1.321059  
     133A      1.335413   134A      1.346247   135A      1.352580  
     136A      1.371133   137A      1.378711   138A      1.385769  
     139A      1.401098   140A      1.414013   141A      1.429348  
     142A      1.449440   143A      1.455959   144A      1.472310  
     145A      1.482980   146A      1.488597   147A      1.505513  
     148A      1.524741   149A      1.537663   150A      1.541663  
     151A      1.560299   152A      1.569827   153A      1.580100  
     154A      1.604577   155A      1.613080   156A      1.620969  
     157A      1.631296   158A      1.640207   159A      1.664000  
     160A      1.678303   161A      1.682521   162A      1.693833  
     163A      1.734071   164A      1.745466   165A      1.756347  
     166A      1.781617   167A      1.795429   168A      1.801565  
     169A      1.821679   170A      1.826488   171A      1.866995  
     172A      1.878101   173A      1.895935   174A      1.902952  
     175A      1.920914   176A      1.949199   177A      1.991935  
     178A      2.007405   179A      2.048415   180A      2.074912  
     181A      2.100656   182A      2.125900   183A      2.166372  
     184A      2.190979   185A      2.204332   186A      2.252096  
     187A      2.275822   188A      2.315491   189A      2.379103  
     190A      2.404178   191A      2.468445   192A      2.546719  
     193A      2.569525   194A      2.671894   195A      2.715010  
     196A      2.774341   197A      2.808662   198A      2.844190  
     199A      2.881174   200A      2.906539   201A      2.926967  
     202A      2.966458   203A      2.974830   204A      3.009229  
     205A      3.039064   206A      3.090999   207A      3.103444  
     208A      3.121521   209A      3.135926   210A      3.144265  
     211A      3.185809   212A      3.206505   213A      3.250237  
     214A      3.260058   215A      3.296403   216A      3.302247  
     217A      3.315361   218A      3.339241   219A      3.353365  
     220A      3.386403   221A      3.428824   222A      3.430827  
     223A      3.447697   224A      3.453161   225A      3.477908  
     226A      3.498813   227A      3.522743   228A      3.531265  
     229A      3.548320   230A      3.561970   231A      3.583483  
     232A      3.586607   233A      3.613383   234A      3.638123  
     235A      3.642665   236A      3.663606   237A      3.680153  
     238A      3.702293   239A      3.707594   240A      3.729776  
     241A      3.749898   242A      3.756170   243A      3.775852  
     244A      3.784704   245A      3.790538   246A      3.811877  
     247A      3.819154   248A      3.832012   249A      3.838995  
     250A      3.872680   251A      3.881613   252A      3.896003  
     253A      3.914456   254A      3.927315   255A      3.940265  
     256A      3.970765   257A      3.988185   258A      4.015733  
     259A      4.032736   260A      4.038930   261A      4.073642  
     262A      4.074795   263A      4.096911   264A      4.122456  
     265A      4.138794   266A      4.172003   267A      4.177247  
     268A      4.195749   269A      4.199919   270A      4.216291  
     271A      4.229235   272A      4.250464   273A      4.272609  
     274A      4.288826   275A      4.307479   276A      4.323773  
     277A      4.337271   278A      4.350466   279A      4.363850  
     280A      4.382968   281A      4.399738   282A      4.419540  
     283A      4.432727   284A      4.443164   285A      4.455491  
     286A      4.479467   287A      4.490045   288A      4.499685  
     289A      4.513847   290A      4.515340   291A      4.544285  
     292A      4.552448   293A      4.566605   294A      4.580540  
     295A      4.609858   296A      4.621271   297A      4.630113  
     298A      4.644146   299A      4.648933   300A      4.682653  
     301A      4.703734   302A      4.709079   303A      4.731357  
     304A      4.758095   305A      4.762049   306A      4.769380  
     307A      4.786865   308A      4.814522   309A      4.826151  
     310A      4.840390   311A      4.843492   312A      4.859439  
     313A      4.878902   314A      4.888582   315A      4.904028  
     316A      4.916905   317A      4.918854   318A      4.943882  
     319A      4.963737   320A      4.991448   321A      4.996334  
     322A      5.030393   323A      5.050630   324A      5.061441  
     325A      5.071178   326A      5.087787   327A      5.108620  
     328A      5.135134   329A      5.147208   330A      5.156199  
     331A      5.183397   332A      5.212315   333A      5.224757  
     334A      5.260714   335A      5.279452   336A      5.287871  
     337A      5.324204   338A      5.328837   339A      5.372639  
     340A      5.392196   341A      5.398967   342A      5.433551  
     343A      5.462946   344A      5.507257   345A      5.531603  
     346A      5.552858   347A      5.561466   348A      5.585992  
     349A      5.596139   350A      5.620178   351A      5.693300  
     352A      5.708944   353A      5.715283   354A      5.742164  
     355A      5.803321   356A      5.821255   357A      5.827628  
     358A      5.846215   359A      5.899393   360A      5.934372  
     361A      5.986496   362A      6.062723   363A      6.076151  
     364A      6.096748   365A      6.125289   366A      6.175391  
     367A      6.250156   368A      6.272110   369A      6.295230  
     370A      6.380798   371A      6.411432   372A      6.483117  
     373A      6.503275   374A      6.512023   375A      6.554390  
     376A      6.566591   377A      6.681317   378A      6.729543  
     379A      6.769276   380A      6.865162   381A      6.936995  
     382A      7.132662   383A      7.435114   384A      7.508322  
     385A      7.624880   386A      7.649686   387A      7.701180  
     388A      7.841339   389A      7.950166   390A      8.018398  
     391A      8.174862   392A      8.332842   393A      8.799220  
     394A      9.553927   395A     10.021785   396A     10.277693  
     397A     12.876742   398A     14.910461   399A     15.612623  
     400A     42.259886   401A     46.307241   402A     47.702650  

    Final Occupation by Irrep:
              A 
    DOCC [    12 ]

  @DF-RHF Final Energy:  -117.11698200942644

   => Energetics <=

    Nuclear Repulsion Energy =             70.8714919729977453
    One-Electron Energy =                -296.7891025651580890
    Two-Electron Energy =                 108.8006285827339070
    Total Energy =                       -117.1169820094264367

Computation Completed


Properties will be evaluated at   0.000000,   0.000000,   0.000000 [a0]

Properties computed using the SCF density matrix

  Nuclear Dipole Moment: [e a0]
     X:   -68.4955      Y:   -10.2426      Z:     0.9269

  Electronic Dipole Moment: [e a0]
     X:    68.4128      Y:    10.1002      Z:    -0.9015

  Dipole Moment: [e a0]
     X:    -0.0827      Y:    -0.1424      Z:     0.0253     Total:     0.1666

  Dipole Moment: [D]
     X:    -0.2102      Y:    -0.3619      Z:     0.0644     Total:     0.4234


*** tstop() called on r282 at Wed Sep 15 07:09:09 2021
Module time:
	user time   =      14.81 seconds =       0.25 minutes
	system time =       0.37 seconds =       0.01 minutes
	total time  =         15 seconds =       0.25 minutes
Total time:
	user time   =      43.76 seconds =       0.73 minutes
	system time =       1.17 seconds =       0.02 minutes
	total time  =         45 seconds =       0.75 minutes

  //>>>>>>>>>>>>>>>>>>>>>>>>>>>>>>>>>>>//
  //            Monomer B HF           //
  //<<<<<<<<<<<<<<<<<<<<<<<<<<<<<<<<<<<//


*** tstart() called on r282
*** at Wed Sep 15 07:09:09 2021

   => Loading Basis Set <=

    Name: JUN-CC-PVTZ
    Role: ORBITAL
    Keyword: BASIS
    atoms 1-3, 10-12 entry C          line   217 file /home/r08543048/miniconda3/share/psi4/basis/jun-cc-pvtz.gbs 
    atoms 4-9, 13-18 entry H          line    36 file /home/r08543048/miniconda3/share/psi4/basis/jun-cc-pvtz.gbs 


         ---------------------------------------------------------
                                   SCF
               by Justin Turney, Rob Parrish, Andy Simmonett
                          and Daniel G. A. Smith
                              RHF Reference
                        1 Threads,  20980 MiB Core
         ---------------------------------------------------------

  ==> Geometry <==

    Molecular point group: c1
    Full point group: C1

    Geometry (in Angstrom), charge = 0, multiplicity = 1:

       Center              X                  Y                   Z               Mass       
    ------------   -----------------  -----------------  -----------------  -----------------
      Gh(C)          -0.867970879938     0.882676077352    -0.172478682111    12.000000000000
      Gh(C)          -1.765227879938     0.032985077352     0.334562317889    12.000000000000
      Gh(C)          -1.877213879938    -1.406098922648    -0.055591682111    12.000000000000
      Gh(H)          -0.833452879938     1.916719077352     0.141592317889     1.007825032230
      Gh(H)          -0.148665879938     0.554750077352    -0.912358682111     1.007825032230
      Gh(H)          -2.466465879938     0.396934077352     1.078738317889     1.007825032230
      Gh(H)          -2.864975879938    -1.621426922648    -0.466235682111     1.007825032230
      Gh(H)          -1.126627879938    -1.667016922648    -0.800284682111     1.007825032230
      Gh(H)          -1.743587879938    -2.057479922648     0.810082317889     1.007825032230
         C            0.868146300062    -0.882695342648     0.173007757889    12.000000000000
         C            1.764800300062    -0.032912342648    -0.334945242111    12.000000000000
         C            1.877419300062     1.406054657352     0.055436757889    12.000000000000
         H            0.833150300062    -1.916633342648    -0.141353242111     1.007825032230
         H            0.149834300062    -0.554975342648     0.913942757889     1.007825032230
         H            2.465028300062    -0.396704342648    -1.080152242111     1.007825032230
         H            1.742672300062     2.057683657352    -0.809881242111     1.007825032230
         H            1.127884300062     1.666853657352     0.801231757889     1.007825032230
         H            2.865763300062     1.621186657352     0.464782757889     1.007825032230

  Running in c1 symmetry.

  Rotational constants: A =      0.20940  B =      0.06737  C =      0.05418 [cm^-1]
  Rotational constants: A =   6277.78396  B =   2019.79631  C =   1624.35912 [MHz]
  Nuclear repulsion =   70.871383723929796

  Charge       = 0
  Multiplicity = 1
  Electrons    = 24
  Nalpha       = 12
  Nbeta        = 12

  ==> Algorithm <==

  SCF Algorithm Type is DF.
  DIIS enabled.
  MOM disabled.
  Fractional occupation disabled.
  Guess Type is SAD.
  Energy threshold   = 1.00e-08
  Density threshold  = 1.00e-08
  Integral threshold = 0.00e+00

  ==> Primary Basis <==

  Basis Set: JUN-CC-PVTZ
    Blend: JUN-CC-PVTZ
    Number of shells: 150
    Number of basis function: 402
    Number of Cartesian functions: 450
    Spherical Harmonics?: true
    Max angular momentum: 3

   => Loading Basis Set <=

    Name: (JUN-CC-PVTZ AUX)
    Role: JKFIT
    Keyword: DF_BASIS_SCF
    atoms 1-3, 10-12 entry C          line   152 file /home/r08543048/miniconda3/share/psi4/basis/jun-cc-pvtz-jkfit.gbs 
    atoms 4-9, 13-18 entry H          line    70 file /home/r08543048/miniconda3/share/psi4/basis/jun-cc-pvtz-jkfit.gbs 

  ==> Pre-Iterations <==

   -------------------------------------------------------
    Irrep   Nso     Nmo     Nalpha   Nbeta   Ndocc  Nsocc
   -------------------------------------------------------
     A        402     402       0       0       0       0
   -------------------------------------------------------
    Total     402     402      12      12      12       0
   -------------------------------------------------------

  ==> Integral Setup <==

  ==> DiskDFJK: Density-Fitted J/K Matrices <==

    J tasked:                  Yes
    K tasked:                  Yes
    wK tasked:                  No
    OpenMP threads:              1
    Integrals threads:           1
    Memory [MiB]:            15735
    Algorithm:                Core
    Integral Cache:           LOAD
    Schwarz Cutoff:          1E-12
    Fitting Condition:       1E-10

   => Auxiliary Basis Set <=

  Basis Set: (JUN-CC-PVTZ AUX)
    Blend: JUN-CC-PVTZ-JKFIT
    Number of shells: 294
    Number of basis function: 930
    Number of Cartesian functions: 1116
    Spherical Harmonics?: true
    Max angular momentum: 4

  Minimum eigenvalue in the overlap matrix is 2.7338549227E-05.
  Using Symmetric Orthogonalization.

  SCF Guess: Superposition of Atomic Densities via on-the-fly atomic UHF.

  ==> Iterations <==

                           Total Energy        Delta E     RMS |[F,P]|

   @DF-RHF iter SAD:  -116.33324365684027   -1.16333e+02   0.00000e+00 
   @DF-RHF iter   1:  -116.98779875921647   -6.54555e-01   1.14083e-03 DIIS
   @DF-RHF iter   2:  -117.09547922928319   -1.07680e-01   4.90098e-04 DIIS
   @DF-RHF iter   3:  -117.11560686715410   -2.01276e-02   8.80412e-05 DIIS
   @DF-RHF iter   4:  -117.11690189944048   -1.29503e-03   2.64967e-05 DIIS
   @DF-RHF iter   5:  -117.11697585694893   -7.39575e-05   7.13464e-06 DIIS
   @DF-RHF iter   6:  -117.11698208622525   -6.22928e-06   1.28652e-06 DIIS
   @DF-RHF iter   7:  -117.11698239606113   -3.09836e-07   4.72736e-07 DIIS
   @DF-RHF iter   8:  -117.11698243697332   -4.09122e-08   1.63681e-07 DIIS
   @DF-RHF iter   9:  -117.11698244283888   -5.86556e-09   5.95427e-08 DIIS
   @DF-RHF iter  10:  -117.11698244378525   -9.46372e-10   1.35267e-08 DIIS
   @DF-RHF iter  11:  -117.11698244382859   -4.33431e-11   2.39270e-09 DIIS
  Energy and wave function converged.


  ==> Post-Iterations <==

    Orbital Energies [Eh]
    ---------------------

    Doubly Occupied:                                                      

       1A    -11.234374     2A    -11.220803     3A    -11.217529  
       4A     -1.064914     5A     -0.932771     6A     -0.758065  
       7A     -0.640029     8A     -0.582586     9A     -0.568346  
      10A     -0.523374    11A     -0.493116    12A     -0.358017  

    Virtual:                                                              

      13A      0.038397    14A      0.049003    15A      0.054665  
      16A      0.060929    17A      0.069079    18A      0.074162  
      19A      0.088643    20A      0.098113    21A      0.098774  
      22A      0.107765    23A      0.113894    24A      0.119982  
      25A      0.124442    26A      0.131287    27A      0.135870  
      28A      0.147344    29A      0.156310    30A      0.158840  
      31A      0.160802    32A      0.172477    33A      0.176613  
      34A      0.182702    35A      0.185386    36A      0.205699  
      37A      0.215403    38A      0.245619    39A      0.253377  
      40A      0.266782    41A      0.276627    42A      0.285545  
      43A      0.293847    44A      0.303383    45A      0.309339  
      46A      0.316234    47A      0.329733    48A      0.331754  
      49A      0.342193    50A      0.342834    51A      0.350776  
      52A      0.357014    53A      0.370149    54A      0.376410  
      55A      0.382446    56A      0.389007    57A      0.395687  
      58A      0.400519    59A      0.411532    60A      0.424645  
      61A      0.426514    62A      0.437598    63A      0.442101  
      64A      0.455173    65A      0.463074    66A      0.479576  
      67A      0.485244    68A      0.496736    69A      0.504712  
      70A      0.511064    71A      0.519359    72A      0.523018  
      73A      0.528214    74A      0.537800    75A      0.554175  
      76A      0.565616    77A      0.575086    78A      0.582820  
      79A      0.589841    80A      0.596623    81A      0.604368  
      82A      0.621307    83A      0.637930    84A      0.645160  
      85A      0.650184    86A      0.668150    87A      0.673994  
      88A      0.689936    89A      0.698611    90A      0.709036  
      91A      0.732421    92A      0.737086    93A      0.746789  
      94A      0.775004    95A      0.785088    96A      0.805663  
      97A      0.808989    98A      0.822684    99A      0.829347  
     100A      0.834194   101A      0.855117   102A      0.860477  
     103A      0.884108   104A      0.895415   105A      0.917132  
     106A      0.945691   107A      0.959489   108A      0.966923  
     109A      0.969945   110A      1.003211   111A      1.037489  
     112A      1.052666   113A      1.083202   114A      1.088422  
     115A      1.109463   116A      1.116951   117A      1.134756  
     118A      1.147807   119A      1.158855   120A      1.169694  
     121A      1.195715   122A      1.208021   123A      1.219124  
     124A      1.229591   125A      1.248429   126A      1.256016  
     127A      1.264857   128A      1.272881   129A      1.283547  
     130A      1.298712   131A      1.309505   132A      1.321085  
     133A      1.335384   134A      1.346117   135A      1.352520  
     136A      1.371066   137A      1.378750   138A      1.385590  
     139A      1.401059   140A      1.414100   141A      1.429416  
     142A      1.449523   143A      1.456050   144A      1.472326  
     145A      1.482942   146A      1.488645   147A      1.505554  
     148A      1.524657   149A      1.537784   150A      1.541801  
     151A      1.560227   152A      1.569918   153A      1.580040  
     154A      1.604569   155A      1.613081   156A      1.620970  
     157A      1.631335   158A      1.640265   159A      1.664051  
     160A      1.678468   161A      1.682605   162A      1.693632  
     163A      1.733883   164A      1.745329   165A      1.756351  
     166A      1.781571   167A      1.795340   168A      1.801782  
     169A      1.821525   170A      1.826618   171A      1.866851  
     172A      1.877899   173A      1.895915   174A      1.902892  
     175A      1.920646   176A      1.949014   177A      1.992098  
     178A      2.007386   179A      2.048358   180A      2.074869  
     181A      2.100473   182A      2.125916   183A      2.166430  
     184A      2.191098   185A      2.204271   186A      2.252021  
     187A      2.275823   188A      2.315490   189A      2.379188  
     190A      2.404076   191A      2.468468   192A      2.546745  
     193A      2.569616   194A      2.671869   195A      2.715229  
     196A      2.774489   197A      2.808648   198A      2.844189  
     199A      2.881278   200A      2.906513   201A      2.927029  
     202A      2.966490   203A      2.974882   204A      3.009472  
     205A      3.039134   206A      3.091072   207A      3.103543  
     208A      3.121620   209A      3.136055   210A      3.144407  
     211A      3.185845   212A      3.206671   213A      3.250268  
     214A      3.260143   215A      3.296369   216A      3.302355  
     217A      3.315353   218A      3.339240   219A      3.353475  
     220A      3.386472   221A      3.428832   222A      3.430978  
     223A      3.447682   224A      3.453191   225A      3.477933  
     226A      3.498826   227A      3.522767   228A      3.531196  
     229A      3.548320   230A      3.562094   231A      3.583442  
     232A      3.586509   233A      3.613283   234A      3.638206  
     235A      3.642615   236A      3.663619   237A      3.680356  
     238A      3.702263   239A      3.707737   240A      3.729807  
     241A      3.749913   242A      3.756161   243A      3.775822  
     244A      3.784738   245A      3.790694   246A      3.811982  
     247A      3.819084   248A      3.832040   249A      3.838955  
     250A      3.872700   251A      3.881510   252A      3.896004  
     253A      3.914448   254A      3.927258   255A      3.940392  
     256A      3.970809   257A      3.988187   258A      4.015706  
     259A      4.032527   260A      4.039019   261A      4.073737  
     262A      4.074880   263A      4.096985   264A      4.122373  
     265A      4.138686   266A      4.171946   267A      4.177158  
     268A      4.195784   269A      4.200059   270A      4.216128  
     271A      4.228841   272A      4.250422   273A      4.272688  
     274A      4.288857   275A      4.307522   276A      4.323876  
     277A      4.337244   278A      4.350297   279A      4.363799  
     280A      4.382806   281A      4.399880   282A      4.419571  
     283A      4.432755   284A      4.443203   285A      4.455359  
     286A      4.479670   287A      4.489970   288A      4.499589  
     289A      4.513802   290A      4.515468   291A      4.544389  
     292A      4.552447   293A      4.566674   294A      4.580484  
     295A      4.609890   296A      4.621293   297A      4.630232  
     298A      4.644158   299A      4.648975   300A      4.682595  
     301A      4.703641   302A      4.709108   303A      4.731298  
     304A      4.757962   305A      4.762056   306A      4.769562  
     307A      4.786972   308A      4.814652   309A      4.826242  
     310A      4.840221   311A      4.843780   312A      4.859307  
     313A      4.878899   314A      4.888630   315A      4.904017  
     316A      4.916907   317A      4.918733   318A      4.944111  
     319A      4.963937   320A      4.991478   321A      4.996406  
     322A      5.030146   323A      5.050501   324A      5.061320  
     325A      5.071143   326A      5.087657   327A      5.108959  
     328A      5.134955   329A      5.147321   330A      5.156416  
     331A      5.183142   332A      5.212421   333A      5.224529  
     334A      5.260606   335A      5.279777   336A      5.288012  
     337A      5.324512   338A      5.328721   339A      5.372710  
     340A      5.392376   341A      5.399006   342A      5.433352  
     343A      5.463120   344A      5.507593   345A      5.531261  
     346A      5.552787   347A      5.561413   348A      5.585935  
     349A      5.596168   350A      5.620126   351A      5.693215  
     352A      5.708864   353A      5.715313   354A      5.742020  
     355A      5.803237   356A      5.821145   357A      5.827651  
     358A      5.846227   359A      5.899409   360A      5.934343  
     361A      5.986462   362A      6.062964   363A      6.075882  
     364A      6.096849   365A      6.125295   366A      6.175718  
     367A      6.249978   368A      6.271865   369A      6.295176  
     370A      6.380823   371A      6.411459   372A      6.483039  
     373A      6.503113   374A      6.512020   375A      6.554135  
     376A      6.566299   377A      6.681421   378A      6.729600  
     379A      6.769188   380A      6.864749   381A      6.937031  
     382A      7.132692   383A      7.435213   384A      7.508445  
     385A      7.624876   386A      7.649597   387A      7.701077  
     388A      7.841317   389A      7.950113   390A      8.018408  
     391A      8.174806   392A      8.332752   393A      8.799267  
     394A      9.554067   395A     10.021522   396A     10.277669  
     397A     12.877612   398A     14.910765   399A     15.613165  
     400A     42.257195   401A     46.306873   402A     47.701546  

    Final Occupation by Irrep:
              A 
    DOCC [    12 ]

  @DF-RHF Final Energy:  -117.11698244382859

   => Energetics <=

    Nuclear Repulsion Energy =             70.8713837239297959
    One-Electron Energy =                -296.7888841561963886
    Two-Electron Energy =                 108.8005179884380027
    Total Energy =                       -117.1169824438285900

Computation Completed


Properties will be evaluated at   0.000000,   0.000000,   0.000000 [a0]

Properties computed using the SCF density matrix

  Nuclear Dipole Moment: [e a0]
     X:    68.4960      Y:    10.2425      Z:    -0.9268

  Electronic Dipole Moment: [e a0]
     X:   -68.4134      Y:   -10.1001      Z:     0.9014

  Dipole Moment: [e a0]
     X:     0.0827      Y:     0.1424      Z:    -0.0254     Total:     0.1666

  Dipole Moment: [D]
     X:     0.2101      Y:     0.3619      Z:    -0.0646     Total:     0.4234


*** tstop() called on r282 at Wed Sep 15 07:09:24 2021
Module time:
	user time   =      14.43 seconds =       0.24 minutes
	system time =       0.38 seconds =       0.01 minutes
	total time  =         15 seconds =       0.25 minutes
Total time:
	user time   =      58.20 seconds =       0.97 minutes
	system time =       1.55 seconds =       0.03 minutes
	total time  =         60 seconds =       1.00 minutes
  Constructing Basis Sets for SAPT...

   => Loading Basis Set <=

    Name: (JUN-CC-PVTZ AUX)
    Role: RIFIT
    Keyword: DF_BASIS_SAPT
    atoms 1-3, 10-12 entry C          line   132 file /home/r08543048/miniconda3/share/psi4/basis/jun-cc-pvtz-ri.gbs 
    atoms 4-9, 13-18 entry H          line    30 file /home/r08543048/miniconda3/share/psi4/basis/jun-cc-pvtz-ri.gbs 


  //>>>>>>>>>>>>>>>>>>>>>>>>>>>>>>>>>>>//
  //               SAPT0               //
  //<<<<<<<<<<<<<<<<<<<<<<<<<<<<<<<<<<<//


*** tstart() called on r282
*** at Wed Sep 15 07:09:24 2021

        SAPT0  
    Ed Hohenstein
     6 June 2009

      Orbital Information
  --------------------------
    NSO        =       402
    NMO        =       402
    NRI        =       942
    NOCC A     =        12
    NOCC B     =        12
    FOCC A     =         0
    FOCC B     =         0
    NVIR A     =       390
    NVIR B     =       390

    Elst10,r            =    -0.052295519435 [Eh]
    Exch10              =     0.137686434809 [Eh]
    Exch10 (S^2)        =     0.130588210449 [Eh]

    Iter     Energy [mEh]          dE [mEh]         Residual      Time [s]
       1     -22.43226571      22.432265706      26.228329645             0
       2     -28.49522518       6.062959477       9.478028540             1
       3     -29.09858216       0.603356976       2.410280392             1
       4     -28.90966492      -0.188917239       0.758431395             2
       5     -28.90143520      -0.008229720       0.229062024             2
       6     -28.91208621       0.010651006       0.102863125             2
       7     -28.91324863       0.001162422       0.030426130             3
       8     -28.91187580      -0.001372832       0.007122438             3
       9     -28.91196815       0.000092350       0.002108791             4
      10     -28.91201787       0.000049728       0.000478126             4
      11     -28.91200876      -0.000009116       0.000085210             5
      12     -28.91200875      -0.000000009       0.000018698             5
      13     -28.91200903       0.000000284       0.000003955             6
      14     -28.91200899      -0.000000041       0.000000872             6

    CHF Iterations converged


    Iter     Energy [mEh]          dE [mEh]         Residual      Time [s]
       1     -22.42896360      22.428963595      26.230163832             1
       2     -28.49428704       6.065323449       9.479185254             1
       3     -29.09709681       0.602809761       2.411310452             2
       4     -28.90818208      -0.188914729       0.758305298             2
       5     -28.89990206      -0.008280021       0.228871575             2
       6     -28.91053828       0.010636227       0.102880084             3
       7     -28.91170889       0.001170610       0.030420442             3
       8     -28.91033512      -0.001373773       0.007119757             4
       9     -28.91042751       0.000092395       0.002107871             4
      10     -28.91047720       0.000049684       0.000478192             5
      11     -28.91046809      -0.000009113       0.000085200             5
      12     -28.91046808      -0.000000011       0.000018678             6
      13     -28.91046836       0.000000284       0.000003944             6
      14     -28.91046832      -0.000000040       0.000000866             7

    CHF Iterations converged

    Ind20,r (A<-B)      =    -0.028912008993 [Eh]
    Ind20,r (B<-A)      =    -0.028910468319 [Eh]
    Ind20,r             =    -0.057822477312 [Eh]
    Exch-Ind20,r (A<-B) =     0.024602962423 [Eh]
    Exch-Ind20,r (B<-A) =     0.024595736906 [Eh]
    Exch-Ind20,r        =     0.049198699329 [Eh]
    Disp20              =    -0.044177822124 [Eh]
    Disp20 (SS)         =    -0.022088911062 [Eh]
    Disp20 (OS)         =    -0.022088911062 [Eh]
    Exch-Disp20         =     0.009879770975 [Eh]
    Exch-Disp20 (SS)    =     0.006468797095 [Eh]
    Exch-Disp20 (OS)    =     0.003410973880 [Eh]

    SAPT Results 
  --------------------------------------------------------------------------------------------------------
    Electrostatics                -52.29551943 [mEh]     -32.81593388 [kcal/mol]    -137.30186736 [kJ/mol]
      Elst10,r                    -52.29551943 [mEh]     -32.81593388 [kcal/mol]    -137.30186736 [kJ/mol]

    Exchange                      137.68643481 [mEh]      86.39954225 [kcal/mol]     361.49568479 [kJ/mol]
      Exch10                      137.68643481 [mEh]      86.39954225 [kcal/mol]     361.49568479 [kJ/mol]
      Exch10(S^2)                 130.58821045 [mEh]      81.94533922 [kcal/mol]     342.85929930 [kJ/mol]

    Induction                     -10.77783074 [mEh]      -6.76319089 [kcal/mol]     -28.29719070 [kJ/mol]
      Ind20,r                     -57.82247731 [mEh]     -36.28415231 [kcal/mol]    -151.81289327 [kJ/mol]
      Exch-Ind20,r                 49.19869933 [mEh]      30.87264993 [kcal/mol]     129.17116729 [kJ/mol]
      delta HF,r (2)               -2.15405275 [mEh]      -1.35168851 [kcal/mol]      -5.65546472 [kJ/mol]

    Dispersion                    -34.29805115 [mEh]     -21.52235203 [kcal/mol]     -90.04952088 [kJ/mol]
      Disp20                      -44.17782212 [mEh]     -27.72200191 [kcal/mol]    -115.98885601 [kJ/mol]
      Exch-Disp20                   9.87977098 [mEh]       6.19964989 [kcal/mol]      25.93933512 [kJ/mol]
      Disp20 (SS)                 -22.08891106 [mEh]     -13.86100096 [kcal/mol]     -57.99442800 [kJ/mol]
      Disp20 (OS)                 -22.08891106 [mEh]     -13.86100096 [kcal/mol]     -57.99442800 [kJ/mol]
      Exch-Disp20 (SS)              6.46879709 [mEh]       4.05923146 [kcal/mol]      16.98382443 [kJ/mol]
      Exch-Disp20 (OS)              3.41097388 [mEh]       2.14041842 [kcal/mol]       8.95551069 [kJ/mol]

  Total HF                         74.61308464 [mEh]      46.82041748 [kcal/mol]     195.89662673 [kJ/mol]
  Total SAPT0                      40.31503349 [mEh]      25.29806545 [kcal/mol]     105.84710585 [kJ/mol]

  Special recipe for scaled SAPT0 (see Manual):
    Electrostatics sSAPT0         -52.29551943 [mEh]     -32.81593388 [kcal/mol]    -137.30186736 [kJ/mol]
    Exchange sSAPT0               137.68643481 [mEh]      86.39954225 [kcal/mol]     361.49568479 [kJ/mol]
    Induction sSAPT0               -2.31114797 [mEh]      -1.45026724 [kcal/mol]      -6.06791815 [kJ/mol]
    Dispersion sSAPT0             -32.59782558 [mEh]     -20.45544437 [kcal/mol]     -85.58557926 [kJ/mol]
  Total sSAPT0                     50.48194183 [mEh]      31.67789675 [kcal/mol]     132.54032001 [kJ/mol]
  --------------------------------------------------------------------------------------------------------

*** tstop() called on r282 at Wed Sep 15 07:10:17 2021
Module time:
	user time   =      43.46 seconds =       0.72 minutes
	system time =       8.99 seconds =       0.15 minutes
	total time  =         53 seconds =       0.88 minutes
Total time:
	user time   =     101.77 seconds =       1.70 minutes
	system time =      10.54 seconds =       0.18 minutes
	total time  =        113 seconds =       1.88 minutes

    Psi4 stopped on: Wednesday, 15 September 2021 07:10AM
    Psi4 wall time for execution: 0:01:53.11

*** Psi4 exiting successfully. Buy a developer a beer!
