
    -----------------------------------------------------------------------
          Psi4: An Open-Source Ab Initio Electronic Structure Package
                               Psi4 1.3.2 release

                         Git: Rev {HEAD} ecbda83 


    R. M. Parrish, L. A. Burns, D. G. A. Smith, A. C. Simmonett,
    A. E. DePrince III, E. G. Hohenstein, U. Bozkaya, A. Yu. Sokolov,
    R. Di Remigio, R. M. Richard, J. F. Gonthier, A. M. James,
    H. R. McAlexander, A. Kumar, M. Saitow, X. Wang, B. P. Pritchard,
    P. Verma, H. F. Schaefer III, K. Patkowski, R. A. King, E. F. Valeev,
    F. A. Evangelista, J. M. Turney, T. D. Crawford, and C. D. Sherrill,
    J. Chem. Theory Comput. 13(7) pp 3185--3197 (2017).
    (doi: 10.1021/acs.jctc.7b00174)


                         Additional Contributions by
    P. Kraus, H. Kruse, M. H. Lechner, M. C. Schieber, R. A. Shaw,
    A. Alenaizan, R. Galvelis, Z. L. Glick, S. Lehtola, and J. P. Misiewicz

    -----------------------------------------------------------------------


    Psi4 started on: Wednesday, 15 September 2021 07:03AM

    Process ID: 3771
    Host:       r282
    PSIDATADIR: /home/r08543048/miniconda3/share/psi4
    Memory:     500.0 MiB
    Threads:    1
    
  ==> Input File <==

--------------------------------------------------------------------------
# Any line starting with the # character is a comment line
#! Sample  computation

memory 22 gb

molecule Dimer {

0 1
 C                 -2.68163959   -1.23361619    0.11509412
 C                 -2.37066159   -0.05065819   -0.79346888
 C                 -2.47161659    1.27857681   -0.05578888
 H                 -1.99196559   -1.26493519    0.96006012
 H                 -3.69282659   -1.15606219    0.51723212
 H                 -2.60294959   -2.18169019   -0.41647288
 H                 -3.05793259   -0.05104619   -1.64206788
 H                 -1.36714059   -0.16347019   -1.20885088
 H                 -2.24523559    2.12090281   -0.70926488
 H                 -3.47686359    1.42250281    0.34308012
 H                 -1.77480459    1.30969681    0.78329312
--
0 1
 C                  2.68134059   -1.23378681   -0.11509812
 C                  2.37080459   -0.05074581    0.79350888
 C                  2.47179159    1.27844419    0.05575588
 H                  1.99142659   -1.26505681   -0.95987612
 H                  3.69242659   -1.15639581   -0.51752012
 H                  2.60264459   -2.18182381    0.41653288
 H                  3.05829259   -0.05121481    1.64193188
 H                  1.36736759   -0.16336981    1.20915388
 H                  2.24577659    2.12082819    0.70928388
 H                  3.47694359    1.42217319   -0.34342412
 H                  1.77472759    1.30966919   -0.78310312

units angstrom
no_reorient
symmetry c1
}

set globals{
  basis jun-cc-pvtz
}

energy('sapt0')
--------------------------------------------------------------------------

  Memory set to  20.489 GiB by Python driver.

  //>>>>>>>>>>>>>>>>>>>>>>>>>>>>>>>>>>>//
  //              Dimer HF             //
  //<<<<<<<<<<<<<<<<<<<<<<<<<<<<<<<<<<<//


*** tstart() called on r282
*** at Wed Sep 15 07:03:33 2021

   => Loading Basis Set <=

    Name: JUN-CC-PVTZ
    Role: ORBITAL
    Keyword: BASIS
    atoms 1-3, 12-14  entry C          line   217 file /home/r08543048/miniconda3/share/psi4/basis/jun-cc-pvtz.gbs 
    atoms 4-11, 15-22 entry H          line    36 file /home/r08543048/miniconda3/share/psi4/basis/jun-cc-pvtz.gbs 


         ---------------------------------------------------------
                                   SCF
               by Justin Turney, Rob Parrish, Andy Simmonett
                          and Daniel G. A. Smith
                              RHF Reference
                        1 Threads,  20980 MiB Core
         ---------------------------------------------------------

  ==> Geometry <==

    Molecular point group: c1
    Full point group: C1

    Geometry (in Angstrom), charge = 0, multiplicity = 1:

       Center              X                  Y                   Z               Mass       
    ------------   -----------------  -----------------  -----------------  -----------------
         C           -2.681640884928    -1.232819928463     0.115093848726    12.000000000000
         C           -2.370662884928    -0.049861928463    -0.793469151274    12.000000000000
         C           -2.471617884928     1.279373071537    -0.055789151274    12.000000000000
         H           -1.991966884928    -1.264138928463     0.960059848726     1.007825032230
         H           -3.692827884928    -1.155265928463     0.517231848726     1.007825032230
         H           -2.602950884928    -2.180893928463    -0.416473151274     1.007825032230
         H           -3.057933884928    -0.050249928463    -1.642068151274     1.007825032230
         H           -1.367141884928    -0.162673928463    -1.208851151274     1.007825032230
         H           -2.245236884928     2.121699071537    -0.709265151274     1.007825032230
         H           -3.476864884928     1.423299071537     0.343079848726     1.007825032230
         H           -1.774805884928     1.310493071537     0.783292848726     1.007825032230
         C            2.681339295072    -1.232990548463    -0.115098391274    12.000000000000
         C            2.370803295072    -0.049949548463     0.793508608726    12.000000000000
         C            2.471790295072     1.279240451537     0.055755608726    12.000000000000
         H            1.991425295072    -1.264260548463    -0.959876391274     1.007825032230
         H            3.692425295072    -1.155599548463    -0.517520391274     1.007825032230
         H            2.602643295072    -2.181027548463     0.416532608726     1.007825032230
         H            3.058291295072    -0.050418548463     1.641931608726     1.007825032230
         H            1.367366295072    -0.162573548463     1.209153608726     1.007825032230
         H            2.245775295072     2.121624451537     0.709283608726     1.007825032230
         H            3.476942295072     1.422969451537    -0.343424391274     1.007825032230
         H            1.774726295072     1.310465451537    -0.783103391274     1.007825032230

  Running in c1 symmetry.

  Rotational constants: A =      0.12671  B =      0.02829  C =      0.02483 [cm^-1]
  Rotational constants: A =   3798.72565  B =    848.18746  C =    744.53305 [MHz]
  Nuclear repulsion =  233.237775695389104

  Charge       = 0
  Multiplicity = 1
  Electrons    = 52
  Nalpha       = 26
  Nbeta        = 26

  ==> Algorithm <==

  SCF Algorithm Type is DF.
  DIIS enabled.
  MOM disabled.
  Fractional occupation disabled.
  Guess Type is SAD.
  Energy threshold   = 1.00e-08
  Density threshold  = 1.00e-08
  Integral threshold = 0.00e+00

  ==> Primary Basis <==

  Basis Set: JUN-CC-PVTZ
    Blend: JUN-CC-PVTZ
    Number of shells: 174
    Number of basis function: 458
    Number of Cartesian functions: 510
    Spherical Harmonics?: true
    Max angular momentum: 3

   => Loading Basis Set <=

    Name: (JUN-CC-PVTZ AUX)
    Role: JKFIT
    Keyword: DF_BASIS_SCF
    atoms 1-3, 12-14  entry C          line   152 file /home/r08543048/miniconda3/share/psi4/basis/jun-cc-pvtz-jkfit.gbs 
    atoms 4-11, 15-22 entry H          line    70 file /home/r08543048/miniconda3/share/psi4/basis/jun-cc-pvtz-jkfit.gbs 

  ==> Pre-Iterations <==

   -------------------------------------------------------
    Irrep   Nso     Nmo     Nalpha   Nbeta   Ndocc  Nsocc
   -------------------------------------------------------
     A        458     458       0       0       0       0
   -------------------------------------------------------
    Total     458     458      26      26      26       0
   -------------------------------------------------------

  ==> Integral Setup <==

  ==> DiskDFJK: Density-Fitted J/K Matrices <==

    J tasked:                  Yes
    K tasked:                  Yes
    wK tasked:                  No
    OpenMP threads:              1
    Integrals threads:           1
    Memory [MiB]:            15735
    Algorithm:                Core
    Integral Cache:           SAVE
    Schwarz Cutoff:          1E-12
    Fitting Condition:       1E-10

   => Auxiliary Basis Set <=

  Basis Set: (JUN-CC-PVTZ AUX)
    Blend: JUN-CC-PVTZ-JKFIT
    Number of shells: 334
    Number of basis function: 1050
    Number of Cartesian functions: 1256
    Spherical Harmonics?: true
    Max angular momentum: 4

  Minimum eigenvalue in the overlap matrix is 9.6832197247E-05.
  Using Symmetric Orthogonalization.

  SCF Guess: Superposition of Atomic Densities via on-the-fly atomic UHF.

  ==> Iterations <==

                           Total Energy        Delta E     RMS |[F,P]|

   @DF-RHF iter SAD:  -235.46201426741297   -2.35462e+02   0.00000e+00 
   @DF-RHF iter   1:  -236.29284710229075   -8.30833e-01   1.59050e-03 DIIS
   @DF-RHF iter   2:  -236.55133876793462   -2.58492e-01   7.53106e-04 DIIS
   @DF-RHF iter   3:  -236.61224547729523   -6.09067e-02   1.26816e-04 DIIS
   @DF-RHF iter   4:  -236.61595774552421   -3.71227e-03   2.50921e-05 DIIS
   @DF-RHF iter   5:  -236.61607514608309   -1.17401e-04   7.05696e-06 DIIS
   @DF-RHF iter   6:  -236.61608440751041   -9.26143e-06   1.25063e-06 DIIS
   @DF-RHF iter   7:  -236.61608474802370   -3.40513e-07   2.30571e-07 DIIS
   @DF-RHF iter   8:  -236.61608476219692   -1.41732e-08   4.02361e-08 DIIS
   @DF-RHF iter   9:  -236.61608476263024   -4.33317e-10   8.16934e-09 DIIS
  Energy and wave function converged.


  ==> Post-Iterations <==

    Orbital Energies [Eh]
    ---------------------

    Doubly Occupied:                                                      

       1A    -11.216000     2A    -11.216000     3A    -11.208179  
       4A    -11.208178     5A    -11.208117     6A    -11.208115  
       7A     -1.054588     8A     -1.054246     9A     -0.925270  
      10A     -0.925037    11A     -0.800330    12A     -0.800070  
      13A     -0.626895    14A     -0.623397    15A     -0.598671  
      16A     -0.598508    17A     -0.549887    18A     -0.549559  
      19A     -0.531206    20A     -0.529849    21A     -0.476561  
      22A     -0.475368    23A     -0.475256    24A     -0.475187  
      25A     -0.469387    26A     -0.467398  

    Virtual:                                                              

      27A      0.052360    28A      0.055073    29A      0.055138  
      30A      0.062965    31A      0.068625    32A      0.072112  
      33A      0.082492    34A      0.091269    35A      0.094185  
      36A      0.106573    37A      0.109067    38A      0.112543  
      39A      0.114093    40A      0.114581    41A      0.129495  
      42A      0.132907    43A      0.141813    44A      0.148408  
      45A      0.151419    46A      0.167214    47A      0.184597  
      48A      0.196064    49A      0.208259    50A      0.210148  
      51A      0.234238    52A      0.253251    53A      0.258338  
      54A      0.265105    55A      0.269104    56A      0.274241  
      57A      0.288750    58A      0.294817    59A      0.295604  
      60A      0.305758    61A      0.307932    62A      0.308150  
      63A      0.318590    64A      0.325719    65A      0.325746  
      66A      0.328794    67A      0.338513    68A      0.344878  
      69A      0.348141    70A      0.350082    71A      0.353418  
      72A      0.357968    73A      0.361718    74A      0.366197  
      75A      0.379999    76A      0.385990    77A      0.390275  
      78A      0.392740    79A      0.396429    80A      0.410410  
      81A      0.419877    82A      0.421710    83A      0.428374  
      84A      0.436260    85A      0.441156    86A      0.450759  
      87A      0.462832    88A      0.487802    89A      0.489186  
      90A      0.499779    91A      0.511039    92A      0.526036  
      93A      0.528603    94A      0.535893    95A      0.538798  
      96A      0.539593    97A      0.547140    98A      0.554218  
      99A      0.568984   100A      0.577232   101A      0.634356  
     102A      0.639573   103A      0.645711   104A      0.659439  
     105A      0.667021   106A      0.678501   107A      0.691196  
     108A      0.705754   109A      0.716090   110A      0.734916  
     111A      0.747136   112A      0.755557   113A      0.766780  
     114A      0.770854   115A      0.779846   116A      0.787028  
     117A      0.794045   118A      0.797839   119A      0.800727  
     120A      0.804253   121A      0.807074   122A      0.809931  
     123A      0.810289   124A      0.820654   125A      0.820761  
     126A      0.854316   127A      0.864110   128A      0.877212  
     129A      0.880862   130A      0.886151   131A      0.890836  
     132A      0.898680   133A      0.909315   134A      0.918091  
     135A      0.925659   136A      0.966340   137A      0.970183  
     138A      0.980907   139A      0.984241   140A      0.988085  
     141A      1.009894   142A      1.013362   143A      1.015839  
     144A      1.085526   145A      1.087553   146A      1.107747  
     147A      1.114621   148A      1.131038   149A      1.160254  
     150A      1.168644   151A      1.176762   152A      1.176949  
     153A      1.198498   154A      1.224825   155A      1.263509  
     156A      1.278793   157A      1.318876   158A      1.325396  
     159A      1.327199   160A      1.328652   161A      1.337231  
     162A      1.340639   163A      1.347092   164A      1.354807  
     165A      1.356109   166A      1.364718   167A      1.371618  
     168A      1.383080   169A      1.387515   170A      1.399704  
     171A      1.405976   172A      1.406114   173A      1.419533  
     174A      1.432412   175A      1.434500   176A      1.446450  
     177A      1.481527   178A      1.486192   179A      1.520107  
     180A      1.525197   181A      1.528909   182A      1.531894  
     183A      1.549326   184A      1.577710   185A      1.578101  
     186A      1.595995   187A      1.600445   188A      1.603025  
     189A      1.617857   190A      1.620011   191A      1.625361  
     192A      1.655205   193A      1.662097   194A      1.672238  
     195A      1.677378   196A      1.688096   197A      1.698568  
     198A      1.707293   199A      1.713452   200A      1.733008  
     201A      1.798056   202A      1.808095   203A      1.808938  
     204A      1.822743   205A      1.825400   206A      1.840341  
     207A      1.853870   208A      1.868927   209A      1.895767  
     210A      1.925549   211A      1.931364   212A      1.939295  
     213A      1.942158   214A      1.952491   215A      1.962075  
     216A      1.970836   217A      2.070405   218A      2.075560  
     219A      2.724248   220A      2.725433   221A      2.726880  
     222A      2.740604   223A      2.741102   224A      2.757385  
     225A      2.761359   226A      2.789859   227A      2.800811  
     228A      2.809654   229A      2.828513   230A      2.836918  
     231A      2.885934   232A      2.895564   233A      2.904286  
     234A      2.916813   235A      2.921174   236A      2.922541  
     237A      2.925353   238A      2.937693   239A      2.944877  
     240A      2.962059   241A      3.013280   242A      3.022394  
     243A      3.063791   244A      3.080363   245A      3.085149  
     246A      3.086670   247A      3.113333   248A      3.126818  
     249A      3.137895   250A      3.140730   251A      3.142982  
     252A      3.150007   253A      3.155900   254A      3.202605  
     255A      3.231062   256A      3.237158   257A      3.241667  
     258A      3.265001   259A      3.272790   260A      3.278401  
     261A      3.293717   262A      3.306528   263A      3.313097  
     264A      3.320438   265A      3.356718   266A      3.363361  
     267A      3.365265   268A      3.372421   269A      3.379727  
     270A      3.384993   271A      3.401900   272A      3.415527  
     273A      3.415657   274A      3.420059   275A      3.428732  
     276A      3.464203   277A      3.468273   278A      3.471412  
     279A      3.475060   280A      3.476624   281A      3.483260  
     282A      3.493058   283A      3.502000   284A      3.504137  
     285A      3.524921   286A      3.527709   287A      3.537048  
     288A      3.537825   289A      3.555376   290A      3.571245  
     291A      3.587328   292A      3.587441   293A      3.591024  
     294A      3.620854   295A      3.622349   296A      3.630603  
     297A      3.698584   298A      3.703989   299A      3.712926  
     300A      3.715871   301A      3.737866   302A      3.756567  
     303A      3.767910   304A      3.783152   305A      3.783971  
     306A      3.799234   307A      3.803744   308A      3.819086  
     309A      3.824034   310A      3.839140   311A      3.862973  
     312A      3.864881   313A      3.923008   314A      3.923516  
     315A      3.927635   316A      3.939519   317A      3.942198  
     318A      3.944190   319A      3.950516   320A      3.957273  
     321A      3.965272   322A      3.965910   323A      4.068867  
     324A      4.070895   325A      4.105209   326A      4.106006  
     327A      4.172241   328A      4.181238   329A      4.182375  
     330A      4.185171   331A      4.194656   332A      4.210425  
     333A      4.212095   334A      4.212163   335A      4.223880  
     336A      4.224962   337A      4.290678   338A      4.296388  
     339A      4.300776   340A      4.312248   341A      4.321252  
     342A      4.331140   343A      4.336710   344A      4.345486  
     345A      4.347959   346A      4.353996   347A      4.357491  
     348A      4.366476   349A      4.385128   350A      4.399860  
     351A      4.404780   352A      4.407201   353A      4.433931  
     354A      4.438421   355A      4.465400   356A      4.471670  
     357A      4.498769   358A      4.501384   359A      4.502275  
     360A      4.510777   361A      4.519482   362A      4.520805  
     363A      4.537937   364A      4.544563   365A      4.548050  
     366A      4.554712   367A      4.593486   368A      4.599838  
     369A      4.624454   370A      4.629736   371A      4.676301  
     372A      4.682528   373A      4.691206   374A      4.691709  
     375A      4.705800   376A      4.711779   377A      4.774286  
     378A      4.778010   379A      4.784078   380A      4.789400  
     381A      4.798241   382A      4.807068   383A      4.855025  
     384A      4.862605   385A      4.976798   386A      4.980457  
     387A      4.980898   388A      4.980968   389A      5.014653  
     390A      5.021665   391A      5.124775   392A      5.128528  
     393A      5.156653   394A      5.157912   395A      5.194926  
     396A      5.199131   397A      5.244269   398A      5.252442  
     399A      5.271938   400A      5.272781   401A      5.273317  
     402A      5.276274   403A      5.287989   404A      5.289173  
     405A      5.300557   406A      5.327732   407A      5.384058  
     408A      5.392176   409A      5.397013   410A      5.408694  
     411A      5.460747   412A      5.463710   413A      5.509729  
     414A      5.510741   415A      5.578004   416A      5.578799  
     417A      5.598478   418A      5.601264   419A      5.715671  
     420A      5.718864   421A      5.737275   422A      5.743970  
     423A      5.746252   424A      5.753997   425A      5.769544  
     426A      5.772754   427A      5.776071   428A      5.778865  
     429A      5.792609   430A      5.793049   431A      5.809153  
     432A      5.811555   433A      5.914321   434A      5.917890  
     435A      5.919405   436A      5.922686   437A      5.939631  
     438A      5.940950   439A      5.968451   440A      5.976648  
     441A      6.079728   442A      6.080962   443A      6.458460  
     444A      6.463207   445A      6.469011   446A      6.498965  
     447A      6.507299   448A      6.509831   449A      6.542766  
     450A      6.549543   451A      6.556302   452A      6.567496  
     453A     13.727459   454A     13.792417   455A     14.282902  
     456A     14.375010   457A     14.572716   458A     14.593542  

    Final Occupation by Irrep:
              A 
    DOCC [    26 ]

  @DF-RHF Final Energy:  -236.61608476263024

   => Energetics <=

    Nuclear Repulsion Energy =            233.2377756953891037
    One-Electron Energy =                -779.1652044915518900
    Two-Electron Energy =                 309.3113440335325208
    Total Energy =                       -236.6160847626302370

Computation Completed


Properties will be evaluated at   0.000000,   0.000000,   0.000000 [a0]

Properties computed using the SCF density matrix

  Nuclear Dipole Moment: [e a0]
     X:    -0.0001      Y:     0.0782      Z:    -0.0000

  Electronic Dipole Moment: [e a0]
     X:     0.0001      Y:    -0.0825      Z:     0.0000

  Dipole Moment: [e a0]
     X:     0.0000      Y:    -0.0043      Z:     0.0000     Total:     0.0043

  Dipole Moment: [D]
     X:     0.0000      Y:    -0.0108      Z:     0.0000     Total:     0.0108


*** tstop() called on r282 at Wed Sep 15 07:04:08 2021
Module time:
	user time   =      34.28 seconds =       0.57 minutes
	system time =       0.97 seconds =       0.02 minutes
	total time  =         35 seconds =       0.58 minutes
Total time:
	user time   =      34.28 seconds =       0.57 minutes
	system time =       0.97 seconds =       0.02 minutes
	total time  =         35 seconds =       0.58 minutes

  //>>>>>>>>>>>>>>>>>>>>>>>>>>>>>>>>>>>//
  //            Monomer A HF           //
  //<<<<<<<<<<<<<<<<<<<<<<<<<<<<<<<<<<<//


*** tstart() called on r282
*** at Wed Sep 15 07:04:08 2021

   => Loading Basis Set <=

    Name: JUN-CC-PVTZ
    Role: ORBITAL
    Keyword: BASIS
    atoms 1-3, 12-14  entry C          line   217 file /home/r08543048/miniconda3/share/psi4/basis/jun-cc-pvtz.gbs 
    atoms 4-11, 15-22 entry H          line    36 file /home/r08543048/miniconda3/share/psi4/basis/jun-cc-pvtz.gbs 


         ---------------------------------------------------------
                                   SCF
               by Justin Turney, Rob Parrish, Andy Simmonett
                          and Daniel G. A. Smith
                              RHF Reference
                        1 Threads,  20980 MiB Core
         ---------------------------------------------------------

  ==> Geometry <==

    Molecular point group: c1
    Full point group: C1

    Geometry (in Angstrom), charge = 0, multiplicity = 1:

       Center              X                  Y                   Z               Mass       
    ------------   -----------------  -----------------  -----------------  -----------------
         C           -2.681640884928    -1.232819928463     0.115093848726    12.000000000000
         C           -2.370662884928    -0.049861928463    -0.793469151274    12.000000000000
         C           -2.471617884928     1.279373071537    -0.055789151274    12.000000000000
         H           -1.991966884928    -1.264138928463     0.960059848726     1.007825032230
         H           -3.692827884928    -1.155265928463     0.517231848726     1.007825032230
         H           -2.602950884928    -2.180893928463    -0.416473151274     1.007825032230
         H           -3.057933884928    -0.050249928463    -1.642068151274     1.007825032230
         H           -1.367141884928    -0.162673928463    -1.208851151274     1.007825032230
         H           -2.245236884928     2.121699071537    -0.709265151274     1.007825032230
         H           -3.476864884928     1.423299071537     0.343079848726     1.007825032230
         H           -1.774805884928     1.310493071537     0.783292848726     1.007825032230
      Gh(C)           2.681339295072    -1.232990548463    -0.115098391274    12.000000000000
      Gh(C)           2.370803295072    -0.049949548463     0.793508608726    12.000000000000
      Gh(C)           2.471790295072     1.279240451537     0.055755608726    12.000000000000
      Gh(H)           1.991425295072    -1.264260548463    -0.959876391274     1.007825032230
      Gh(H)           3.692425295072    -1.155599548463    -0.517520391274     1.007825032230
      Gh(H)           2.602643295072    -2.181027548463     0.416532608726     1.007825032230
      Gh(H)           3.058291295072    -0.050418548463     1.641931608726     1.007825032230
      Gh(H)           1.367366295072    -0.162573548463     1.209153608726     1.007825032230
      Gh(H)           2.245775295072     2.121624451537     0.709283608726     1.007825032230
      Gh(H)           3.476942295072     1.422969451537    -0.343424391274     1.007825032230
      Gh(H)           1.774726295072     1.310465451537    -0.783103391274     1.007825032230

  Running in c1 symmetry.

  Rotational constants: A =      0.12671  B =      0.02829  C =      0.02483 [cm^-1]
  Rotational constants: A =   3798.72565  B =    848.18746  C =    744.53305 [MHz]
  Nuclear repulsion =   82.817219279052694

  Charge       = 0
  Multiplicity = 1
  Electrons    = 26
  Nalpha       = 13
  Nbeta        = 13

  ==> Algorithm <==

  SCF Algorithm Type is DF.
  DIIS enabled.
  MOM disabled.
  Fractional occupation disabled.
  Guess Type is SAD.
  Energy threshold   = 1.00e-08
  Density threshold  = 1.00e-08
  Integral threshold = 0.00e+00

  ==> Primary Basis <==

  Basis Set: JUN-CC-PVTZ
    Blend: JUN-CC-PVTZ
    Number of shells: 174
    Number of basis function: 458
    Number of Cartesian functions: 510
    Spherical Harmonics?: true
    Max angular momentum: 3

   => Loading Basis Set <=

    Name: (JUN-CC-PVTZ AUX)
    Role: JKFIT
    Keyword: DF_BASIS_SCF
    atoms 1-3, 12-14  entry C          line   152 file /home/r08543048/miniconda3/share/psi4/basis/jun-cc-pvtz-jkfit.gbs 
    atoms 4-11, 15-22 entry H          line    70 file /home/r08543048/miniconda3/share/psi4/basis/jun-cc-pvtz-jkfit.gbs 

  ==> Pre-Iterations <==

   -------------------------------------------------------
    Irrep   Nso     Nmo     Nalpha   Nbeta   Ndocc  Nsocc
   -------------------------------------------------------
     A        458     458       0       0       0       0
   -------------------------------------------------------
    Total     458     458      13      13      13       0
   -------------------------------------------------------

  ==> Integral Setup <==

  ==> DiskDFJK: Density-Fitted J/K Matrices <==

    J tasked:                  Yes
    K tasked:                  Yes
    wK tasked:                  No
    OpenMP threads:              1
    Integrals threads:           1
    Memory [MiB]:            15735
    Algorithm:                Core
    Integral Cache:           LOAD
    Schwarz Cutoff:          1E-12
    Fitting Condition:       1E-10

   => Auxiliary Basis Set <=

  Basis Set: (JUN-CC-PVTZ AUX)
    Blend: JUN-CC-PVTZ-JKFIT
    Number of shells: 334
    Number of basis function: 1050
    Number of Cartesian functions: 1256
    Spherical Harmonics?: true
    Max angular momentum: 4

  Minimum eigenvalue in the overlap matrix is 9.6832197247E-05.
  Using Symmetric Orthogonalization.

  SCF Guess: Superposition of Atomic Densities via on-the-fly atomic UHF.

  ==> Iterations <==

                           Total Energy        Delta E     RMS |[F,P]|

   @DF-RHF iter SAD:  -117.72589357938132   -1.17726e+02   0.00000e+00 
   @DF-RHF iter   1:  -118.14637619855795   -4.20483e-01   1.12527e-03 DIIS
   @DF-RHF iter   2:  -118.27575762286214   -1.29381e-01   5.32294e-04 DIIS
   @DF-RHF iter   3:  -118.30616640484578   -3.04088e-02   8.94460e-05 DIIS
   @DF-RHF iter   4:  -118.30801798562904   -1.85158e-03   1.76476e-05 DIIS
   @DF-RHF iter   5:  -118.30807630582213   -5.83202e-05   4.95903e-06 DIIS
   @DF-RHF iter   6:  -118.30808092259628   -4.61677e-06   8.90166e-07 DIIS
   @DF-RHF iter   7:  -118.30808109380256   -1.71206e-07   1.67866e-07 DIIS
   @DF-RHF iter   8:  -118.30808110130155   -7.49900e-09   2.94395e-08 DIIS
   @DF-RHF iter   9:  -118.30808110153679   -2.35232e-10   5.81204e-09 DIIS
  Energy and wave function converged.


  ==> Post-Iterations <==

    Orbital Energies [Eh]
    ---------------------

    Doubly Occupied:                                                      

       1A    -11.215580     2A    -11.207860     3A    -11.207815  
       4A     -1.054043     5A     -0.924838     6A     -0.799825  
       7A     -0.624737     8A     -0.598265     9A     -0.549394  
      10A     -0.530203    11A     -0.475536    12A     -0.474963  
      13A     -0.467988  

    Virtual:                                                              

      14A      0.032761    15A      0.046343    16A      0.051710  
      17A      0.058690    18A      0.065220    19A      0.069921  
      20A      0.076523    21A      0.087203    22A      0.091641  
      23A      0.102412    24A      0.104359    25A      0.105325  
      26A      0.111827    27A      0.112620    28A      0.116207  
      29A      0.133015    30A      0.139507    31A      0.145502  
      32A      0.149865    33A      0.153390    34A      0.157493  
      35A      0.171362    36A      0.190391    37A      0.199308  
      38A      0.219743    39A      0.231666    40A      0.257721  
      41A      0.260484    42A      0.265641    43A      0.274582  
      44A      0.281158    45A      0.282342    46A      0.288867  
      47A      0.290044    48A      0.305679    49A      0.308712  
      50A      0.321291    51A      0.323032    52A      0.327708  
      53A      0.330294    54A      0.334144    55A      0.344045  
      56A      0.349775    57A      0.351167    58A      0.354037  
      59A      0.363627    60A      0.369199    61A      0.370332  
      62A      0.374205    63A      0.384979    64A      0.391389  
      65A      0.394107    66A      0.407585    67A      0.420930  
      68A      0.426059    69A      0.430167    70A      0.433075  
      71A      0.443198    72A      0.449077    73A      0.457257  
      74A      0.472573    75A      0.488337    76A      0.498643  
      77A      0.502723    78A      0.515311    79A      0.517366  
      80A      0.520854    81A      0.530035    82A      0.543545  
      83A      0.547316    84A      0.558248    85A      0.567839  
      86A      0.572150    87A      0.586758    88A      0.599240  
      89A      0.610805    90A      0.622931    91A      0.626532  
      92A      0.638742    93A      0.649463    94A      0.655906  
      95A      0.675505    96A      0.680814    97A      0.683804  
      98A      0.696666    99A      0.716491   100A      0.738924  
     101A      0.753101   102A      0.765726   103A      0.775947  
     104A      0.779943   105A      0.792366   106A      0.800701  
     107A      0.807062   108A      0.809873   109A      0.819635  
     110A      0.872684   111A      0.877549   112A      0.879039  
     113A      0.894291   114A      0.897740   115A      0.936795  
     116A      0.966355   117A      0.977241   118A      0.984307  
     119A      0.993743   120A      1.009212   121A      1.036509  
     122A      1.052280   123A      1.083525   124A      1.084518  
     125A      1.093933   126A      1.104125   127A      1.118263  
     128A      1.136370   129A      1.153207   130A      1.159472  
     131A      1.163704   132A      1.175633   133A      1.181738  
     134A      1.202957   135A      1.210719   136A      1.218377  
     137A      1.222458   138A      1.226581   139A      1.242357  
     140A      1.264712   141A      1.268946   142A      1.280829  
     143A      1.283780   144A      1.303452   145A      1.317573  
     146A      1.324889   147A      1.337050   148A      1.341449  
     149A      1.342674   150A      1.366072   151A      1.368518  
     152A      1.372852   153A      1.373811   154A      1.382849  
     155A      1.397392   156A      1.402539   157A      1.410713  
     158A      1.416481   159A      1.430894   160A      1.443021  
     161A      1.446053   162A      1.460763   163A      1.476195  
     164A      1.491392   165A      1.517703   166A      1.525515  
     167A      1.531018   168A      1.543073   169A      1.547545  
     170A      1.561705   171A      1.571459   172A      1.574689  
     173A      1.586680   174A      1.590644   175A      1.593029  
     176A      1.615808   177A      1.616960   178A      1.621992  
     179A      1.652148   180A      1.658572   181A      1.684872  
     182A      1.692260   183A      1.702495   184A      1.706756  
     185A      1.715882   186A      1.746651   187A      1.803144  
     188A      1.818083   189A      1.822582   190A      1.829457  
     191A      1.844559   192A      1.868086   193A      1.869689  
     194A      1.900023   195A      1.918416   196A      1.929920  
     197A      1.946062   198A      1.963899   199A      1.989558  
     200A      2.024518   201A      2.063679   202A      2.073086  
     203A      2.111196   204A      2.145544   205A      2.158493  
     206A      2.189677   207A      2.328175   208A      2.356100  
     209A      2.369546   210A      2.401735   211A      2.448827  
     212A      2.478222   213A      2.542491   214A      2.589364  
     215A      2.590334   216A      2.728989   217A      2.737881  
     218A      2.747781   219A      2.785718   220A      2.815516  
     221A      2.822534   222A      2.891493   223A      2.917179  
     224A      2.922912   225A      2.938304   226A      2.941511  
     227A      3.018305   228A      3.072658   229A      3.086405  
     230A      3.121504   231A      3.141321   232A      3.147196  
     233A      3.174538   234A      3.239718   235A      3.248027  
     236A      3.276383   237A      3.298207   238A      3.316675  
     239A      3.363776   240A      3.365348   241A      3.382575  
     242A      3.415671   243A      3.422158   244A      3.428111  
     245A      3.434754   246A      3.468548   247A      3.475304  
     248A      3.482192   249A      3.502451   250A      3.503319  
     251A      3.523138   252A      3.528437   253A      3.531264  
     254A      3.541426   255A      3.554644   256A      3.562522  
     257A      3.574339   258A      3.576429   259A      3.590593  
     260A      3.595756   261A      3.602638   262A      3.613410  
     263A      3.625140   264A      3.648773   265A      3.698317  
     266A      3.709372   267A      3.713894   268A      3.725896  
     269A      3.732875   270A      3.746812   271A      3.773798  
     272A      3.776491   273A      3.789862   274A      3.804358  
     275A      3.807468   276A      3.812048   277A      3.819913  
     278A      3.841810   279A      3.863669   280A      3.883146  
     281A      3.889650   282A      3.905551   283A      3.924789  
     284A      3.931335   285A      3.935099   286A      3.941583  
     287A      3.949840   288A      3.957472   289A      3.965208  
     290A      4.002971   291A      4.044104   292A      4.070363  
     293A      4.072994   294A      4.108344   295A      4.121473  
     296A      4.155709   297A      4.165443   298A      4.182721  
     299A      4.183213   300A      4.198518   301A      4.199567  
     302A      4.209184   303A      4.215489   304A      4.222729  
     305A      4.291701   306A      4.301098   307A      4.309854  
     308A      4.323526   309A      4.330365   310A      4.335700  
     311A      4.344263   312A      4.355315   313A      4.359358  
     314A      4.367630   315A      4.395292   316A      4.398703  
     317A      4.417846   318A      4.428832   319A      4.437633  
     320A      4.448730   321A      4.457517   322A      4.489646  
     323A      4.498457   324A      4.499411   325A      4.504512  
     326A      4.513802   327A      4.518590   328A      4.529576  
     329A      4.537231   330A      4.546029   331A      4.546939  
     332A      4.583088   333A      4.590918   334A      4.604191  
     335A      4.609653   336A      4.630083   337A      4.641573  
     338A      4.665640   339A      4.678397   340A      4.682232  
     341A      4.692318   342A      4.705445   343A      4.707653  
     344A      4.723598   345A      4.745086   346A      4.774015  
     347A      4.779797   348A      4.795335   349A      4.797551  
     350A      4.801197   351A      4.805613   352A      4.811033  
     353A      4.812388   354A      4.824850   355A      4.839728  
     356A      4.845957   357A      4.868212   358A      4.885853  
     359A      4.892461   360A      4.898237   361A      4.919744  
     362A      4.923864   363A      4.957656   364A      4.957882  
     365A      4.976988   366A      4.978647   367A      4.981311  
     368A      5.005688   369A      5.018780   370A      5.021682  
     371A      5.038580   372A      5.118033   373A      5.120809  
     374A      5.126729   375A      5.133743   376A      5.148456  
     377A      5.159525   378A      5.196414   379A      5.207002  
     380A      5.248911   381A      5.259220   382A      5.273177  
     383A      5.275067   384A      5.289814   385A      5.315968  
     386A      5.358774   387A      5.386185   388A      5.394920  
     389A      5.398204   390A      5.455414   391A      5.462945  
     392A      5.510576   393A      5.571498   394A      5.578733  
     395A      5.599138   396A      5.604914   397A      5.610234  
     398A      5.619954   399A      5.621800   400A      5.718054  
     401A      5.743648   402A      5.747955   403A      5.771748  
     404A      5.777552   405A      5.794193   406A      5.810831  
     407A      5.824789   408A      5.891876   409A      5.916264  
     410A      5.922039   411A      5.939556   412A      5.947673  
     413A      5.972335   414A      6.010397   415A      6.024870  
     416A      6.080982   417A      6.170045   418A      6.181844  
     419A      6.251258   420A      6.327460   421A      6.331725  
     422A      6.364846   423A      6.411038   424A      6.418137  
     425A      6.454725   426A      6.462887   427A      6.486479  
     428A      6.504634   429A      6.506018   430A      6.546287  
     431A      6.562675   432A      6.603070   433A      6.754780  
     434A      6.896776   435A      6.972725   436A      7.297233  
     437A      7.470481   438A      7.545137   439A      7.586719  
     440A      7.600665   441A      7.671166   442A      7.686615  
     443A      7.792147   444A      7.821986   445A      7.852370  
     446A      7.901561   447A      8.024404   448A      8.171742  
     449A      8.462117   450A      9.535378   451A      9.831561  
     452A      9.878904   453A     13.760677   454A     14.331094  
     455A     14.581919   456A     44.133935   457A     45.149292  
     458A     45.638228  

    Final Occupation by Irrep:
              A 
    DOCC [    13 ]

  @DF-RHF Final Energy:  -118.30808110153679

   => Energetics <=

    Nuclear Repulsion Energy =             82.8172192790526935
    One-Electron Energy =                -321.9885081890878951
    Two-Electron Energy =                 120.8632078084984158
    Total Energy =                       -118.3080811015367857

Computation Completed


Properties will be evaluated at   0.000000,   0.000000,   0.000000 [a0]

Properties computed using the SCF density matrix

  Nuclear Dipole Moment: [e a0]
     X:  -123.4998      Y:     0.0424      Z:   -10.9188

  Electronic Dipole Moment: [e a0]
     X:   123.5079      Y:    -0.0452      Z:    10.8871

  Dipole Moment: [e a0]
     X:     0.0081      Y:    -0.0028      Z:    -0.0317     Total:     0.0328

  Dipole Moment: [D]
     X:     0.0207      Y:    -0.0071      Z:    -0.0806     Total:     0.0835


*** tstop() called on r282 at Wed Sep 15 07:04:26 2021
Module time:
	user time   =      17.54 seconds =       0.29 minutes
	system time =       0.47 seconds =       0.01 minutes
	total time  =         18 seconds =       0.30 minutes
Total time:
	user time   =      51.82 seconds =       0.86 minutes
	system time =       1.44 seconds =       0.02 minutes
	total time  =         53 seconds =       0.88 minutes

  //>>>>>>>>>>>>>>>>>>>>>>>>>>>>>>>>>>>//
  //            Monomer B HF           //
  //<<<<<<<<<<<<<<<<<<<<<<<<<<<<<<<<<<<//


*** tstart() called on r282
*** at Wed Sep 15 07:04:26 2021

   => Loading Basis Set <=

    Name: JUN-CC-PVTZ
    Role: ORBITAL
    Keyword: BASIS
    atoms 1-3, 12-14  entry C          line   217 file /home/r08543048/miniconda3/share/psi4/basis/jun-cc-pvtz.gbs 
    atoms 4-11, 15-22 entry H          line    36 file /home/r08543048/miniconda3/share/psi4/basis/jun-cc-pvtz.gbs 


         ---------------------------------------------------------
                                   SCF
               by Justin Turney, Rob Parrish, Andy Simmonett
                          and Daniel G. A. Smith
                              RHF Reference
                        1 Threads,  20980 MiB Core
         ---------------------------------------------------------

  ==> Geometry <==

    Molecular point group: c1
    Full point group: C1

    Geometry (in Angstrom), charge = 0, multiplicity = 1:

       Center              X                  Y                   Z               Mass       
    ------------   -----------------  -----------------  -----------------  -----------------
      Gh(C)          -2.681640884928    -1.232819928463     0.115093848726    12.000000000000
      Gh(C)          -2.370662884928    -0.049861928463    -0.793469151274    12.000000000000
      Gh(C)          -2.471617884928     1.279373071537    -0.055789151274    12.000000000000
      Gh(H)          -1.991966884928    -1.264138928463     0.960059848726     1.007825032230
      Gh(H)          -3.692827884928    -1.155265928463     0.517231848726     1.007825032230
      Gh(H)          -2.602950884928    -2.180893928463    -0.416473151274     1.007825032230
      Gh(H)          -3.057933884928    -0.050249928463    -1.642068151274     1.007825032230
      Gh(H)          -1.367141884928    -0.162673928463    -1.208851151274     1.007825032230
      Gh(H)          -2.245236884928     2.121699071537    -0.709265151274     1.007825032230
      Gh(H)          -3.476864884928     1.423299071537     0.343079848726     1.007825032230
      Gh(H)          -1.774805884928     1.310493071537     0.783292848726     1.007825032230
         C            2.681339295072    -1.232990548463    -0.115098391274    12.000000000000
         C            2.370803295072    -0.049949548463     0.793508608726    12.000000000000
         C            2.471790295072     1.279240451537     0.055755608726    12.000000000000
         H            1.991425295072    -1.264260548463    -0.959876391274     1.007825032230
         H            3.692425295072    -1.155599548463    -0.517520391274     1.007825032230
         H            2.602643295072    -2.181027548463     0.416532608726     1.007825032230
         H            3.058291295072    -0.050418548463     1.641931608726     1.007825032230
         H            1.367366295072    -0.162573548463     1.209153608726     1.007825032230
         H            2.245775295072     2.121624451537     0.709283608726     1.007825032230
         H            3.476942295072     1.422969451537    -0.343424391274     1.007825032230
         H            1.774726295072     1.310465451537    -0.783103391274     1.007825032230

  Running in c1 symmetry.

  Rotational constants: A =      0.12671  B =      0.02829  C =      0.02483 [cm^-1]
  Rotational constants: A =   3798.72565  B =    848.18746  C =    744.53305 [MHz]
  Nuclear repulsion =   82.817242756398969

  Charge       = 0
  Multiplicity = 1
  Electrons    = 26
  Nalpha       = 13
  Nbeta        = 13

  ==> Algorithm <==

  SCF Algorithm Type is DF.
  DIIS enabled.
  MOM disabled.
  Fractional occupation disabled.
  Guess Type is SAD.
  Energy threshold   = 1.00e-08
  Density threshold  = 1.00e-08
  Integral threshold = 0.00e+00

  ==> Primary Basis <==

  Basis Set: JUN-CC-PVTZ
    Blend: JUN-CC-PVTZ
    Number of shells: 174
    Number of basis function: 458
    Number of Cartesian functions: 510
    Spherical Harmonics?: true
    Max angular momentum: 3

   => Loading Basis Set <=

    Name: (JUN-CC-PVTZ AUX)
    Role: JKFIT
    Keyword: DF_BASIS_SCF
    atoms 1-3, 12-14  entry C          line   152 file /home/r08543048/miniconda3/share/psi4/basis/jun-cc-pvtz-jkfit.gbs 
    atoms 4-11, 15-22 entry H          line    70 file /home/r08543048/miniconda3/share/psi4/basis/jun-cc-pvtz-jkfit.gbs 

  ==> Pre-Iterations <==

   -------------------------------------------------------
    Irrep   Nso     Nmo     Nalpha   Nbeta   Ndocc  Nsocc
   -------------------------------------------------------
     A        458     458       0       0       0       0
   -------------------------------------------------------
    Total     458     458      13      13      13       0
   -------------------------------------------------------

  ==> Integral Setup <==

  ==> DiskDFJK: Density-Fitted J/K Matrices <==

    J tasked:                  Yes
    K tasked:                  Yes
    wK tasked:                  No
    OpenMP threads:              1
    Integrals threads:           1
    Memory [MiB]:            15735
    Algorithm:                Core
    Integral Cache:           LOAD
    Schwarz Cutoff:          1E-12
    Fitting Condition:       1E-10

   => Auxiliary Basis Set <=

  Basis Set: (JUN-CC-PVTZ AUX)
    Blend: JUN-CC-PVTZ-JKFIT
    Number of shells: 334
    Number of basis function: 1050
    Number of Cartesian functions: 1256
    Spherical Harmonics?: true
    Max angular momentum: 4

  Minimum eigenvalue in the overlap matrix is 9.6832197247E-05.
  Using Symmetric Orthogonalization.

  SCF Guess: Superposition of Atomic Densities via on-the-fly atomic UHF.

  ==> Iterations <==

                           Total Energy        Delta E     RMS |[F,P]|

   @DF-RHF iter SAD:  -117.72589548971638   -1.17726e+02   0.00000e+00 
   @DF-RHF iter   1:  -118.14637587274973   -4.20480e-01   1.12528e-03 DIIS
   @DF-RHF iter   2:  -118.27575750244139   -1.29382e-01   5.32295e-04 DIIS
   @DF-RHF iter   3:  -118.30616641884438   -3.04089e-02   8.94461e-05 DIIS
   @DF-RHF iter   4:  -118.30801800172694   -1.85158e-03   1.76476e-05 DIIS
   @DF-RHF iter   5:  -118.30807632198017   -5.83203e-05   4.95903e-06 DIIS
   @DF-RHF iter   6:  -118.30808093874479   -4.61676e-06   8.90169e-07 DIIS
   @DF-RHF iter   7:  -118.30808110995369   -1.71209e-07   1.67866e-07 DIIS
   @DF-RHF iter   8:  -118.30808111745071   -7.49702e-09   2.94394e-08 DIIS
   @DF-RHF iter   9:  -118.30808111768559   -2.34877e-10   5.81200e-09 DIIS
  Energy and wave function converged.


  ==> Post-Iterations <==

    Orbital Energies [Eh]
    ---------------------

    Doubly Occupied:                                                      

       1A    -11.215580     2A    -11.207859     3A    -11.207815  
       4A     -1.054044     5A     -0.924838     6A     -0.799825  
       7A     -0.624737     8A     -0.598265     9A     -0.549395  
      10A     -0.530203    11A     -0.475537    12A     -0.474961  
      13A     -0.467988  

    Virtual:                                                              

      14A      0.032762    15A      0.046343    16A      0.051710  
      17A      0.058690    18A      0.065220    19A      0.069920  
      20A      0.076522    21A      0.087203    22A      0.091641  
      23A      0.102411    24A      0.104359    25A      0.105326  
      26A      0.111829    27A      0.112619    28A      0.116208  
      29A      0.133015    30A      0.139507    31A      0.145498  
      32A      0.149865    33A      0.153393    34A      0.157495  
      35A      0.171365    36A      0.190391    37A      0.199309  
      38A      0.219736    39A      0.231669    40A      0.257723  
      41A      0.260491    42A      0.265641    43A      0.274578  
      44A      0.281151    45A      0.282344    46A      0.288868  
      47A      0.290044    48A      0.305682    49A      0.308720  
      50A      0.321290    51A      0.323027    52A      0.327707  
      53A      0.330293    54A      0.334136    55A      0.344043  
      56A      0.349777    57A      0.351172    58A      0.354039  
      59A      0.363615    60A      0.369194    61A      0.370338  
      62A      0.374197    63A      0.384975    64A      0.391390  
      65A      0.394111    66A      0.407591    67A      0.420933  
      68A      0.426053    69A      0.430173    70A      0.433072  
      71A      0.443193    72A      0.449074    73A      0.457261  
      74A      0.472575    75A      0.488346    76A      0.498662  
      77A      0.502726    78A      0.515304    79A      0.517367  
      80A      0.520850    81A      0.530037    82A      0.543549  
      83A      0.547308    84A      0.558251    85A      0.567840  
      86A      0.572158    87A      0.586760    88A      0.599244  
      89A      0.610802    90A      0.622927    91A      0.626527  
      92A      0.638750    93A      0.649466    94A      0.655907  
      95A      0.675492    96A      0.680816    97A      0.683801  
      98A      0.696659    99A      0.716487   100A      0.738925  
     101A      0.753095   102A      0.765728   103A      0.775948  
     104A      0.779939   105A      0.792371   106A      0.800703  
     107A      0.807052   108A      0.809858   109A      0.819633  
     110A      0.872688   111A      0.877552   112A      0.879037  
     113A      0.894295   114A      0.897735   115A      0.936807  
     116A      0.966352   117A      0.977244   118A      0.984310  
     119A      0.993732   120A      1.009217   121A      1.036522  
     122A      1.052282   123A      1.083513   124A      1.084509  
     125A      1.093945   126A      1.104134   127A      1.118264  
     128A      1.136377   129A      1.153205   130A      1.159487  
     131A      1.163701   132A      1.175624   133A      1.181742  
     134A      1.202961   135A      1.210710   136A      1.218380  
     137A      1.222468   138A      1.226565   139A      1.242326  
     140A      1.264724   141A      1.268937   142A      1.280843  
     143A      1.283783   144A      1.303450   145A      1.317586  
     146A      1.324892   147A      1.337050   148A      1.341452  
     149A      1.342666   150A      1.366069   151A      1.368515  
     152A      1.372839   153A      1.373804   154A      1.382844  
     155A      1.397385   156A      1.402547   157A      1.410720  
     158A      1.416500   159A      1.430884   160A      1.443028  
     161A      1.446065   162A      1.460762   163A      1.476198  
     164A      1.491392   165A      1.517706   166A      1.525516  
     167A      1.531015   168A      1.543063   169A      1.547550  
     170A      1.561682   171A      1.571467   172A      1.574694  
     173A      1.586686   174A      1.590643   175A      1.593030  
     176A      1.615816   177A      1.616967   178A      1.622008  
     179A      1.652122   180A      1.658571   181A      1.684872  
     182A      1.692254   183A      1.702516   184A      1.706750  
     185A      1.715865   186A      1.746643   187A      1.803150  
     188A      1.818077   189A      1.822580   190A      1.829469  
     191A      1.844559   192A      1.868078   193A      1.869689  
     194A      1.900015   195A      1.918414   196A      1.929913  
     197A      1.946068   198A      1.963888   199A      1.989560  
     200A      2.024518   201A      2.063688   202A      2.073061  
     203A      2.111205   204A      2.145548   205A      2.158495  
     206A      2.189680   207A      2.328177   208A      2.356103  
     209A      2.369548   210A      2.401731   211A      2.448831  
     212A      2.478220   213A      2.542505   214A      2.589363  
     215A      2.590333   216A      2.728996   217A      2.737880  
     218A      2.747776   219A      2.785727   220A      2.815507  
     221A      2.822530   222A      2.891496   223A      2.917172  
     224A      2.922914   225A      2.938306   226A      2.941513  
     227A      3.018309   228A      3.072653   229A      3.086403  
     230A      3.121506   231A      3.141325   232A      3.147198  
     233A      3.174546   234A      3.239720   235A      3.248025  
     236A      3.276379   237A      3.298204   238A      3.316672  
     239A      3.363779   240A      3.365349   241A      3.382575  
     242A      3.415673   243A      3.422152   244A      3.428105  
     245A      3.434767   246A      3.468552   247A      3.475303  
     248A      3.482190   249A      3.502448   250A      3.503311  
     251A      3.523140   252A      3.528441   253A      3.531263  
     254A      3.541428   255A      3.554642   256A      3.562526  
     257A      3.574344   258A      3.576426   259A      3.590594  
     260A      3.595753   261A      3.602638   262A      3.613413  
     263A      3.625141   264A      3.648776   265A      3.698314  
     266A      3.709377   267A      3.713896   268A      3.725893  
     269A      3.732869   270A      3.746813   271A      3.773799  
     272A      3.776493   273A      3.789857   274A      3.804359  
     275A      3.807473   276A      3.812062   277A      3.819913  
     278A      3.841802   279A      3.863668   280A      3.883148  
     281A      3.889649   282A      3.905553   283A      3.924791  
     284A      3.931330   285A      3.935099   286A      3.941579  
     287A      3.949831   288A      3.957476   289A      3.965205  
     290A      4.002967   291A      4.044104   292A      4.070361  
     293A      4.073000   294A      4.108339   295A      4.121472  
     296A      4.155704   297A      4.165452   298A      4.182718  
     299A      4.183213   300A      4.198514   301A      4.199562  
     302A      4.209185   303A      4.215492   304A      4.222728  
     305A      4.291698   306A      4.301104   307A      4.309853  
     308A      4.323534   309A      4.330350   310A      4.335702  
     311A      4.344262   312A      4.355312   313A      4.359353  
     314A      4.367627   315A      4.395296   316A      4.398708  
     317A      4.417838   318A      4.428830   319A      4.437633  
     320A      4.448723   321A      4.457502   322A      4.489641  
     323A      4.498460   324A      4.499411   325A      4.504506  
     326A      4.513810   327A      4.518585   328A      4.529570  
     329A      4.537241   330A      4.546031   331A      4.546933  
     332A      4.583087   333A      4.590925   334A      4.604192  
     335A      4.609653   336A      4.630076   337A      4.641574  
     338A      4.665641   339A      4.678398   340A      4.682229  
     341A      4.692313   342A      4.705443   343A      4.707654  
     344A      4.723608   345A      4.745085   346A      4.774009  
     347A      4.779802   348A      4.795331   349A      4.797552  
     350A      4.801205   351A      4.805623   352A      4.811039  
     353A      4.812381   354A      4.824848   355A      4.839731  
     356A      4.845962   357A      4.868209   358A      4.885858  
     359A      4.892465   360A      4.898237   361A      4.919743  
     362A      4.923857   363A      4.957657   364A      4.957885  
     365A      4.976995   366A      4.978642   367A      4.981313  
     368A      5.005687   369A      5.018774   370A      5.021684  
     371A      5.038585   372A      5.118033   373A      5.120812  
     374A      5.126728   375A      5.133751   376A      5.148461  
     377A      5.159529   378A      5.196418   379A      5.207009  
     380A      5.248910   381A      5.259212   382A      5.273165  
     383A      5.275065   384A      5.289815   385A      5.315969  
     386A      5.358779   387A      5.386178   388A      5.394924  
     389A      5.398200   390A      5.455419   391A      5.462940  
     392A      5.510582   393A      5.571501   394A      5.578740  
     395A      5.599143   396A      5.604920   397A      5.610219  
     398A      5.619956   399A      5.621793   400A      5.718058  
     401A      5.743652   402A      5.747945   403A      5.771750  
     404A      5.777554   405A      5.794198   406A      5.810833  
     407A      5.824803   408A      5.891880   409A      5.916256  
     410A      5.922037   411A      5.939561   412A      5.947675  
     413A      5.972332   414A      6.010395   415A      6.024869  
     416A      6.080980   417A      6.170038   418A      6.181844  
     419A      6.251239   420A      6.327466   421A      6.331722  
     422A      6.364842   423A      6.411038   424A      6.418138  
     425A      6.454733   426A      6.462892   427A      6.486479  
     428A      6.504636   429A      6.506017   430A      6.546286  
     431A      6.562671   432A      6.603062   433A      6.754784  
     434A      6.896775   435A      6.972740   436A      7.297227  
     437A      7.470483   438A      7.545143   439A      7.586720  
     440A      7.600661   441A      7.671166   442A      7.686612  
     443A      7.792154   444A      7.821980   445A      7.852368  
     446A      7.901556   447A      8.024406   448A      8.171745  
     449A      8.462113   450A      9.535394   451A      9.831568  
     452A      9.878890   453A     13.760610   454A     14.331092  
     455A     14.581959   456A     44.134066   457A     45.149283  
     458A     45.638158  

    Final Occupation by Irrep:
              A 
    DOCC [    13 ]

  @DF-RHF Final Energy:  -118.30808111768559

   => Energetics <=

    Nuclear Repulsion Energy =             82.8172427563989686
    One-Electron Energy =                -321.9885558570666717
    Two-Electron Energy =                 120.8632319829821142
    Total Energy =                       -118.3080811176855889

Computation Completed


Properties will be evaluated at   0.000000,   0.000000,   0.000000 [a0]

Properties computed using the SCF density matrix

  Nuclear Dipole Moment: [e a0]
     X:   123.4996      Y:     0.0359      Z:    10.9188

  Electronic Dipole Moment: [e a0]
     X:  -123.5078      Y:    -0.0387      Z:   -10.8871

  Dipole Moment: [e a0]
     X:    -0.0081      Y:    -0.0028      Z:     0.0317     Total:     0.0328

  Dipole Moment: [D]
     X:    -0.0207      Y:    -0.0071      Z:     0.0806     Total:     0.0835


*** tstop() called on r282 at Wed Sep 15 07:04:46 2021
Module time:
	user time   =      19.05 seconds =       0.32 minutes
	system time =       0.45 seconds =       0.01 minutes
	total time  =         20 seconds =       0.33 minutes
Total time:
	user time   =      70.88 seconds =       1.18 minutes
	system time =       1.89 seconds =       0.03 minutes
	total time  =         73 seconds =       1.22 minutes
  Constructing Basis Sets for SAPT...

   => Loading Basis Set <=

    Name: (JUN-CC-PVTZ AUX)
    Role: RIFIT
    Keyword: DF_BASIS_SAPT
    atoms 1-3, 12-14  entry C          line   132 file /home/r08543048/miniconda3/share/psi4/basis/jun-cc-pvtz-ri.gbs 
    atoms 4-11, 15-22 entry H          line    30 file /home/r08543048/miniconda3/share/psi4/basis/jun-cc-pvtz-ri.gbs 


  //>>>>>>>>>>>>>>>>>>>>>>>>>>>>>>>>>>>//
  //               SAPT0               //
  //<<<<<<<<<<<<<<<<<<<<<<<<<<<<<<<<<<<//


*** tstart() called on r282
*** at Wed Sep 15 07:04:46 2021

        SAPT0  
    Ed Hohenstein
     6 June 2009

      Orbital Information
  --------------------------
    NSO        =       458
    NMO        =       458
    NRI        =      1062
    NOCC A     =        13
    NOCC B     =        13
    FOCC A     =         0
    FOCC B     =         0
    NVIR A     =       445
    NVIR B     =       445

    Elst10,r            =    -0.000003089333 [Eh]
    Exch10              =     0.000088997355 [Eh]
    Exch10 (S^2)        =     0.000088994033 [Eh]

    Iter     Energy [mEh]          dE [mEh]         Residual      Time [s]
       1      -0.00388916       0.003889164       0.216542314             1
       2      -0.00454626       0.000657099       0.055183702             2
       3      -0.00456311       0.000016848       0.015414585             2
       4      -0.00454830      -0.000014810       0.004235343             3
       5      -0.00454783      -0.000000471       0.000993470             4
       6      -0.00454868       0.000000853       0.000158908             4
       7      -0.00454861      -0.000000075       0.000035955             5
       8      -0.00454861      -0.000000002       0.000010209             6
       9      -0.00454861       0.000000003       0.000002242             7
      10      -0.00454861       0.000000000       0.000000454             7

    CHF Iterations converged


    Iter     Energy [mEh]          dE [mEh]         Residual      Time [s]
       1      -0.00388811       0.003888107       0.216498099             1
       2      -0.00454491       0.000656802       0.055169213             2
       3      -0.00456176       0.000016854       0.015408517             2
       4      -0.00454696      -0.000014801       0.004234928             3
       5      -0.00454649      -0.000000472       0.000993101             4
       6      -0.00454734       0.000000853       0.000158853             5
       7      -0.00454727      -0.000000075       0.000035930             5
       8      -0.00454727      -0.000000002       0.000010200             6
       9      -0.00454727       0.000000003       0.000002241             7
      10      -0.00454727       0.000000000       0.000000454             8

    CHF Iterations converged

    Ind20,r (A<-B)      =    -0.000004548609 [Eh]
    Ind20,r (B<-A)      =    -0.000004547268 [Eh]
    Ind20,r             =    -0.000009095877 [Eh]
    Exch-Ind20,r (A<-B) =     0.000003321427 [Eh]
    Exch-Ind20,r (B<-A) =     0.000003320248 [Eh]
    Exch-Ind20,r        =     0.000006641675 [Eh]
    Disp20              =    -0.001120323233 [Eh]
    Disp20 (SS)         =    -0.000560161617 [Eh]
    Disp20 (OS)         =    -0.000560161617 [Eh]
    Exch-Disp20         =     0.000013305814 [Eh]
    Exch-Disp20 (SS)    =     0.000009413476 [Eh]
    Exch-Disp20 (OS)    =     0.000003892339 [Eh]

    SAPT Results 
  --------------------------------------------------------------------------------------------------------
    Electrostatics                 -0.00308933 [mEh]      -0.00193859 [kcal/mol]      -0.00811104 [kJ/mol]
      Elst10,r                     -0.00308933 [mEh]      -0.00193859 [kcal/mol]      -0.00811104 [kJ/mol]

    Exchange                        0.08899735 [mEh]       0.05584668 [kcal/mol]       0.23366252 [kJ/mol]
      Exch10                        0.08899735 [mEh]       0.05584668 [kcal/mol]       0.23366252 [kJ/mol]
      Exch10(S^2)                   0.08899403 [mEh]       0.05584460 [kcal/mol]       0.23365380 [kJ/mol]

    Induction                      -0.00845143 [mEh]      -0.00530335 [kcal/mol]      -0.02218922 [kJ/mol]
      Ind20,r                      -0.00909588 [mEh]      -0.00570775 [kcal/mol]      -0.02388122 [kJ/mol]
      Exch-Ind20,r                  0.00664167 [mEh]       0.00416771 [kcal/mol]       0.01743771 [kJ/mol]
      delta HF,r (2)               -0.00599723 [mEh]      -0.00376332 [kcal/mol]      -0.01574572 [kJ/mol]

    Dispersion                     -1.10701742 [mEh]      -0.69466392 [kcal/mol]      -2.90647383 [kJ/mol]
      Disp20                       -1.12032323 [mEh]      -0.70301344 [kcal/mol]      -2.94140824 [kJ/mol]
      Exch-Disp20                   0.01330581 [mEh]       0.00834952 [kcal/mol]       0.03493441 [kJ/mol]
      Disp20 (SS)                  -0.56016162 [mEh]      -0.35150672 [kcal/mol]      -1.47070412 [kJ/mol]
      Disp20 (OS)                  -0.56016162 [mEh]      -0.35150672 [kcal/mol]      -1.47070412 [kJ/mol]
      Exch-Disp20 (SS)              0.00941348 [mEh]       0.00590705 [kcal/mol]       0.02471508 [kJ/mol]
      Exch-Disp20 (OS)              0.00389234 [mEh]       0.00244248 [kcal/mol]       0.01021933 [kJ/mol]

  Total HF                          0.07745659 [mEh]       0.04860475 [kcal/mol]       0.20336225 [kJ/mol]
  Total SAPT0                      -1.02956083 [mEh]      -0.64605917 [kcal/mol]      -2.70311158 [kJ/mol]

  Special recipe for scaled SAPT0 (see Manual):
    Electrostatics sSAPT0          -0.00308933 [mEh]      -0.00193859 [kcal/mol]      -0.00811104 [kJ/mol]
    Exchange sSAPT0                 0.08899735 [mEh]       0.05584668 [kcal/mol]       0.23366252 [kJ/mol]
    Induction sSAPT0               -0.00845069 [mEh]      -0.00530289 [kcal/mol]      -0.02218727 [kJ/mol]
    Dispersion sSAPT0              -1.10701593 [mEh]      -0.69466298 [kcal/mol]      -2.90646992 [kJ/mol]
  Total sSAPT0                     -1.02955859 [mEh]      -0.64605777 [kcal/mol]      -2.70310571 [kJ/mol]
  --------------------------------------------------------------------------------------------------------

*** tstop() called on r282 at Wed Sep 15 07:06:01 2021
Module time:
	user time   =      64.29 seconds =       1.07 minutes
	system time =      10.75 seconds =       0.18 minutes
	total time  =         75 seconds =       1.25 minutes
Total time:
	user time   =     135.31 seconds =       2.26 minutes
	system time =      12.64 seconds =       0.21 minutes
	total time  =        148 seconds =       2.47 minutes

    Psi4 stopped on: Wednesday, 15 September 2021 07:06AM
    Psi4 wall time for execution: 0:02:28.18

*** Psi4 exiting successfully. Buy a developer a beer!
