
    -----------------------------------------------------------------------
          Psi4: An Open-Source Ab Initio Electronic Structure Package
                               Psi4 1.3.2 release

                         Git: Rev {HEAD} ecbda83 


    R. M. Parrish, L. A. Burns, D. G. A. Smith, A. C. Simmonett,
    A. E. DePrince III, E. G. Hohenstein, U. Bozkaya, A. Yu. Sokolov,
    R. Di Remigio, R. M. Richard, J. F. Gonthier, A. M. James,
    H. R. McAlexander, A. Kumar, M. Saitow, X. Wang, B. P. Pritchard,
    P. Verma, H. F. Schaefer III, K. Patkowski, R. A. King, E. F. Valeev,
    F. A. Evangelista, J. M. Turney, T. D. Crawford, and C. D. Sherrill,
    J. Chem. Theory Comput. 13(7) pp 3185--3197 (2017).
    (doi: 10.1021/acs.jctc.7b00174)


                         Additional Contributions by
    P. Kraus, H. Kruse, M. H. Lechner, M. C. Schieber, R. A. Shaw,
    A. Alenaizan, R. Galvelis, Z. L. Glick, S. Lehtola, and J. P. Misiewicz

    -----------------------------------------------------------------------


    Psi4 started on: Wednesday, 15 September 2021 07:45AM

    Process ID: 6156
    Host:       r282
    PSIDATADIR: /home/r08543048/miniconda3/share/psi4
    Memory:     500.0 MiB
    Threads:    1
    
  ==> Input File <==

--------------------------------------------------------------------------
# Any line starting with the # character is a comment line
#! Sample  computation

memory 22 gb

molecule Dimer {

0 1
 C                 -1.73334636   -1.23363371    0.43248967
 C                 -1.42236836   -0.05067571   -0.47607333
 C                 -1.52332336    1.27855929    0.26160667
 H                 -1.04367236   -1.26495271    1.27745567
 H                 -2.74453336   -1.15607971    0.83462767
 H                 -1.65465636   -2.18170771   -0.09907733
 H                 -2.10963936   -0.05106371   -1.32467233
 H                 -0.41884736   -0.16348771   -0.89145533
 H                 -1.29694236    2.12088529   -0.39186933
 H                 -2.52857036    1.42248529    0.66047567
 H                 -0.82651136    1.30967929    1.10068867
--
0 1
 C                  1.73304736   -1.23376929   -0.43249367
 C                  1.42251136   -0.05072829    0.47611333
 C                  1.52349836    1.27846171   -0.26163967
 H                  1.04313336   -1.26503929   -1.27727167
 H                  2.74413336   -1.15637829   -0.83491567
 H                  1.65435136   -2.18180629    0.09913733
 H                  2.10999936   -0.05119729    1.32453633
 H                  0.41907436   -0.16335229    0.89175833
 H                  1.29748336    2.12084571    0.39188833
 H                  2.52865036    1.42219071   -0.66081967
 H                  0.82643436    1.30968671   -1.10049867

units angstrom
no_reorient
symmetry c1
}

set globals{
  basis jun-cc-pvtz
}

energy('sapt0')
--------------------------------------------------------------------------

  Memory set to  20.489 GiB by Python driver.

  //>>>>>>>>>>>>>>>>>>>>>>>>>>>>>>>>>>>//
  //              Dimer HF             //
  //<<<<<<<<<<<<<<<<<<<<<<<<<<<<<<<<<<<//


*** tstart() called on r282
*** at Wed Sep 15 07:45:39 2021

   => Loading Basis Set <=

    Name: JUN-CC-PVTZ
    Role: ORBITAL
    Keyword: BASIS
    atoms 1-3, 12-14  entry C          line   217 file /home/r08543048/miniconda3/share/psi4/basis/jun-cc-pvtz.gbs 
    atoms 4-11, 15-22 entry H          line    36 file /home/r08543048/miniconda3/share/psi4/basis/jun-cc-pvtz.gbs 


         ---------------------------------------------------------
                                   SCF
               by Justin Turney, Rob Parrish, Andy Simmonett
                          and Daniel G. A. Smith
                              RHF Reference
                        1 Threads,  20980 MiB Core
         ---------------------------------------------------------

  ==> Geometry <==

    Molecular point group: c1
    Full point group: C1

    Geometry (in Angstrom), charge = 0, multiplicity = 1:

       Center              X                  Y                   Z               Mass       
    ------------   -----------------  -----------------  -----------------  -----------------
         C           -1.733347654928    -1.232837448463     0.432489398726    12.000000000000
         C           -1.422369654928    -0.049879448463    -0.476073601274    12.000000000000
         C           -1.523324654928     1.279355551537     0.261606398726    12.000000000000
         H           -1.043673654928    -1.264156448463     1.277455398726     1.007825032230
         H           -2.744534654928    -1.155283448463     0.834627398726     1.007825032230
         H           -1.654657654928    -2.180911448463    -0.099077601274     1.007825032230
         H           -2.109640654928    -0.050267448463    -1.324672601274     1.007825032230
         H           -0.418848654928    -0.162691448463    -0.891455601274     1.007825032230
         H           -1.296943654928     2.121681551537    -0.391869601274     1.007825032230
         H           -2.528571654928     1.423281551537     0.660475398726     1.007825032230
         H           -0.826512654928     1.310475551537     1.100688398726     1.007825032230
         C            1.733046065072    -1.232973028463    -0.432493941274    12.000000000000
         C            1.422510065072    -0.049932028463     0.476113058726    12.000000000000
         C            1.523497065072     1.279257971537    -0.261639941274    12.000000000000
         H            1.043132065072    -1.264243028463    -1.277271941274     1.007825032230
         H            2.744132065072    -1.155582028463    -0.834915941274     1.007825032230
         H            1.654350065072    -2.181010028463     0.099137058726     1.007825032230
         H            2.109998065072    -0.050401028463     1.324536058726     1.007825032230
         H            0.419073065072    -0.162556028463     0.891758058726     1.007825032230
         H            1.297482065072     2.121641971537     0.391888058726     1.007825032230
         H            2.528649065072     1.422986971537    -0.660819941274     1.007825032230
         H            0.826433065072     1.310482971537    -1.100498941274     1.007825032230

  Running in c1 symmetry.

  Rotational constants: A =      0.12793  B =      0.06709  C =      0.05025 [cm^-1]
  Rotational constants: A =   3835.14529  B =   2011.18455  C =   1506.34548 [MHz]
  Nuclear repulsion =  268.255881252120787

  Charge       = 0
  Multiplicity = 1
  Electrons    = 52
  Nalpha       = 26
  Nbeta        = 26

  ==> Algorithm <==

  SCF Algorithm Type is DF.
  DIIS enabled.
  MOM disabled.
  Fractional occupation disabled.
  Guess Type is SAD.
  Energy threshold   = 1.00e-08
  Density threshold  = 1.00e-08
  Integral threshold = 0.00e+00

  ==> Primary Basis <==

  Basis Set: JUN-CC-PVTZ
    Blend: JUN-CC-PVTZ
    Number of shells: 174
    Number of basis function: 458
    Number of Cartesian functions: 510
    Spherical Harmonics?: true
    Max angular momentum: 3

   => Loading Basis Set <=

    Name: (JUN-CC-PVTZ AUX)
    Role: JKFIT
    Keyword: DF_BASIS_SCF
    atoms 1-3, 12-14  entry C          line   152 file /home/r08543048/miniconda3/share/psi4/basis/jun-cc-pvtz-jkfit.gbs 
    atoms 4-11, 15-22 entry H          line    70 file /home/r08543048/miniconda3/share/psi4/basis/jun-cc-pvtz-jkfit.gbs 

  ==> Pre-Iterations <==

   -------------------------------------------------------
    Irrep   Nso     Nmo     Nalpha   Nbeta   Ndocc  Nsocc
   -------------------------------------------------------
     A        458     458       0       0       0       0
   -------------------------------------------------------
    Total     458     458      26      26      26       0
   -------------------------------------------------------

  ==> Integral Setup <==

  ==> DiskDFJK: Density-Fitted J/K Matrices <==

    J tasked:                  Yes
    K tasked:                  Yes
    wK tasked:                  No
    OpenMP threads:              1
    Integrals threads:           1
    Memory [MiB]:            15735
    Algorithm:                Core
    Integral Cache:           SAVE
    Schwarz Cutoff:          1E-12
    Fitting Condition:       1E-10

   => Auxiliary Basis Set <=

  Basis Set: (JUN-CC-PVTZ AUX)
    Blend: JUN-CC-PVTZ-JKFIT
    Number of shells: 334
    Number of basis function: 1050
    Number of Cartesian functions: 1256
    Spherical Harmonics?: true
    Max angular momentum: 4

  Minimum eigenvalue in the overlap matrix is 6.4932368411E-05.
  Using Symmetric Orthogonalization.

  SCF Guess: Superposition of Atomic Densities via on-the-fly atomic UHF.

  ==> Iterations <==

                           Total Energy        Delta E     RMS |[F,P]|

   @DF-RHF iter SAD:  -236.08423668276365   -2.36084e+02   0.00000e+00 
   @DF-RHF iter   1:  -236.26605101571516   -1.81814e-01   1.57339e-03 DIIS
   @DF-RHF iter   2:  -236.52413141817951   -2.58080e-01   7.49528e-04 DIIS
   @DF-RHF iter   3:  -236.58487982633773   -6.07484e-02   1.34248e-04 DIIS
   @DF-RHF iter   4:  -236.58878422734955   -3.90440e-03   2.80199e-05 DIIS
   @DF-RHF iter   5:  -236.58892202418599   -1.37797e-04   7.57527e-06 DIIS
   @DF-RHF iter   6:  -236.58893278023169   -1.07560e-05   1.30668e-06 DIIS
   @DF-RHF iter   7:  -236.58893314911123   -3.68880e-07   2.69865e-07 DIIS
   @DF-RHF iter   8:  -236.58893316654235   -1.74311e-08   5.88704e-08 DIIS
   @DF-RHF iter   9:  -236.58893316723629   -6.93944e-10   1.56832e-08 DIIS
   @DF-RHF iter  10:  -236.58893316729507   -5.87761e-11   3.30207e-09 DIIS
  Energy and wave function converged.


  ==> Post-Iterations <==

    Orbital Energies [Eh]
    ---------------------

    Doubly Occupied:                                                      

       1A    -11.210971     2A    -11.210963     3A    -11.207512  
       4A    -11.207511     5A    -11.205642     6A    -11.205639  
       7A     -1.069049     8A     -1.043082     9A     -0.932433  
      10A     -0.918871    11A     -0.804669    12A     -0.798785  
      13A     -0.666264    14A     -0.605665    15A     -0.597423  
      16A     -0.583042    17A     -0.557103    18A     -0.550744  
      19A     -0.536077    20A     -0.519066    21A     -0.479887  
      22A     -0.479394    23A     -0.477662    24A     -0.469642  
      25A     -0.466274    26A     -0.454708  

    Virtual:                                                              

      27A      0.050807    28A      0.053333    29A      0.056100  
      30A      0.062212    31A      0.073182    32A      0.076734  
      33A      0.089336    34A      0.093274    35A      0.094120  
      36A      0.115048    37A      0.120199    38A      0.122185  
      39A      0.123270    40A      0.126524    41A      0.133214  
      42A      0.152510    43A      0.154924    44A      0.161434  
      45A      0.164136    46A      0.173539    47A      0.192283  
      48A      0.205082    49A      0.210374    50A      0.212247  
      51A      0.261737    52A      0.267004    53A      0.271895  
      54A      0.277456    55A      0.289602    56A      0.295213  
      57A      0.297068    58A      0.308845    59A      0.309749  
      60A      0.311494    61A      0.320026    62A      0.322210  
      63A      0.333466    64A      0.335586    65A      0.346596  
      66A      0.348345    67A      0.352211    68A      0.356536  
      69A      0.361658    70A      0.367198    71A      0.381529  
      72A      0.383272    73A      0.387208    74A      0.390831  
      75A      0.393212    76A      0.408711    77A      0.418875  
      78A      0.422463    79A      0.435380    80A      0.437230  
      81A      0.439799    82A      0.463596    83A      0.481243  
      84A      0.493934    85A      0.494902    86A      0.508796  
      87A      0.515076    88A      0.518340    89A      0.523503  
      90A      0.524278    91A      0.545674    92A      0.557916  
      93A      0.564780    94A      0.569856    95A      0.580195  
      96A      0.583078    97A      0.595376    98A      0.600241  
      99A      0.609641   100A      0.642807   101A      0.649310  
     102A      0.651988   103A      0.685939   104A      0.692494  
     105A      0.700515   106A      0.715012   107A      0.728553  
     108A      0.732805   109A      0.737270   110A      0.740556  
     111A      0.760118   112A      0.765625   113A      0.780210  
     114A      0.781922   115A      0.789396   116A      0.800372  
     117A      0.803655   118A      0.807111   119A      0.815072  
     120A      0.832972   121A      0.833924   122A      0.850415  
     123A      0.856945   124A      0.870379   125A      0.873239  
     126A      0.894150   127A      0.895565   128A      0.907209  
     129A      0.912689   130A      0.913626   131A      0.942882  
     132A      0.956347   133A      0.957359   134A      0.959641  
     135A      0.975078   136A      0.997335   137A      1.002903  
     138A      1.007347   139A      1.019178   140A      1.053185  
     141A      1.056280   142A      1.108321   143A      1.112840  
     144A      1.117208   145A      1.135865   146A      1.144603  
     147A      1.157642   148A      1.193662   149A      1.194401  
     150A      1.212206   151A      1.240987   152A      1.271574  
     153A      1.289484   154A      1.300038   155A      1.305294  
     156A      1.322835   157A      1.328333   158A      1.336458  
     159A      1.337663   160A      1.364249   161A      1.374556  
     162A      1.401482   163A      1.401951   164A      1.415937  
     165A      1.416316   166A      1.431671   167A      1.458560  
     168A      1.464800   169A      1.472397   170A      1.498915  
     171A      1.517748   172A      1.529507   173A      1.537945  
     174A      1.541021   175A      1.545946   176A      1.547843  
     177A      1.556875   178A      1.571266   179A      1.583598  
     180A      1.584505   181A      1.601707   182A      1.604621  
     183A      1.605139   184A      1.619713   185A      1.620182  
     186A      1.635708   187A      1.644855   188A      1.645061  
     189A      1.686963   190A      1.687403   191A      1.689913  
     192A      1.704606   193A      1.739834   194A      1.748772  
     195A      1.758655   196A      1.764702   197A      1.787040  
     198A      1.793981   199A      1.805207   200A      1.818354  
     201A      1.859518   202A      1.863959   203A      1.870042  
     204A      1.878912   205A      1.893250   206A      1.898580  
     207A      1.940075   208A      1.949224   209A      1.967293  
     210A      1.972838   211A      1.993354   212A      2.004795  
     213A      2.010192   214A      2.021695   215A      2.048972  
     216A      2.065032   217A      2.176926   218A      2.178305  
     219A      2.737407   220A      2.744528   221A      2.757553  
     222A      2.781466   223A      2.786903   224A      2.809680  
     225A      2.832509   226A      2.848603   227A      2.870190  
     228A      2.881678   229A      2.895775   230A      2.902019  
     231A      2.929644   232A      2.941134   233A      2.941503  
     234A      2.963855   235A      2.989398   236A      3.010490  
     237A      3.018834   238A      3.038130   239A      3.071484  
     240A      3.075667   241A      3.088575   242A      3.098681  
     243A      3.106615   244A      3.125843   245A      3.130365  
     246A      3.142865   247A      3.148740   248A      3.175588  
     249A      3.192364   250A      3.193508   251A      3.220251  
     252A      3.228311   253A      3.232804   254A      3.253500  
     255A      3.270544   256A      3.300329   257A      3.307765  
     258A      3.318601   259A      3.319712   260A      3.326642  
     261A      3.336193   262A      3.353886   263A      3.376614  
     264A      3.379088   265A      3.387754   266A      3.397563  
     267A      3.418045   268A      3.428737   269A      3.430911  
     270A      3.438626   271A      3.453913   272A      3.459037  
     273A      3.467821   274A      3.476620   275A      3.495596  
     276A      3.501227   277A      3.508146   278A      3.511916  
     279A      3.521883   280A      3.529648   281A      3.533605  
     282A      3.551007   283A      3.555270   284A      3.555285  
     285A      3.561590   286A      3.592791   287A      3.608627  
     288A      3.625089   289A      3.630316   290A      3.658192  
     291A      3.665583   292A      3.682755   293A      3.705066  
     294A      3.720679   295A      3.740612   296A      3.740909  
     297A      3.754363   298A      3.766111   299A      3.766728  
     300A      3.792163   301A      3.799064   302A      3.804352  
     303A      3.811044   304A      3.842875   305A      3.860095  
     306A      3.863895   307A      3.866404   308A      3.880925  
     309A      3.882468   310A      3.892196   311A      3.899128  
     312A      3.910707   313A      3.932350   314A      3.939720  
     315A      3.944606   316A      3.973387   317A      3.986431  
     318A      4.001264   319A      4.014505   320A      4.024950  
     321A      4.044284   322A      4.072287   323A      4.117286  
     324A      4.140849   325A      4.169133   326A      4.172780  
     327A      4.220005   328A      4.229265   329A      4.231523  
     330A      4.237077   331A      4.250590   332A      4.261838  
     333A      4.273104   334A      4.297826   335A      4.305114  
     336A      4.317445   337A      4.320524   338A      4.339454  
     339A      4.349872   340A      4.367903   341A      4.375273  
     342A      4.382356   343A      4.403658   344A      4.406033  
     345A      4.410179   346A      4.446061   347A      4.446540  
     348A      4.455573   349A      4.463971   350A      4.475839  
     351A      4.497467   352A      4.497845   353A      4.513233  
     354A      4.524234   355A      4.538183   356A      4.551231  
     357A      4.554946   358A      4.573346   359A      4.583573  
     360A      4.586036   361A      4.603926   362A      4.624022  
     363A      4.639330   364A      4.648291   365A      4.668085  
     366A      4.682508   367A      4.690458   368A      4.701859  
     369A      4.709253   370A      4.738494   371A      4.740558  
     372A      4.747298   373A      4.762967   374A      4.793273  
     375A      4.799286   376A      4.830941   377A      4.841921  
     378A      4.869881   379A      4.879976   380A      4.906874  
     381A      4.937978   382A      4.957193   383A      4.987050  
     384A      5.007590   385A      5.011133   386A      5.041867  
     387A      5.077227   388A      5.083591   389A      5.106769  
     390A      5.123503   391A      5.148584   392A      5.176356  
     393A      5.185565   394A      5.204807   395A      5.232759  
     396A      5.263136   397A      5.266730   398A      5.268949  
     399A      5.283843   400A      5.302543   401A      5.302847  
     402A      5.343510   403A      5.357123   404A      5.366738  
     405A      5.404174   406A      5.416160   407A      5.424400  
     408A      5.444179   409A      5.478266   410A      5.505537  
     411A      5.509719   412A      5.521218   413A      5.565182  
     414A      5.574993   415A      5.598678   416A      5.601462  
     417A      5.618637   418A      5.625415   419A      5.723187  
     420A      5.745966   421A      5.753361   422A      5.775416  
     423A      5.776573   424A      5.784062   425A      5.787081  
     426A      5.809807   427A      5.813078   428A      5.824643  
     429A      5.828557   430A      5.833015   431A      5.834269  
     432A      5.875577   433A      5.915016   434A      5.949892  
     435A      5.969216   436A      5.972078   437A      5.993731  
     438A      5.999387   439A      6.051440   440A      6.146804  
     441A      6.193964   442A      6.212458   443A      6.484543  
     444A      6.489913   445A      6.528952   446A      6.540550  
     447A      6.559191   448A      6.581968   449A      6.582613  
     450A      6.638265   451A      6.686988   452A      6.735076  
     453A     14.080009   454A     14.318761   455A     14.599151  
     456A     14.726798   457A     14.943931   458A     14.953267  

    Final Occupation by Irrep:
              A 
    DOCC [    26 ]

  @DF-RHF Final Energy:  -236.58893316729507

   => Energetics <=

    Nuclear Repulsion Energy =            268.2558812521207869
    One-Electron Energy =                -849.1734737901524568
    Two-Electron Energy =                 344.3286593707365455
    Total Energy =                       -236.5889331672950675

Computation Completed


Properties will be evaluated at   0.000000,   0.000000,   0.000000 [a0]

Properties computed using the SCF density matrix

  Nuclear Dipole Moment: [e a0]
     X:    -0.0001      Y:     0.0782      Z:    -0.0000

  Electronic Dipole Moment: [e a0]
     X:     0.0002      Y:    -0.0864      Z:     0.0000

  Dipole Moment: [e a0]
     X:     0.0000      Y:    -0.0082      Z:    -0.0000     Total:     0.0082

  Dipole Moment: [D]
     X:     0.0001      Y:    -0.0208      Z:    -0.0000     Total:     0.0208


*** tstop() called on r282 at Wed Sep 15 07:46:24 2021
Module time:
	user time   =      43.66 seconds =       0.73 minutes
	system time =       1.13 seconds =       0.02 minutes
	total time  =         45 seconds =       0.75 minutes
Total time:
	user time   =      43.66 seconds =       0.73 minutes
	system time =       1.13 seconds =       0.02 minutes
	total time  =         45 seconds =       0.75 minutes

  //>>>>>>>>>>>>>>>>>>>>>>>>>>>>>>>>>>>//
  //            Monomer A HF           //
  //<<<<<<<<<<<<<<<<<<<<<<<<<<<<<<<<<<<//


*** tstart() called on r282
*** at Wed Sep 15 07:46:24 2021

   => Loading Basis Set <=

    Name: JUN-CC-PVTZ
    Role: ORBITAL
    Keyword: BASIS
    atoms 1-3, 12-14  entry C          line   217 file /home/r08543048/miniconda3/share/psi4/basis/jun-cc-pvtz.gbs 
    atoms 4-11, 15-22 entry H          line    36 file /home/r08543048/miniconda3/share/psi4/basis/jun-cc-pvtz.gbs 


         ---------------------------------------------------------
                                   SCF
               by Justin Turney, Rob Parrish, Andy Simmonett
                          and Daniel G. A. Smith
                              RHF Reference
                        1 Threads,  20980 MiB Core
         ---------------------------------------------------------

  ==> Geometry <==

    Molecular point group: c1
    Full point group: C1

    Geometry (in Angstrom), charge = 0, multiplicity = 1:

       Center              X                  Y                   Z               Mass       
    ------------   -----------------  -----------------  -----------------  -----------------
         C           -1.733347654928    -1.232837448463     0.432489398726    12.000000000000
         C           -1.422369654928    -0.049879448463    -0.476073601274    12.000000000000
         C           -1.523324654928     1.279355551537     0.261606398726    12.000000000000
         H           -1.043673654928    -1.264156448463     1.277455398726     1.007825032230
         H           -2.744534654928    -1.155283448463     0.834627398726     1.007825032230
         H           -1.654657654928    -2.180911448463    -0.099077601274     1.007825032230
         H           -2.109640654928    -0.050267448463    -1.324672601274     1.007825032230
         H           -0.418848654928    -0.162691448463    -0.891455601274     1.007825032230
         H           -1.296943654928     2.121681551537    -0.391869601274     1.007825032230
         H           -2.528571654928     1.423281551537     0.660475398726     1.007825032230
         H           -0.826512654928     1.310475551537     1.100688398726     1.007825032230
      Gh(C)           1.733046065072    -1.232973028463    -0.432493941274    12.000000000000
      Gh(C)           1.422510065072    -0.049932028463     0.476113058726    12.000000000000
      Gh(C)           1.523497065072     1.279257971537    -0.261639941274    12.000000000000
      Gh(H)           1.043132065072    -1.264243028463    -1.277271941274     1.007825032230
      Gh(H)           2.744132065072    -1.155582028463    -0.834915941274     1.007825032230
      Gh(H)           1.654350065072    -2.181010028463     0.099137058726     1.007825032230
      Gh(H)           2.109998065072    -0.050401028463     1.324536058726     1.007825032230
      Gh(H)           0.419073065072    -0.162556028463     0.891758058726     1.007825032230
      Gh(H)           1.297482065072     2.121641971537     0.391888058726     1.007825032230
      Gh(H)           2.528649065072     1.422986971537    -0.660819941274     1.007825032230
      Gh(H)           0.826433065072     1.310482971537    -1.100498941274     1.007825032230

  Running in c1 symmetry.

  Rotational constants: A =      0.12793  B =      0.06709  C =      0.05025 [cm^-1]
  Rotational constants: A =   3835.14529  B =   2011.18455  C =   1506.34548 [MHz]
  Nuclear repulsion =   82.817219279052722

  Charge       = 0
  Multiplicity = 1
  Electrons    = 26
  Nalpha       = 13
  Nbeta        = 13

  ==> Algorithm <==

  SCF Algorithm Type is DF.
  DIIS enabled.
  MOM disabled.
  Fractional occupation disabled.
  Guess Type is SAD.
  Energy threshold   = 1.00e-08
  Density threshold  = 1.00e-08
  Integral threshold = 0.00e+00

  ==> Primary Basis <==

  Basis Set: JUN-CC-PVTZ
    Blend: JUN-CC-PVTZ
    Number of shells: 174
    Number of basis function: 458
    Number of Cartesian functions: 510
    Spherical Harmonics?: true
    Max angular momentum: 3

   => Loading Basis Set <=

    Name: (JUN-CC-PVTZ AUX)
    Role: JKFIT
    Keyword: DF_BASIS_SCF
    atoms 1-3, 12-14  entry C          line   152 file /home/r08543048/miniconda3/share/psi4/basis/jun-cc-pvtz-jkfit.gbs 
    atoms 4-11, 15-22 entry H          line    70 file /home/r08543048/miniconda3/share/psi4/basis/jun-cc-pvtz-jkfit.gbs 

  ==> Pre-Iterations <==

   -------------------------------------------------------
    Irrep   Nso     Nmo     Nalpha   Nbeta   Ndocc  Nsocc
   -------------------------------------------------------
     A        458     458       0       0       0       0
   -------------------------------------------------------
    Total     458     458      13      13      13       0
   -------------------------------------------------------

  ==> Integral Setup <==

  ==> DiskDFJK: Density-Fitted J/K Matrices <==

    J tasked:                  Yes
    K tasked:                  Yes
    wK tasked:                  No
    OpenMP threads:              1
    Integrals threads:           1
    Memory [MiB]:            15735
    Algorithm:                Core
    Integral Cache:           LOAD
    Schwarz Cutoff:          1E-12
    Fitting Condition:       1E-10

   => Auxiliary Basis Set <=

  Basis Set: (JUN-CC-PVTZ AUX)
    Blend: JUN-CC-PVTZ-JKFIT
    Number of shells: 334
    Number of basis function: 1050
    Number of Cartesian functions: 1256
    Spherical Harmonics?: true
    Max angular momentum: 4

  Minimum eigenvalue in the overlap matrix is 6.4932368411E-05.
  Using Symmetric Orthogonalization.

  SCF Guess: Superposition of Atomic Densities via on-the-fly atomic UHF.

  ==> Iterations <==

                           Total Energy        Delta E     RMS |[F,P]|

   @DF-RHF iter SAD:  -117.72589729957375   -1.17726e+02   0.00000e+00 
   @DF-RHF iter   1:  -118.14640173335657   -4.20504e-01   1.12537e-03 DIIS
   @DF-RHF iter   2:  -118.27579782058007   -1.29396e-01   5.32418e-04 DIIS
   @DF-RHF iter   3:  -118.30622053067023   -3.04227e-02   8.94701e-05 DIIS
   @DF-RHF iter   4:  -118.30807321015364   -1.85268e-03   1.76606e-05 DIIS
   @DF-RHF iter   5:  -118.30813165056479   -5.84404e-05   4.96462e-06 DIIS
   @DF-RHF iter   6:  -118.30813627697312   -4.62641e-06   8.91456e-07 DIIS
   @DF-RHF iter   7:  -118.30813644860045   -1.71627e-07   1.68149e-07 DIIS
   @DF-RHF iter   8:  -118.30813645613117   -7.53072e-09   2.94984e-08 DIIS
   @DF-RHF iter   9:  -118.30813645636610   -2.34934e-10   5.81596e-09 DIIS
  Energy and wave function converged.


  ==> Post-Iterations <==

    Orbital Energies [Eh]
    ---------------------

    Doubly Occupied:                                                      

       1A    -11.215582     2A    -11.207865     3A    -11.207820  
       4A     -1.054038     5A     -0.924834     6A     -0.799823  
       7A     -0.624733     8A     -0.598260     9A     -0.549391  
      10A     -0.530200    11A     -0.475535    12A     -0.474960  
      13A     -0.467984  

    Virtual:                                                              

      14A      0.034746    15A      0.047907    16A      0.052822  
      17A      0.058034    18A      0.070044    19A      0.074743  
      20A      0.087024    21A      0.090096    22A      0.091684  
      23A      0.111557    24A      0.113278    25A      0.118507  
      26A      0.120735    27A      0.123482    28A      0.126634  
      29A      0.134046    30A      0.148393    31A      0.155562  
      32A      0.156347    33A      0.162719    34A      0.168255  
      35A      0.179094    36A      0.202644    37A      0.207722  
      38A      0.233903    39A      0.249628    40A      0.258655  
      41A      0.264539    42A      0.273510    43A      0.287887  
      44A      0.290480    45A      0.297535    46A      0.306573  
      47A      0.309377    48A      0.319438    49A      0.321457  
      50A      0.325658    51A      0.334977    52A      0.339302  
      53A      0.348145    54A      0.352929    55A      0.356653  
      56A      0.364058    57A      0.375575    58A      0.383270  
      59A      0.392616    60A      0.394872    61A      0.399713  
      62A      0.408516    63A      0.415637    64A      0.424826  
      65A      0.429806    66A      0.441937    67A      0.445375  
      68A      0.451237    69A      0.476223    70A      0.482778  
      71A      0.488537    72A      0.491108    73A      0.510875  
      74A      0.519360    75A      0.528669    76A      0.535822  
      77A      0.542857    78A      0.550212    79A      0.561673  
      80A      0.570526    81A      0.581194    82A      0.586987  
      83A      0.596754    84A      0.599309    85A      0.609920  
      86A      0.617287    87A      0.631501    88A      0.636674  
      89A      0.641036    90A      0.646545    91A      0.651612  
      92A      0.669890    93A      0.680921    94A      0.692846  
      95A      0.703857    96A      0.722153    97A      0.727114  
      98A      0.742441    99A      0.764013   100A      0.776952  
     101A      0.785583   102A      0.792039   103A      0.798841  
     104A      0.808330   105A      0.814882   106A      0.833063  
     107A      0.841871   108A      0.842310   109A      0.876285  
     110A      0.878944   111A      0.893157   112A      0.911480  
     113A      0.920286   114A      0.945796   115A      0.967749  
     116A      0.971403   117A      0.979228   118A      1.025970  
     119A      1.047484   120A      1.064142   121A      1.080301  
     122A      1.088789   123A      1.116333   124A      1.124518  
     125A      1.133032   126A      1.142051   127A      1.166727  
     128A      1.170718   129A      1.184927   130A      1.193153  
     131A      1.200476   132A      1.213287   133A      1.216676  
     134A      1.237086   135A      1.243829   136A      1.250674  
     137A      1.273442   138A      1.291967   139A      1.294806  
     140A      1.307193   141A      1.314460   142A      1.327590  
     143A      1.343578   144A      1.347642   145A      1.362717  
     146A      1.376811   147A      1.383178   148A      1.387729  
     149A      1.404309   150A      1.413836   151A      1.434520  
     152A      1.444509   153A      1.449830   154A      1.457618  
     155A      1.478015   156A      1.486377   157A      1.493775  
     158A      1.507494   159A      1.513089   160A      1.528798  
     161A      1.546702   162A      1.552631   163A      1.560988  
     164A      1.570519   165A      1.577494   166A      1.591767  
     167A      1.596611   168A      1.606366   169A      1.610095  
     170A      1.629217   171A      1.635076   172A      1.651524  
     173A      1.666511   174A      1.683839   175A      1.702416  
     176A      1.708992   177A      1.723994   178A      1.740019  
     179A      1.746436   180A      1.762787   181A      1.776792  
     182A      1.791078   183A      1.806209   184A      1.819480  
     185A      1.844361   186A      1.853483   187A      1.874362  
     188A      1.887254   189A      1.897068   190A      1.904289  
     191A      1.931259   192A      1.945086   193A      1.954926  
     194A      1.978988   195A      1.991993   196A      2.005782  
     197A      2.039700   198A      2.054735   199A      2.062281  
     200A      2.100583   201A      2.122558   202A      2.154954  
     203A      2.183182   204A      2.209970   205A      2.222337  
     206A      2.248433   207A      2.346274   208A      2.407638  
     209A      2.427433   210A      2.447392   211A      2.471187  
     212A      2.502824   213A      2.594361   214A      2.612022  
     215A      2.641809   216A      2.777119   217A      2.798763  
     218A      2.861315   219A      2.876097   220A      2.903278  
     221A      2.927637   222A      2.966344   223A      2.984482  
     224A      3.024924   225A      3.042741   226A      3.095428  
     227A      3.125129   228A      3.127561   229A      3.133526  
     230A      3.168689   231A      3.197918   232A      3.202055  
     233A      3.261052   234A      3.298502   235A      3.301978  
     236A      3.321465   237A      3.358874   238A      3.363930  
     239A      3.379272   240A      3.393537   241A      3.400718  
     242A      3.432170   243A      3.452951   244A      3.490246  
     245A      3.492469   246A      3.508146   247A      3.511862  
     248A      3.521757   249A      3.526359   250A      3.539262  
     251A      3.548662   252A      3.563912   253A      3.574066  
     254A      3.595227   255A      3.600525   256A      3.612055  
     257A      3.619493   258A      3.623578   259A      3.636625  
     260A      3.652640   261A      3.667809   262A      3.689228  
     263A      3.704924   264A      3.713045   265A      3.744122  
     266A      3.749569   267A      3.771754   268A      3.777556  
     269A      3.794224   270A      3.815071   271A      3.821215  
     272A      3.841813   273A      3.849643   274A      3.862208  
     275A      3.868879   276A      3.879194   277A      3.893737  
     278A      3.905335   279A      3.919138   280A      3.922401  
     281A      3.935805   282A      3.946326   283A      3.955528  
     284A      3.969768   285A      3.972744   286A      3.982028  
     287A      4.021694   288A      4.041850   289A      4.045417  
     290A      4.081478   291A      4.117647   292A      4.123529  
     293A      4.140314   294A      4.169209   295A      4.173955  
     296A      4.203361   297A      4.212317   298A      4.220968  
     299A      4.233849   300A      4.255781   301A      4.263178  
     302A      4.279122   303A      4.307634   304A      4.319785  
     305A      4.326568   306A      4.330931   307A      4.340633  
     308A      4.348043   309A      4.371581   310A      4.382299  
     311A      4.387490   312A      4.394915   313A      4.432973  
     314A      4.448439   315A      4.452561   316A      4.466946  
     317A      4.484865   318A      4.496338   319A      4.502037  
     320A      4.523860   321A      4.525362   322A      4.537564  
     323A      4.548350   324A      4.565121   325A      4.574415  
     326A      4.586682   327A      4.597033   328A      4.607684  
     329A      4.616584   330A      4.631697   331A      4.643655  
     332A      4.673733   333A      4.683151   334A      4.689095  
     335A      4.697473   336A      4.714640   337A      4.724698  
     338A      4.736472   339A      4.747303   340A      4.754924  
     341A      4.763127   342A      4.773475   343A      4.798242  
     344A      4.812543   345A      4.822154   346A      4.836387  
     347A      4.845043   348A      4.863267   349A      4.864455  
     350A      4.878555   351A      4.886972   352A      4.900552  
     353A      4.916822   354A      4.930933   355A      4.953689  
     356A      4.961839   357A      4.972879   358A      4.982223  
     359A      4.986878   360A      4.992145   361A      5.016288  
     362A      5.028858   363A      5.037328   364A      5.055694  
     365A      5.058868   366A      5.075787   367A      5.098223  
     368A      5.108395   369A      5.119018   370A      5.135668  
     371A      5.145540   372A      5.170288   373A      5.183703  
     374A      5.193051   375A      5.206751   376A      5.240008  
     377A      5.273463   378A      5.277824   379A      5.292607  
     380A      5.309475   381A      5.327149   382A      5.336413  
     383A      5.362058   384A      5.365244   385A      5.410029  
     386A      5.416546   387A      5.433927   388A      5.481916  
     389A      5.512823   390A      5.521050   391A      5.536559  
     392A      5.581437   393A      5.598154   394A      5.615420  
     395A      5.632856   396A      5.649953   397A      5.665823  
     398A      5.685098   399A      5.737872   400A      5.753728  
     401A      5.774996   402A      5.792808   403A      5.802519  
     404A      5.830949   405A      5.853370   406A      5.861618  
     407A      5.878450   408A      5.938397   409A      5.947523  
     410A      5.961493   411A      5.986913   412A      6.013652  
     413A      6.029893   414A      6.059088   415A      6.117054  
     416A      6.191441   417A      6.213477   418A      6.264143  
     419A      6.268284   420A      6.372381   421A      6.404100  
     422A      6.428897   423A      6.450804   424A      6.467943  
     425A      6.482168   426A      6.517675   427A      6.531373  
     428A      6.572546   429A      6.587429   430A      6.637962  
     431A      6.655797   432A      6.673367   433A      6.775912  
     434A      6.924428   435A      7.059524   436A      7.312236  
     437A      7.540041   438A      7.614258   439A      7.640055  
     440A      7.693339   441A      7.706544   442A      7.738509  
     443A      7.831819   444A      7.842845   445A      7.882801  
     446A      7.933880   447A      8.160489   448A      8.288254  
     449A      8.536715   450A      9.702993   451A      9.966154  
     452A     10.058157   453A     14.214518   454A     14.718509  
     455A     14.886222   456A     44.906216   457A     45.847618  
     458A     46.144675  

    Final Occupation by Irrep:
              A 
    DOCC [    13 ]

  @DF-RHF Final Energy:  -118.30813645636610

   => Energetics <=

    Nuclear Repulsion Energy =             82.8172192790527220
    One-Electron Energy =                -321.9886612517323101
    Two-Electron Energy =                 120.8633055163134884
    Total Energy =                       -118.3081364563660998

Computation Completed


Properties will be evaluated at   0.000000,   0.000000,   0.000000 [a0]

Properties computed using the SCF density matrix

  Nuclear Dipole Moment: [e a0]
     X:   -76.9074      Y:     0.0415      Z:     4.6758

  Electronic Dipole Moment: [e a0]
     X:    76.9154      Y:    -0.0443      Z:    -4.7076

  Dipole Moment: [e a0]
     X:     0.0080      Y:    -0.0028      Z:    -0.0319     Total:     0.0330

  Dipole Moment: [D]
     X:     0.0204      Y:    -0.0072      Z:    -0.0810     Total:     0.0839


*** tstop() called on r282 at Wed Sep 15 07:46:47 2021
Module time:
	user time   =      22.69 seconds =       0.38 minutes
	system time =       0.48 seconds =       0.01 minutes
	total time  =         23 seconds =       0.38 minutes
Total time:
	user time   =      66.35 seconds =       1.11 minutes
	system time =       1.61 seconds =       0.03 minutes
	total time  =         68 seconds =       1.13 minutes

  //>>>>>>>>>>>>>>>>>>>>>>>>>>>>>>>>>>>//
  //            Monomer B HF           //
  //<<<<<<<<<<<<<<<<<<<<<<<<<<<<<<<<<<<//


*** tstart() called on r282
*** at Wed Sep 15 07:46:47 2021

   => Loading Basis Set <=

    Name: JUN-CC-PVTZ
    Role: ORBITAL
    Keyword: BASIS
    atoms 1-3, 12-14  entry C          line   217 file /home/r08543048/miniconda3/share/psi4/basis/jun-cc-pvtz.gbs 
    atoms 4-11, 15-22 entry H          line    36 file /home/r08543048/miniconda3/share/psi4/basis/jun-cc-pvtz.gbs 


         ---------------------------------------------------------
                                   SCF
               by Justin Turney, Rob Parrish, Andy Simmonett
                          and Daniel G. A. Smith
                              RHF Reference
                        1 Threads,  20980 MiB Core
         ---------------------------------------------------------

  ==> Geometry <==

    Molecular point group: c1
    Full point group: C1

    Geometry (in Angstrom), charge = 0, multiplicity = 1:

       Center              X                  Y                   Z               Mass       
    ------------   -----------------  -----------------  -----------------  -----------------
      Gh(C)          -1.733347654928    -1.232837448463     0.432489398726    12.000000000000
      Gh(C)          -1.422369654928    -0.049879448463    -0.476073601274    12.000000000000
      Gh(C)          -1.523324654928     1.279355551537     0.261606398726    12.000000000000
      Gh(H)          -1.043673654928    -1.264156448463     1.277455398726     1.007825032230
      Gh(H)          -2.744534654928    -1.155283448463     0.834627398726     1.007825032230
      Gh(H)          -1.654657654928    -2.180911448463    -0.099077601274     1.007825032230
      Gh(H)          -2.109640654928    -0.050267448463    -1.324672601274     1.007825032230
      Gh(H)          -0.418848654928    -0.162691448463    -0.891455601274     1.007825032230
      Gh(H)          -1.296943654928     2.121681551537    -0.391869601274     1.007825032230
      Gh(H)          -2.528571654928     1.423281551537     0.660475398726     1.007825032230
      Gh(H)          -0.826512654928     1.310475551537     1.100688398726     1.007825032230
         C            1.733046065072    -1.232973028463    -0.432493941274    12.000000000000
         C            1.422510065072    -0.049932028463     0.476113058726    12.000000000000
         C            1.523497065072     1.279257971537    -0.261639941274    12.000000000000
         H            1.043132065072    -1.264243028463    -1.277271941274     1.007825032230
         H            2.744132065072    -1.155582028463    -0.834915941274     1.007825032230
         H            1.654350065072    -2.181010028463     0.099137058726     1.007825032230
         H            2.109998065072    -0.050401028463     1.324536058726     1.007825032230
         H            0.419073065072    -0.162556028463     0.891758058726     1.007825032230
         H            1.297482065072     2.121641971537     0.391888058726     1.007825032230
         H            2.528649065072     1.422986971537    -0.660819941274     1.007825032230
         H            0.826433065072     1.310482971537    -1.100498941274     1.007825032230

  Running in c1 symmetry.

  Rotational constants: A =      0.12793  B =      0.06709  C =      0.05025 [cm^-1]
  Rotational constants: A =   3835.14529  B =   2011.18455  C =   1506.34548 [MHz]
  Nuclear repulsion =   82.817242756398954

  Charge       = 0
  Multiplicity = 1
  Electrons    = 26
  Nalpha       = 13
  Nbeta        = 13

  ==> Algorithm <==

  SCF Algorithm Type is DF.
  DIIS enabled.
  MOM disabled.
  Fractional occupation disabled.
  Guess Type is SAD.
  Energy threshold   = 1.00e-08
  Density threshold  = 1.00e-08
  Integral threshold = 0.00e+00

  ==> Primary Basis <==

  Basis Set: JUN-CC-PVTZ
    Blend: JUN-CC-PVTZ
    Number of shells: 174
    Number of basis function: 458
    Number of Cartesian functions: 510
    Spherical Harmonics?: true
    Max angular momentum: 3

   => Loading Basis Set <=

    Name: (JUN-CC-PVTZ AUX)
    Role: JKFIT
    Keyword: DF_BASIS_SCF
    atoms 1-3, 12-14  entry C          line   152 file /home/r08543048/miniconda3/share/psi4/basis/jun-cc-pvtz-jkfit.gbs 
    atoms 4-11, 15-22 entry H          line    70 file /home/r08543048/miniconda3/share/psi4/basis/jun-cc-pvtz-jkfit.gbs 

  ==> Pre-Iterations <==

   -------------------------------------------------------
    Irrep   Nso     Nmo     Nalpha   Nbeta   Ndocc  Nsocc
   -------------------------------------------------------
     A        458     458       0       0       0       0
   -------------------------------------------------------
    Total     458     458      13      13      13       0
   -------------------------------------------------------

  ==> Integral Setup <==

  ==> DiskDFJK: Density-Fitted J/K Matrices <==

    J tasked:                  Yes
    K tasked:                  Yes
    wK tasked:                  No
    OpenMP threads:              1
    Integrals threads:           1
    Memory [MiB]:            15735
    Algorithm:                Core
    Integral Cache:           LOAD
    Schwarz Cutoff:          1E-12
    Fitting Condition:       1E-10

   => Auxiliary Basis Set <=

  Basis Set: (JUN-CC-PVTZ AUX)
    Blend: JUN-CC-PVTZ-JKFIT
    Number of shells: 334
    Number of basis function: 1050
    Number of Cartesian functions: 1256
    Spherical Harmonics?: true
    Max angular momentum: 4

  Minimum eigenvalue in the overlap matrix is 6.4932368411E-05.
  Using Symmetric Orthogonalization.

  SCF Guess: Superposition of Atomic Densities via on-the-fly atomic UHF.

  ==> Iterations <==

                           Total Energy        Delta E     RMS |[F,P]|

   @DF-RHF iter SAD:  -117.72589921000181   -1.17726e+02   0.00000e+00 
   @DF-RHF iter   1:  -118.14640141087267   -4.20502e-01   1.12537e-03 DIIS
   @DF-RHF iter   2:  -118.27579770552705   -1.29396e-01   5.32419e-04 DIIS
   @DF-RHF iter   3:  -118.30622055144885   -3.04228e-02   8.94702e-05 DIIS
   @DF-RHF iter   4:  -118.30807323319490   -1.85268e-03   1.76606e-05 DIIS
   @DF-RHF iter   5:  -118.30813167366401   -5.84405e-05   4.96462e-06 DIIS
   @DF-RHF iter   6:  -118.30813630006617   -4.62640e-06   8.91458e-07 DIIS
   @DF-RHF iter   7:  -118.30813647169430   -1.71628e-07   1.68149e-07 DIIS
   @DF-RHF iter   8:  -118.30813647922295   -7.52866e-09   2.94983e-08 DIIS
   @DF-RHF iter   9:  -118.30813647945789   -2.34934e-10   5.81594e-09 DIIS
  Energy and wave function converged.


  ==> Post-Iterations <==

    Orbital Energies [Eh]
    ---------------------

    Doubly Occupied:                                                      

       1A    -11.215582     2A    -11.207865     3A    -11.207820  
       4A     -1.054038     5A     -0.924834     6A     -0.799823  
       7A     -0.624733     8A     -0.598259     9A     -0.549392  
      10A     -0.530201    11A     -0.475535    12A     -0.474958  
      13A     -0.467984  

    Virtual:                                                              

      14A      0.034746    15A      0.047907    16A      0.052823  
      17A      0.058035    18A      0.070044    19A      0.074742  
      20A      0.087024    21A      0.090096    22A      0.091684  
      23A      0.111553    24A      0.113279    25A      0.118507  
      26A      0.120735    27A      0.123485    28A      0.126636  
      29A      0.134045    30A      0.148393    31A      0.155562  
      32A      0.156347    33A      0.162719    34A      0.168259  
      35A      0.179099    36A      0.202647    37A      0.207712  
      38A      0.233901    39A      0.249621    40A      0.258652  
      41A      0.264534    42A      0.273514    43A      0.287889  
      44A      0.290492    45A      0.297536    46A      0.306570  
      47A      0.309369    48A      0.319441    49A      0.321454  
      50A      0.325664    51A      0.334973    52A      0.339302  
      53A      0.348145    54A      0.352935    55A      0.356662  
      56A      0.364060    57A      0.375569    58A      0.383276  
      59A      0.392612    60A      0.394865    61A      0.399719  
      62A      0.408532    63A      0.415634    64A      0.424804  
      65A      0.429799    66A      0.441932    67A      0.445383  
      68A      0.451242    69A      0.476231    70A      0.482788  
      71A      0.488533    72A      0.491105    73A      0.510879  
      74A      0.519364    75A      0.528663    76A      0.535815  
      77A      0.542856    78A      0.550203    79A      0.561677  
      80A      0.570526    81A      0.581203    82A      0.586985  
      83A      0.596739    84A      0.599313    85A      0.609916  
      86A      0.617288    87A      0.631495    88A      0.636660  
      89A      0.641028    90A      0.646533    91A      0.651590  
      92A      0.669906    93A      0.680944    94A      0.692847  
      95A      0.703876    96A      0.722152    97A      0.727129  
      98A      0.742447    99A      0.764005   100A      0.776952  
     101A      0.785573   102A      0.792045   103A      0.798849  
     104A      0.808328   105A      0.814890   106A      0.833073  
     107A      0.841864   108A      0.842296   109A      0.876314  
     110A      0.878919   111A      0.893151   112A      0.911475  
     113A      0.920276   114A      0.945789   115A      0.967740  
     116A      0.971426   117A      0.979217   118A      1.025963  
     119A      1.047491   120A      1.064135   121A      1.080287  
     122A      1.088785   123A      1.116324   124A      1.124524  
     125A      1.133051   126A      1.142051   127A      1.166768  
     128A      1.170721   129A      1.184912   130A      1.193154  
     131A      1.200486   132A      1.213311   133A      1.216695  
     134A      1.237082   135A      1.243812   136A      1.250698  
     137A      1.273439   138A      1.291987   139A      1.294807  
     140A      1.307181   141A      1.314436   142A      1.327616  
     143A      1.343554   144A      1.347636   145A      1.362733  
     146A      1.376822   147A      1.383198   148A      1.387721  
     149A      1.404311   150A      1.413810   151A      1.434507  
     152A      1.444497   153A      1.449838   154A      1.457601  
     155A      1.478042   156A      1.486369   157A      1.493785  
     158A      1.507491   159A      1.513083   160A      1.528795  
     161A      1.546697   162A      1.552651   163A      1.560977  
     164A      1.570507   165A      1.577483   166A      1.591767  
     167A      1.596590   168A      1.606367   169A      1.610084  
     170A      1.629189   171A      1.635051   172A      1.651552  
     173A      1.666555   174A      1.683845   175A      1.702434  
     176A      1.708935   177A      1.723954   178A      1.740049  
     179A      1.746459   180A      1.762763   181A      1.776791  
     182A      1.791105   183A      1.806220   184A      1.819491  
     185A      1.844368   186A      1.853512   187A      1.874344  
     188A      1.887267   189A      1.897085   190A      1.904312  
     191A      1.931278   192A      1.945142   193A      1.954923  
     194A      1.978943   195A      1.991959   196A      2.005753  
     197A      2.039701   198A      2.054753   199A      2.062309  
     200A      2.100563   201A      2.122467   202A      2.154964  
     203A      2.183053   204A      2.209930   205A      2.222383  
     206A      2.248492   207A      2.346278   208A      2.407641  
     209A      2.427440   210A      2.447327   211A      2.471195  
     212A      2.502839   213A      2.594366   214A      2.612033  
     215A      2.641884   216A      2.777103   217A      2.798767  
     218A      2.861287   219A      2.876096   220A      2.903278  
     221A      2.927655   222A      2.966334   223A      2.984482  
     224A      3.024888   225A      3.042701   226A      3.095397  
     227A      3.125105   228A      3.127583   229A      3.133514  
     230A      3.168709   231A      3.197913   232A      3.202079  
     233A      3.261075   234A      3.298483   235A      3.301979  
     236A      3.321463   237A      3.358884   238A      3.363928  
     239A      3.379318   240A      3.393585   241A      3.400709  
     242A      3.432154   243A      3.452987   244A      3.490242  
     245A      3.492474   246A      3.508154   247A      3.511894  
     248A      3.521813   249A      3.526350   250A      3.539279  
     251A      3.548665   252A      3.563916   253A      3.574102  
     254A      3.595197   255A      3.600516   256A      3.612065  
     257A      3.619504   258A      3.623577   259A      3.636623  
     260A      3.652664   261A      3.667762   262A      3.689268  
     263A      3.704926   264A      3.713053   265A      3.744101  
     266A      3.749541   267A      3.771763   268A      3.777583  
     269A      3.794200   270A      3.815053   271A      3.821203  
     272A      3.841806   273A      3.849659   274A      3.862207  
     275A      3.868864   276A      3.879190   277A      3.893746  
     278A      3.905326   279A      3.919153   280A      3.922397  
     281A      3.935841   282A      3.946343   283A      3.955538  
     284A      3.969732   285A      3.972712   286A      3.982017  
     287A      4.021766   288A      4.041831   289A      4.045490  
     290A      4.081427   291A      4.117644   292A      4.123487  
     293A      4.140305   294A      4.169212   295A      4.173976  
     296A      4.203374   297A      4.212323   298A      4.220918  
     299A      4.233898   300A      4.255739   301A      4.263158  
     302A      4.279139   303A      4.307636   304A      4.319755  
     305A      4.326546   306A      4.330925   307A      4.340645  
     308A      4.348046   309A      4.371551   310A      4.382318  
     311A      4.387479   312A      4.394874   313A      4.432971  
     314A      4.448412   315A      4.452561   316A      4.466960  
     317A      4.484890   318A      4.496364   319A      4.502043  
     320A      4.523839   321A      4.525395   322A      4.537532  
     323A      4.548357   324A      4.565160   325A      4.574354  
     326A      4.586717   327A      4.597073   328A      4.607664  
     329A      4.616547   330A      4.631697   331A      4.643694  
     332A      4.673718   333A      4.683152   334A      4.689098  
     335A      4.697489   336A      4.714631   337A      4.724684  
     338A      4.736433   339A      4.747286   340A      4.754936  
     341A      4.763139   342A      4.773452   343A      4.798264  
     344A      4.812530   345A      4.822129   346A      4.836389  
     347A      4.845073   348A      4.863273   349A      4.864431  
     350A      4.878540   351A      4.886967   352A      4.900517  
     353A      4.916846   354A      4.930924   355A      4.953705  
     356A      4.961856   357A      4.972854   358A      4.982212  
     359A      4.986877   360A      4.992129   361A      5.016289  
     362A      5.028877   363A      5.037413   364A      5.055735  
     365A      5.058897   366A      5.075726   367A      5.098232  
     368A      5.108409   369A      5.119025   370A      5.135705  
     371A      5.145478   372A      5.170317   373A      5.183687  
     374A      5.193052   375A      5.206738   376A      5.240000  
     377A      5.273475   378A      5.277813   379A      5.292610  
     380A      5.309505   381A      5.327153   382A      5.336396  
     383A      5.362061   384A      5.365299   385A      5.409971  
     386A      5.416564   387A      5.433923   388A      5.481920  
     389A      5.512822   390A      5.520992   391A      5.536561  
     392A      5.581441   393A      5.598148   394A      5.615403  
     395A      5.632856   396A      5.649905   397A      5.665818  
     398A      5.685185   399A      5.737870   400A      5.753744  
     401A      5.774980   402A      5.792818   403A      5.802570  
     404A      5.830987   405A      5.853402   406A      5.861657  
     407A      5.878532   408A      5.938359   409A      5.947526  
     410A      5.961463   411A      5.986914   412A      6.013695  
     413A      6.029879   414A      6.059040   415A      6.117046  
     416A      6.191431   417A      6.213511   418A      6.264090  
     419A      6.268276   420A      6.372398   421A      6.404061  
     422A      6.428874   423A      6.450789   424A      6.467823  
     425A      6.482175   426A      6.517691   427A      6.531357  
     428A      6.572589   429A      6.587464   430A      6.637904  
     431A      6.655792   432A      6.673334   433A      6.775926  
     434A      6.924426   435A      7.059597   436A      7.312236  
     437A      7.540022   438A      7.614244   439A      7.640040  
     440A      7.693355   441A      7.706548   442A      7.738514  
     443A      7.831818   444A      7.842859   445A      7.882807  
     446A      7.933863   447A      8.160411   448A      8.288282  
     449A      8.536735   450A      9.703045   451A      9.966167  
     452A     10.058211   453A     14.214076   454A     14.718578  
     455A     14.886288   456A     44.906997   457A     45.847503  
     458A     46.144458  

    Final Occupation by Irrep:
              A 
    DOCC [    13 ]

  @DF-RHF Final Energy:  -118.30813647945789

   => Energetics <=

    Nuclear Repulsion Energy =             82.8172427563989544
    One-Electron Energy =                -321.9887089099742639
    Two-Electron Energy =                 120.8633296741174092
    Total Energy =                       -118.3081364794578860

Computation Completed


Properties will be evaluated at   0.000000,   0.000000,   0.000000 [a0]

Properties computed using the SCF density matrix

  Nuclear Dipole Moment: [e a0]
     X:    76.9073      Y:     0.0367      Z:    -4.6758

  Electronic Dipole Moment: [e a0]
     X:   -76.9153      Y:    -0.0396      Z:     4.7076

  Dipole Moment: [e a0]
     X:    -0.0080      Y:    -0.0028      Z:     0.0319     Total:     0.0330

  Dipole Moment: [D]
     X:    -0.0204      Y:    -0.0072      Z:     0.0810     Total:     0.0839


*** tstop() called on r282 at Wed Sep 15 07:47:11 2021
Module time:
	user time   =      22.52 seconds =       0.38 minutes
	system time =       0.53 seconds =       0.01 minutes
	total time  =         24 seconds =       0.40 minutes
Total time:
	user time   =      88.87 seconds =       1.48 minutes
	system time =       2.14 seconds =       0.04 minutes
	total time  =         92 seconds =       1.53 minutes
  Constructing Basis Sets for SAPT...

   => Loading Basis Set <=

    Name: (JUN-CC-PVTZ AUX)
    Role: RIFIT
    Keyword: DF_BASIS_SAPT
    atoms 1-3, 12-14  entry C          line   132 file /home/r08543048/miniconda3/share/psi4/basis/jun-cc-pvtz-ri.gbs 
    atoms 4-11, 15-22 entry H          line    30 file /home/r08543048/miniconda3/share/psi4/basis/jun-cc-pvtz-ri.gbs 


  //>>>>>>>>>>>>>>>>>>>>>>>>>>>>>>>>>>>//
  //               SAPT0               //
  //<<<<<<<<<<<<<<<<<<<<<<<<<<<<<<<<<<<//


*** tstart() called on r282
*** at Wed Sep 15 07:47:11 2021

        SAPT0  
    Ed Hohenstein
     6 June 2009

      Orbital Information
  --------------------------
    NSO        =       458
    NMO        =       458
    NRI        =      1062
    NOCC A     =        13
    NOCC B     =        13
    FOCC A     =         0
    FOCC B     =         0
    NVIR A     =       445
    NVIR B     =       445

    Elst10,r            =    -0.014932619732 [Eh]
    Exch10              =     0.046251172244 [Eh]
    Exch10 (S^2)        =     0.045495718791 [Eh]

    Iter     Energy [mEh]          dE [mEh]         Residual      Time [s]
       1      -4.37842118       4.378421183      10.331654640             1
       2      -5.46979303       1.091371847       2.675150611             1
       3      -5.51014134       0.040348309       0.758474211             2
       4      -5.48735658      -0.022784758       0.176454407             3
       5      -5.48817064       0.000814059       0.039316344             4
       6      -5.48892066       0.000750015       0.006926530             4
       7      -5.48883707      -0.000083583       0.001512621             5
       8      -5.48883279      -0.000004282       0.000431944             6
       9      -5.48883621       0.000003420       0.000091965             7
      10      -5.48883650       0.000000292       0.000022605             7
      11      -5.48883634      -0.000000161       0.000004857             8
      12      -5.48883634      -0.000000007       0.000001343             9
      13      -5.48883634       0.000000007       0.000000306            10

    CHF Iterations converged


    Iter     Energy [mEh]          dE [mEh]         Residual      Time [s]
       1      -4.37631759       4.376317589      10.328048535             0
       2      -5.46697808       1.090660487       2.673019687             2
       3      -5.50725828       0.040280207       0.757898020             2
       4      -5.48450366      -0.022754624       0.176395954             3
       5      -5.48531444       0.000810778       0.039308964             4
       6      -5.48606455       0.000750113       0.006925453             5
       7      -5.48598106      -0.000083488       0.001513320             5
       8      -5.48597675      -0.000004312       0.000432026             6
       9      -5.48598017       0.000003421       0.000091938             7
      10      -5.48598046       0.000000292       0.000022596             8
      11      -5.48598030      -0.000000160       0.000004859             8
      12      -5.48598030      -0.000000007       0.000001344             9
      13      -5.48598030       0.000000007       0.000000306            10

    CHF Iterations converged

    Ind20,r (A<-B)      =    -0.005488836342 [Eh]
    Ind20,r (B<-A)      =    -0.005485980302 [Eh]
    Ind20,r             =    -0.010974816645 [Eh]
    Exch-Ind20,r (A<-B) =     0.004831597999 [Eh]
    Exch-Ind20,r (B<-A) =     0.004828554757 [Eh]
    Exch-Ind20,r        =     0.009660152756 [Eh]
    Disp20              =    -0.024416940803 [Eh]
    Disp20 (SS)         =    -0.012208470402 [Eh]
    Disp20 (OS)         =    -0.012208470402 [Eh]
    Exch-Disp20         =     0.003912894659 [Eh]
    Exch-Disp20 (SS)    =     0.002513503781 [Eh]
    Exch-Disp20 (OS)    =     0.001399390878 [Eh]

    SAPT Results 
  --------------------------------------------------------------------------------------------------------
    Electrostatics                -14.93261973 [mEh]      -9.37036035 [kcal/mol]     -39.20558770 [kJ/mol]
      Elst10,r                    -14.93261973 [mEh]      -9.37036035 [kcal/mol]     -39.20558770 [kJ/mol]

    Exchange                       46.25117224 [mEh]      29.02304876 [kcal/mol]     121.43243600 [kJ/mol]
      Exch10                       46.25117224 [mEh]      29.02304876 [kcal/mol]     121.43243600 [kJ/mol]
      Exch10(S^2)                  45.49571879 [mEh]      28.54899456 [kcal/mol]     119.44899323 [kJ/mol]

    Induction                      -3.97878398 [mEh]      -2.49672464 [kcal/mol]     -10.44629591 [kJ/mol]
      Ind20,r                     -10.97481664 [mEh]      -6.88680142 [kcal/mol]     -28.81437713 [kJ/mol]
      Exch-Ind20,r                  9.66015276 [mEh]       6.06183737 [kcal/mol]      25.36272757 [kJ/mol]
      delta HF,r (2)               -2.66412009 [mEh]      -1.67176060 [kcal/mol]      -6.99464634 [kJ/mol]

    Dispersion                    -20.50404614 [mEh]     -12.86648321 [kcal/mol]     -53.83336574 [kJ/mol]
      Disp20                      -24.41694080 [mEh]     -15.32186167 [kcal/mol]     -64.10666925 [kJ/mol]
      Exch-Disp20                   3.91289466 [mEh]       2.45537847 [kcal/mol]      10.27330351 [kJ/mol]
      Disp20 (SS)                 -12.20847040 [mEh]      -7.66093084 [kcal/mol]     -32.05333462 [kJ/mol]
      Disp20 (OS)                 -12.20847040 [mEh]      -7.66093084 [kcal/mol]     -32.05333462 [kJ/mol]
      Exch-Disp20 (SS)              2.51350378 [mEh]       1.57724743 [kcal/mol]       6.59920327 [kJ/mol]
      Exch-Disp20 (OS)              1.39939088 [mEh]       0.87813103 [kcal/mol]       3.67410024 [kJ/mol]

  Total HF                         27.33976853 [mEh]      17.15596376 [kcal/mol]      71.78055238 [kJ/mol]
  Total SAPT0                       6.83572238 [mEh]       4.28948056 [kcal/mol]      17.94718665 [kJ/mol]

  Special recipe for scaled SAPT0 (see Manual):
    Electrostatics sSAPT0         -14.93261973 [mEh]      -9.37036035 [kcal/mol]     -39.20558770 [kJ/mol]
    Exchange sSAPT0                46.25117224 [mEh]      29.02304876 [kcal/mol]     121.43243600 [kJ/mol]
    Induction sSAPT0               -3.48953053 [mEh]      -2.18971346 [kcal/mol]      -9.16176113 [kJ/mol]
    Dispersion sSAPT0             -20.30587151 [mEh]     -12.74212675 [kcal/mol]     -53.31305831 [kJ/mol]
  Total sSAPT0                      7.52315048 [mEh]       4.72084820 [kcal/mol]      19.75202885 [kJ/mol]
  --------------------------------------------------------------------------------------------------------

*** tstop() called on r282 at Wed Sep 15 07:48:34 2021
Module time:
	user time   =      68.59 seconds =       1.14 minutes
	system time =      13.50 seconds =       0.23 minutes
	total time  =         83 seconds =       1.38 minutes
Total time:
	user time   =     157.61 seconds =       2.63 minutes
	system time =      15.64 seconds =       0.26 minutes
	total time  =        175 seconds =       2.92 minutes

    Psi4 stopped on: Wednesday, 15 September 2021 07:48AM
    Psi4 wall time for execution: 0:02:54.57

*** Psi4 exiting successfully. Buy a developer a beer!
