
    -----------------------------------------------------------------------
          Psi4: An Open-Source Ab Initio Electronic Structure Package
                               Psi4 1.3.2 release

                         Git: Rev {HEAD} ecbda83 


    R. M. Parrish, L. A. Burns, D. G. A. Smith, A. C. Simmonett,
    A. E. DePrince III, E. G. Hohenstein, U. Bozkaya, A. Yu. Sokolov,
    R. Di Remigio, R. M. Richard, J. F. Gonthier, A. M. James,
    H. R. McAlexander, A. Kumar, M. Saitow, X. Wang, B. P. Pritchard,
    P. Verma, H. F. Schaefer III, K. Patkowski, R. A. King, E. F. Valeev,
    F. A. Evangelista, J. M. Turney, T. D. Crawford, and C. D. Sherrill,
    J. Chem. Theory Comput. 13(7) pp 3185--3197 (2017).
    (doi: 10.1021/acs.jctc.7b00174)


                         Additional Contributions by
    P. Kraus, H. Kruse, M. H. Lechner, M. C. Schieber, R. A. Shaw,
    A. Alenaizan, R. Galvelis, Z. L. Glick, S. Lehtola, and J. P. Misiewicz

    -----------------------------------------------------------------------


    Psi4 started on: Wednesday, 15 September 2021 07:32AM

    Process ID: 5796
    Host:       r282
    PSIDATADIR: /home/r08543048/miniconda3/share/psi4
    Memory:     500.0 MiB
    Threads:    1
    
  ==> Input File <==

--------------------------------------------------------------------------
# Any line starting with the # character is a comment line
#! Sample  computation

memory 22 gb

molecule Dimer {

0 1
 C                 -1.38881175    1.41228863   -0.27612564
 C                 -2.28606875    0.56259763    0.23091536
 C                 -2.39805475   -0.87648637   -0.15923864
 H                 -1.35429375    2.44633163    0.03794536
 H                 -0.66950675    1.08436263   -1.01600564
 H                 -2.98730675    0.92654663    0.97509136
 H                 -3.38581675   -1.09181437   -0.56988264
 H                 -1.64746875   -1.13740437   -0.90393164
 H                 -2.26442875   -1.52786737    0.70643536
--
0 1
 C                  1.38897575   -1.41230563    0.27665264
 C                  2.28562975   -0.56252263   -0.23130036
 C                  2.39824875    0.87644437    0.15908164
 H                  1.35397975   -2.44624363   -0.03770836
 H                  0.67066375   -1.08458563    1.01758764
 H                  2.98585775   -0.92631463   -0.97650736
 H                  2.26350175    1.52807337   -0.70623636
 H                  1.64871375    1.13724337    0.90487664
 H                  3.38659275    1.09157637    0.56842764

units angstrom
no_reorient
symmetry c1
}

set globals{
  basis jun-cc-pvtz
}

energy('sapt0')
--------------------------------------------------------------------------

  Memory set to  20.489 GiB by Python driver.

  //>>>>>>>>>>>>>>>>>>>>>>>>>>>>>>>>>>>//
  //              Dimer HF             //
  //<<<<<<<<<<<<<<<<<<<<<<<<<<<<<<<<<<<//


*** tstart() called on r282
*** at Wed Sep 15 07:32:15 2021

   => Loading Basis Set <=

    Name: JUN-CC-PVTZ
    Role: ORBITAL
    Keyword: BASIS
    atoms 1-3, 10-12 entry C          line   217 file /home/r08543048/miniconda3/share/psi4/basis/jun-cc-pvtz.gbs 
    atoms 4-9, 13-18 entry H          line    36 file /home/r08543048/miniconda3/share/psi4/basis/jun-cc-pvtz.gbs 


         ---------------------------------------------------------
                                   SCF
               by Justin Turney, Rob Parrish, Andy Simmonett
                          and Daniel G. A. Smith
                              RHF Reference
                        1 Threads,  20980 MiB Core
         ---------------------------------------------------------

  ==> Geometry <==

    Molecular point group: c1
    Full point group: C1

    Geometry (in Angstrom), charge = 0, multiplicity = 1:

       Center              X                  Y                   Z               Mass       
    ------------   -----------------  -----------------  -----------------  -----------------
         C           -1.388806039938     1.412287497352    -0.276124602111    12.000000000000
         C           -2.286063039938     0.562596497352     0.230916397889    12.000000000000
         C           -2.398049039938    -0.876487502648    -0.159237602111    12.000000000000
         H           -1.354288039938     2.446330497352     0.037946397889     1.007825032230
         H           -0.669501039938     1.084361497352    -1.016004602111     1.007825032230
         H           -2.987301039938     0.926545497352     0.975092397889     1.007825032230
         H           -3.385811039938    -1.091815502648    -0.569881602111     1.007825032230
         H           -1.647463039938    -1.137405502648    -0.903930602111     1.007825032230
         H           -2.264423039938    -1.527868502648     0.706436397889     1.007825032230
         C            1.388981460062    -1.412306762648     0.276653677889    12.000000000000
         C            2.285635460062    -0.562523762648    -0.231299322111    12.000000000000
         C            2.398254460062     0.876443237352     0.159082677889    12.000000000000
         H            1.353985460062    -2.446244762648    -0.037707322111     1.007825032230
         H            0.670669460062    -1.084586762648     1.017588677889     1.007825032230
         H            2.985863460062    -0.926315762648    -0.976506322111     1.007825032230
         H            2.263507460062     1.528072237352    -0.706235322111     1.007825032230
         H            1.648719460062     1.137242237352     0.904877677889     1.007825032230
         H            3.386598460062     1.091575237352     0.568428677889     1.007825032230

  Running in c1 symmetry.

  Rotational constants: A =      0.15492  B =      0.04388  C =      0.03578 [cm^-1]
  Rotational constants: A =   4644.44447  B =   1315.50796  C =   1072.76506 [MHz]
  Nuclear repulsion =  211.628928872819301

  Charge       = 0
  Multiplicity = 1
  Electrons    = 48
  Nalpha       = 24
  Nbeta        = 24

  ==> Algorithm <==

  SCF Algorithm Type is DF.
  DIIS enabled.
  MOM disabled.
  Fractional occupation disabled.
  Guess Type is SAD.
  Energy threshold   = 1.00e-08
  Density threshold  = 1.00e-08
  Integral threshold = 0.00e+00

  ==> Primary Basis <==

  Basis Set: JUN-CC-PVTZ
    Blend: JUN-CC-PVTZ
    Number of shells: 150
    Number of basis function: 402
    Number of Cartesian functions: 450
    Spherical Harmonics?: true
    Max angular momentum: 3

   => Loading Basis Set <=

    Name: (JUN-CC-PVTZ AUX)
    Role: JKFIT
    Keyword: DF_BASIS_SCF
    atoms 1-3, 10-12 entry C          line   152 file /home/r08543048/miniconda3/share/psi4/basis/jun-cc-pvtz-jkfit.gbs 
    atoms 4-9, 13-18 entry H          line    70 file /home/r08543048/miniconda3/share/psi4/basis/jun-cc-pvtz-jkfit.gbs 

  ==> Pre-Iterations <==

   -------------------------------------------------------
    Irrep   Nso     Nmo     Nalpha   Nbeta   Ndocc  Nsocc
   -------------------------------------------------------
     A        402     402       0       0       0       0
   -------------------------------------------------------
    Total     402     402      24      24      24       0
   -------------------------------------------------------

  ==> Integral Setup <==

  ==> DiskDFJK: Density-Fitted J/K Matrices <==

    J tasked:                  Yes
    K tasked:                  Yes
    wK tasked:                  No
    OpenMP threads:              1
    Integrals threads:           1
    Memory [MiB]:            15735
    Algorithm:                Core
    Integral Cache:           SAVE
    Schwarz Cutoff:          1E-12
    Fitting Condition:       1E-10

   => Auxiliary Basis Set <=

  Basis Set: (JUN-CC-PVTZ AUX)
    Blend: JUN-CC-PVTZ-JKFIT
    Number of shells: 294
    Number of basis function: 930
    Number of Cartesian functions: 1116
    Spherical Harmonics?: true
    Max angular momentum: 4

  Minimum eigenvalue in the overlap matrix is 3.8029368997E-05.
  Using Symmetric Orthogonalization.

  SCF Guess: Superposition of Atomic Densities via on-the-fly atomic UHF.

  ==> Iterations <==

                           Total Energy        Delta E     RMS |[F,P]|

   @DF-RHF iter SAD:  -232.73210580534115   -2.32732e+02   0.00000e+00 
   @DF-RHF iter   1:  -233.97536550613356   -1.24326e+00   1.60721e-03 DIIS
   @DF-RHF iter   2:  -234.18978469358029   -2.14419e-01   6.90698e-04 DIIS
   @DF-RHF iter   3:  -234.22990299248906   -4.01183e-02   1.24660e-04 DIIS
   @DF-RHF iter   4:  -234.23254568746216   -2.64269e-03   3.32765e-05 DIIS
   @DF-RHF iter   5:  -234.23267090629912   -1.25219e-04   1.03930e-05 DIIS
   @DF-RHF iter   6:  -234.23268324999916   -1.23437e-05   1.98085e-06 DIIS
   @DF-RHF iter   7:  -234.23268404416879   -7.94170e-07   7.73876e-07 DIIS
   @DF-RHF iter   8:  -234.23268416634284   -1.22174e-07   2.76946e-07 DIIS
   @DF-RHF iter   9:  -234.23268418481251   -1.84697e-08   1.03002e-07 DIIS
   @DF-RHF iter  10:  -234.23268418768708   -2.87457e-09   2.27091e-08 DIIS
   @DF-RHF iter  11:  -234.23268418780717   -1.20082e-10   5.36581e-09 DIIS
  Energy and wave function converged.


  ==> Post-Iterations <==

    Orbital Energies [Eh]
    ---------------------

    Doubly Occupied:                                                      

       1A    -11.232627     2A    -11.232618     3A    -11.218438  
       4A    -11.218426     5A    -11.215755     6A    -11.215744  
       7A     -1.064338     8A     -1.062200     9A     -0.932227  
      10A     -0.929883    11A     -0.758846    12A     -0.754195  
      13A     -0.638963    14A     -0.638140    15A     -0.583079  
      16A     -0.579969    17A     -0.566620    18A     -0.565239  
      19A     -0.521928    20A     -0.520738    21A     -0.491915  
      22A     -0.490539    23A     -0.358924    24A     -0.354430  

    Virtual:                                                              

      25A      0.052591    26A      0.054920    27A      0.058264  
      28A      0.067973    29A      0.069296    30A      0.072623  
      31A      0.092300    32A      0.096048    33A      0.104893  
      34A      0.105586    35A      0.114549    36A      0.119353  
      37A      0.124690    38A      0.131428    39A      0.133281  
      40A      0.142606    41A      0.150752    42A      0.156319  
      43A      0.168115    44A      0.175608    45A      0.179341  
      46A      0.191921    47A      0.198109    48A      0.203818  
      49A      0.204595    50A      0.224275    51A      0.247165  
      52A      0.254432    53A      0.270261    54A      0.273942  
      55A      0.287288    56A      0.294070    57A      0.294150  
      58A      0.309411    59A      0.315598    60A      0.328502  
      61A      0.332901    62A      0.340012    63A      0.343669  
      64A      0.347423    65A      0.352524    66A      0.361316  
      67A      0.361449    68A      0.370883    69A      0.381687  
      70A      0.381915    71A      0.397441    72A      0.399788  
      73A      0.408772    74A      0.409756    75A      0.416808  
      76A      0.421411    77A      0.422221    78A      0.430347  
      79A      0.456660    80A      0.458769    81A      0.476082  
      82A      0.482995    83A      0.484194    84A      0.506370  
      85A      0.506741    86A      0.519606    87A      0.523863  
      88A      0.540215    89A      0.541275    90A      0.542726  
      91A      0.553439    92A      0.566981    93A      0.570206  
      94A      0.585401    95A      0.615211    96A      0.631665  
      97A      0.676738    98A      0.677305    99A      0.697751  
     100A      0.700520   101A      0.703365   102A      0.714355  
     103A      0.733010   104A      0.743507   105A      0.745243  
     106A      0.756241   107A      0.764439   108A      0.771766  
     109A      0.775462   110A      0.776750   111A      0.800236  
     112A      0.807521   113A      0.816281   114A      0.827009  
     115A      0.848721   116A      0.850788   117A      0.860602  
     118A      0.862616   119A      0.874416   120A      0.893567  
     121A      0.895094   122A      0.909530   123A      0.924409  
     124A      0.930820   125A      0.950201   126A      0.960998  
     127A      0.964948   128A      0.985274   129A      0.996314  
     130A      1.007465   131A      1.047331   132A      1.050016  
     133A      1.083639   134A      1.086627   135A      1.088732  
     136A      1.105033   137A      1.121297   138A      1.122445  
     139A      1.129647   140A      1.136411   141A      1.163406  
     142A      1.163553   143A      1.179251   144A      1.191212  
     145A      1.215578   146A      1.244207   147A      1.254745  
     148A      1.261964   149A      1.296888   150A      1.298373  
     151A      1.302857   152A      1.306793   153A      1.343852  
     154A      1.359249   155A      1.373746   156A      1.385738  
     157A      1.413686   158A      1.414773   159A      1.424543  
     160A      1.426185   161A      1.438277   162A      1.473793  
     163A      1.482895   164A      1.491148   165A      1.492019  
     166A      1.502762   167A      1.528992   168A      1.533315  
     169A      1.548228   170A      1.558922   171A      1.580715  
     172A      1.593453   173A      1.620784   174A      1.624594  
     175A      1.628670   176A      1.638554   177A      1.649541  
     178A      1.650056   179A      1.676370   180A      1.684152  
     181A      1.736354   182A      1.737010   183A      1.750962  
     184A      1.762574   185A      1.785598   186A      1.793306  
     187A      1.849801   188A      1.854148   189A      1.891500  
     190A      1.895610   191A      1.910017   192A      1.910419  
     193A      2.032059   194A      2.034142   195A      2.052721  
     196A      2.070377   197A      2.200745   198A      2.223355  
     199A      2.593506   200A      2.614440   201A      2.693198  
     202A      2.713957   203A      2.747517   204A      2.759337  
     205A      2.773719   206A      2.777342   207A      2.808005  
     208A      2.814741   209A      2.823339   210A      2.828223  
     211A      2.848982   212A      2.859012   213A      2.877934  
     214A      2.892816   215A      2.904978   216A      2.928478  
     217A      2.939970   218A      2.992489   219A      3.005842  
     220A      3.010405   221A      3.045768   222A      3.053757  
     223A      3.063459   224A      3.065437   225A      3.080916  
     226A      3.092268   227A      3.104489   228A      3.122807  
     229A      3.151831   230A      3.161154   231A      3.164106  
     232A      3.177429   233A      3.186130   234A      3.200039  
     235A      3.219110   236A      3.225446   237A      3.250986  
     238A      3.262194   239A      3.264628   240A      3.281785  
     241A      3.295861   242A      3.298126   243A      3.315287  
     244A      3.318459   245A      3.326495   246A      3.341823  
     247A      3.351662   248A      3.360788   249A      3.383227  
     250A      3.390575   251A      3.411640   252A      3.413370  
     253A      3.426219   254A      3.430626   255A      3.436910  
     256A      3.445435   257A      3.470704   258A      3.491014  
     259A      3.506905   260A      3.510542   261A      3.516451  
     262A      3.527752   263A      3.536602   264A      3.547221  
     265A      3.585621   266A      3.598036   267A      3.600453  
     268A      3.602305   269A      3.636188   270A      3.651474  
     271A      3.660777   272A      3.684678   273A      3.686788  
     274A      3.693701   275A      3.744012   276A      3.757193  
     277A      3.758196   278A      3.767482   279A      3.793207  
     280A      3.794972   281A      3.797545   282A      3.806561  
     283A      3.809587   284A      3.830187   285A      3.851401  
     286A      3.856737   287A      3.898330   288A      3.925292  
     289A      3.968790   290A      3.981536   291A      3.993829  
     292A      4.002767   293A      4.043227   294A      4.049937  
     295A      4.059586   296A      4.066100   297A      4.090746  
     298A      4.092528   299A      4.131721   300A      4.136933  
     301A      4.158887   302A      4.163634   303A      4.205974  
     304A      4.211129   305A      4.256906   306A      4.263774  
     307A      4.281492   308A      4.291247   309A      4.296587  
     310A      4.318769   311A      4.329688   312A      4.358831  
     313A      4.375022   314A      4.379687   315A      4.385735  
     316A      4.387399   317A      4.405988   318A      4.411106  
     319A      4.420002   320A      4.420309   321A      4.435112  
     322A      4.472965   323A      4.480563   324A      4.499202  
     325A      4.510231   326A      4.511767   327A      4.528020  
     328A      4.547966   329A      4.593845   330A      4.599651  
     331A      4.621209   332A      4.628851   333A      4.635630  
     334A      4.674273   335A      4.684101   336A      4.688559  
     337A      4.772043   338A      4.784691   339A      4.808524  
     340A      4.817280   341A      4.835290   342A      4.840911  
     343A      4.893390   344A      4.911881   345A      4.913542  
     346A      4.925110   347A      5.033750   348A      5.040865  
     349A      5.073779   350A      5.076611   351A      5.177782  
     352A      5.177825   353A      5.197011   354A      5.202387  
     355A      5.225699   356A      5.228145   357A      5.297182  
     358A      5.301043   359A      5.324948   360A      5.329666  
     361A      5.361313   362A      5.363459   363A      5.389093  
     364A      5.400822   365A      5.427991   366A      5.428653  
     367A      5.476780   368A      5.478430   369A      5.565721  
     370A      5.572262   371A      5.624409   372A      5.624717  
     373A      5.681050   374A      5.686560   375A      5.688053  
     376A      5.693750   377A      5.758353   378A      5.760256  
     379A      5.777525   380A      5.789680   381A      5.851331  
     382A      5.851571   383A      5.959819   384A      5.966716  
     385A      6.083854   386A      6.087359   387A      6.380156  
     388A      6.386972   389A      6.438725   390A      6.455861  
     391A      6.464056   392A      6.465557   393A      6.519990  
     394A      6.523086   395A      6.701404   396A      6.701827  
     397A     12.111325   398A     12.138982   399A     14.577754  
     400A     14.604207   401A     15.275333   402A     15.326788  

    Final Occupation by Irrep:
              A 
    DOCC [    24 ]

  @DF-RHF Final Energy:  -234.23268418780717

   => Energetics <=

    Nuclear Repulsion Energy =            211.6289288728193014
    One-Electron Energy =                -733.4316676569228548
    Two-Electron Energy =                 287.5700545962963588
    Total Energy =                       -234.2326841878071946

Computation Completed


Properties will be evaluated at   0.000000,   0.000000,   0.000000 [a0]

Properties computed using the SCF density matrix

  Nuclear Dipole Moment: [e a0]
     X:     0.0005      Y:    -0.0001      Z:     0.0001

  Electronic Dipole Moment: [e a0]
     X:    -0.0005      Y:     0.0001      Z:    -0.0001

  Dipole Moment: [e a0]
     X:     0.0001      Y:    -0.0000      Z:    -0.0000     Total:     0.0001

  Dipole Moment: [D]
     X:     0.0002      Y:    -0.0001      Z:    -0.0001     Total:     0.0002


*** tstop() called on r282 at Wed Sep 15 07:32:41 2021
Module time:
	user time   =      25.68 seconds =       0.43 minutes
	system time =       0.76 seconds =       0.01 minutes
	total time  =         26 seconds =       0.43 minutes
Total time:
	user time   =      25.68 seconds =       0.43 minutes
	system time =       0.76 seconds =       0.01 minutes
	total time  =         26 seconds =       0.43 minutes

  //>>>>>>>>>>>>>>>>>>>>>>>>>>>>>>>>>>>//
  //            Monomer A HF           //
  //<<<<<<<<<<<<<<<<<<<<<<<<<<<<<<<<<<<//


*** tstart() called on r282
*** at Wed Sep 15 07:32:41 2021

   => Loading Basis Set <=

    Name: JUN-CC-PVTZ
    Role: ORBITAL
    Keyword: BASIS
    atoms 1-3, 10-12 entry C          line   217 file /home/r08543048/miniconda3/share/psi4/basis/jun-cc-pvtz.gbs 
    atoms 4-9, 13-18 entry H          line    36 file /home/r08543048/miniconda3/share/psi4/basis/jun-cc-pvtz.gbs 


         ---------------------------------------------------------
                                   SCF
               by Justin Turney, Rob Parrish, Andy Simmonett
                          and Daniel G. A. Smith
                              RHF Reference
                        1 Threads,  20980 MiB Core
         ---------------------------------------------------------

  ==> Geometry <==

    Molecular point group: c1
    Full point group: C1

    Geometry (in Angstrom), charge = 0, multiplicity = 1:

       Center              X                  Y                   Z               Mass       
    ------------   -----------------  -----------------  -----------------  -----------------
         C           -1.388806039938     1.412287497352    -0.276124602111    12.000000000000
         C           -2.286063039938     0.562596497352     0.230916397889    12.000000000000
         C           -2.398049039938    -0.876487502648    -0.159237602111    12.000000000000
         H           -1.354288039938     2.446330497352     0.037946397889     1.007825032230
         H           -0.669501039938     1.084361497352    -1.016004602111     1.007825032230
         H           -2.987301039938     0.926545497352     0.975092397889     1.007825032230
         H           -3.385811039938    -1.091815502648    -0.569881602111     1.007825032230
         H           -1.647463039938    -1.137405502648    -0.903930602111     1.007825032230
         H           -2.264423039938    -1.527868502648     0.706436397889     1.007825032230
      Gh(C)           1.388981460062    -1.412306762648     0.276653677889    12.000000000000
      Gh(C)           2.285635460062    -0.562523762648    -0.231299322111    12.000000000000
      Gh(C)           2.398254460062     0.876443237352     0.159082677889    12.000000000000
      Gh(H)           1.353985460062    -2.446244762648    -0.037707322111     1.007825032230
      Gh(H)           0.670669460062    -1.084586762648     1.017588677889     1.007825032230
      Gh(H)           2.985863460062    -0.926315762648    -0.976506322111     1.007825032230
      Gh(H)           2.263507460062     1.528072237352    -0.706235322111     1.007825032230
      Gh(H)           1.648719460062     1.137242237352     0.904877677889     1.007825032230
      Gh(H)           3.386598460062     1.091575237352     0.568428677889     1.007825032230

  Running in c1 symmetry.

  Rotational constants: A =      0.15492  B =      0.04388  C =      0.03578 [cm^-1]
  Rotational constants: A =   4644.44447  B =   1315.50796  C =   1072.76506 [MHz]
  Nuclear repulsion =   70.871491972997745

  Charge       = 0
  Multiplicity = 1
  Electrons    = 24
  Nalpha       = 12
  Nbeta        = 12

  ==> Algorithm <==

  SCF Algorithm Type is DF.
  DIIS enabled.
  MOM disabled.
  Fractional occupation disabled.
  Guess Type is SAD.
  Energy threshold   = 1.00e-08
  Density threshold  = 1.00e-08
  Integral threshold = 0.00e+00

  ==> Primary Basis <==

  Basis Set: JUN-CC-PVTZ
    Blend: JUN-CC-PVTZ
    Number of shells: 150
    Number of basis function: 402
    Number of Cartesian functions: 450
    Spherical Harmonics?: true
    Max angular momentum: 3

   => Loading Basis Set <=

    Name: (JUN-CC-PVTZ AUX)
    Role: JKFIT
    Keyword: DF_BASIS_SCF
    atoms 1-3, 10-12 entry C          line   152 file /home/r08543048/miniconda3/share/psi4/basis/jun-cc-pvtz-jkfit.gbs 
    atoms 4-9, 13-18 entry H          line    70 file /home/r08543048/miniconda3/share/psi4/basis/jun-cc-pvtz-jkfit.gbs 

  ==> Pre-Iterations <==

   -------------------------------------------------------
    Irrep   Nso     Nmo     Nalpha   Nbeta   Ndocc  Nsocc
   -------------------------------------------------------
     A        402     402       0       0       0       0
   -------------------------------------------------------
    Total     402     402      12      12      12       0
   -------------------------------------------------------

  ==> Integral Setup <==

  ==> DiskDFJK: Density-Fitted J/K Matrices <==

    J tasked:                  Yes
    K tasked:                  Yes
    wK tasked:                  No
    OpenMP threads:              1
    Integrals threads:           1
    Memory [MiB]:            15735
    Algorithm:                Core
    Integral Cache:           LOAD
    Schwarz Cutoff:          1E-12
    Fitting Condition:       1E-10

   => Auxiliary Basis Set <=

  Basis Set: (JUN-CC-PVTZ AUX)
    Blend: JUN-CC-PVTZ-JKFIT
    Number of shells: 294
    Number of basis function: 930
    Number of Cartesian functions: 1116
    Spherical Harmonics?: true
    Max angular momentum: 4

  Minimum eigenvalue in the overlap matrix is 3.8029368997E-05.
  Using Symmetric Orthogonalization.

  SCF Guess: Superposition of Atomic Densities via on-the-fly atomic UHF.

  ==> Iterations <==

                           Total Energy        Delta E     RMS |[F,P]|

   @DF-RHF iter SAD:  -116.33324473516839   -1.16333e+02   0.00000e+00 
   @DF-RHF iter   1:  -116.98772877017299   -6.54484e-01   1.14074e-03 DIIS
   @DF-RHF iter   2:  -117.09538749885479   -1.07659e-01   4.89941e-04 DIIS
   @DF-RHF iter   3:  -117.11550082813628   -2.01133e-02   8.80131e-05 DIIS
   @DF-RHF iter   4:  -117.11679511117957   -1.29428e-03   2.64926e-05 DIIS
   @DF-RHF iter   5:  -117.11686899877353   -7.38876e-05   7.12537e-06 DIIS
   @DF-RHF iter   6:  -117.11687520715587   -6.20838e-06   1.28385e-06 DIIS
   @DF-RHF iter   7:  -117.11687551516778   -3.08012e-07   4.71432e-07 DIIS
   @DF-RHF iter   8:  -117.11687555581804   -4.06503e-08   1.63184e-07 DIIS
   @DF-RHF iter   9:  -117.11687556164075   -5.82271e-09   5.93578e-08 DIIS
   @DF-RHF iter  10:  -117.11687556258116   -9.40403e-10   1.34758e-08 DIIS
   @DF-RHF iter  11:  -117.11687556262297   -4.18083e-11   2.38156e-09 DIIS
  Energy and wave function converged.


  ==> Post-Iterations <==

    Orbital Energies [Eh]
    ---------------------

    Doubly Occupied:                                                      

       1A    -11.234388     2A    -11.220817     3A    -11.217531  
       4A     -1.064933     5A     -0.932793     6A     -0.758094  
       7A     -0.640067     8A     -0.582618     9A     -0.568359  
      10A     -0.523405    11A     -0.493153    12A     -0.357997  

    Virtual:                                                              

      13A      0.036206    14A      0.047640    15A      0.055742  
      16A      0.061603    17A      0.068010    18A      0.069502  
      19A      0.088706    20A      0.094835    21A      0.096516  
      22A      0.104176    23A      0.107745    24A      0.116169  
      25A      0.120523    26A      0.126153    27A      0.131805  
      28A      0.142825    29A      0.143490    30A      0.150965  
      31A      0.156364    32A      0.164231    33A      0.170413  
      34A      0.173793    35A      0.187447    36A      0.202931  
      37A      0.211431    38A      0.238176    39A      0.247063  
      40A      0.251237    41A      0.261359    42A      0.274505  
      43A      0.282593    44A      0.285500    45A      0.297776  
      46A      0.312397    47A      0.320750    48A      0.325247  
      49A      0.336221    50A      0.336463    51A      0.343992  
      52A      0.355283    53A      0.356944    54A      0.359024  
      55A      0.365878    56A      0.369694    57A      0.378364  
      58A      0.385551    59A      0.391958    60A      0.400793  
      61A      0.407016    62A      0.414522    63A      0.426845  
      64A      0.432969    65A      0.440272    66A      0.443165  
      67A      0.454749    68A      0.460672    69A      0.475378  
      70A      0.480706    71A      0.497972    72A      0.505412  
      73A      0.512743    74A      0.523559    75A      0.528054  
      76A      0.541992    77A      0.557986    78A      0.559678  
      79A      0.564928    80A      0.570985    81A      0.584998  
      82A      0.593573    83A      0.606144    84A      0.618881  
      85A      0.621874    86A      0.634207    87A      0.651527  
      88A      0.670349    89A      0.687743    90A      0.702009  
      91A      0.713786    92A      0.713943    93A      0.728865  
      94A      0.745916    95A      0.750913    96A      0.766401  
      97A      0.783512    98A      0.788470    99A      0.797253  
     100A      0.809487   101A      0.824046   102A      0.832911  
     103A      0.848021   104A      0.867578   105A      0.878020  
     106A      0.897035   107A      0.917288   108A      0.943385  
     109A      0.964362   110A      0.983153   111A      1.017186  
     112A      1.050582   113A      1.058971   114A      1.070955  
     115A      1.088189   116A      1.093478   117A      1.114050  
     118A      1.114733   119A      1.118310   120A      1.134870  
     121A      1.144480   122A      1.153680   123A      1.161595  
     124A      1.171562   125A      1.204041   126A      1.212558  
     127A      1.222083   128A      1.234264   129A      1.244163  
     130A      1.251092   131A      1.265936   132A      1.276883  
     133A      1.289275   134A      1.296872   135A      1.318536  
     136A      1.330996   137A      1.331270   138A      1.343317  
     139A      1.349038   140A      1.363730   141A      1.371462  
     142A      1.393802   143A      1.404294   144A      1.421711  
     145A      1.425842   146A      1.434447   147A      1.447659  
     148A      1.453479   149A      1.468012   150A      1.480538  
     151A      1.495029   152A      1.505031   153A      1.518287  
     154A      1.536537   155A      1.546645   156A      1.563689  
     157A      1.567456   158A      1.579613   159A      1.598885  
     160A      1.613767   161A      1.619082   162A      1.624881  
     163A      1.629306   164A      1.642427   165A      1.647799  
     166A      1.663894   167A      1.667252   168A      1.683386  
     169A      1.715191   170A      1.744124   171A      1.748838  
     172A      1.770884   173A      1.787618   174A      1.809068  
     175A      1.850888   176A      1.879678   177A      1.893026  
     178A      1.908431   179A      1.980050   180A      2.003841  
     181A      2.032840   182A      2.054893   183A      2.067579  
     184A      2.082840   185A      2.102645   186A      2.206878  
     187A      2.231125   188A      2.248293   189A      2.344589  
     190A      2.368657   191A      2.447349   192A      2.521417  
     193A      2.544719   194A      2.618833   195A      2.669950  
     196A      2.721312   197A      2.764717   198A      2.790612  
     199A      2.802082   200A      2.827026   201A      2.851237  
     202A      2.880462   203A      2.898138   204A      2.921765  
     205A      2.980276   206A      3.004659   207A      3.048227  
     208A      3.065815   209A      3.080745   210A      3.093954  
     211A      3.159496   212A      3.170665   213A      3.192395  
     214A      3.221229   215A      3.244364   216A      3.254710  
     217A      3.295392   218A      3.309620   219A      3.324892  
     220A      3.351560   221A      3.382823   222A      3.391775  
     223A      3.419811   224A      3.424517   225A      3.442174  
     226A      3.444645   227A      3.482912   228A      3.497536  
     229A      3.504679   230A      3.518773   231A      3.543470  
     232A      3.555728   233A      3.566396   234A      3.587733  
     235A      3.597318   236A      3.602266   237A      3.629528  
     238A      3.637783   239A      3.658807   240A      3.667281  
     241A      3.679147   242A      3.703151   243A      3.707492  
     244A      3.713411   245A      3.741790   246A      3.756360  
     247A      3.768561   248A      3.784195   249A      3.793252  
     250A      3.803530   251A      3.807768   252A      3.839585  
     253A      3.850360   254A      3.869020   255A      3.886938  
     256A      3.910529   257A      3.926433   258A      3.972073  
     259A      3.978698   260A      3.994455   261A      4.022901  
     262A      4.039554   263A      4.049154   264A      4.062810  
     265A      4.070383   266A      4.088051   267A      4.100933  
     268A      4.111243   269A      4.130837   270A      4.152803  
     271A      4.166875   272A      4.174400   273A      4.186823  
     274A      4.205284   275A      4.211533   276A      4.250079  
     277A      4.266958   278A      4.279049   279A      4.293888  
     280A      4.303837   281A      4.319212   282A      4.338065  
     283A      4.358301   284A      4.369805   285A      4.377214  
     286A      4.397832   287A      4.401617   288A      4.409360  
     289A      4.434703   290A      4.444142   291A      4.455103  
     292A      4.463375   293A      4.483099   294A      4.501904  
     295A      4.513345   296A      4.519605   297A      4.533247  
     298A      4.548892   299A      4.572652   300A      4.587113  
     301A      4.612750   302A      4.617393   303A      4.623437  
     304A      4.637741   305A      4.662003   306A      4.674456  
     307A      4.691830   308A      4.720425   309A      4.726117  
     310A      4.765813   311A      4.773994   312A      4.787695  
     313A      4.795810   314A      4.803395   315A      4.815601  
     316A      4.823777   317A      4.844993   318A      4.852528  
     319A      4.875765   320A      4.890181   321A      4.899829  
     322A      4.913674   323A      4.925040   324A      4.943793  
     325A      4.959376   326A      4.979392   327A      5.007765  
     328A      5.030566   329A      5.034908   330A      5.059107  
     331A      5.068888   332A      5.097566   333A      5.146991  
     334A      5.170752   335A      5.177305   336A      5.201643  
     337A      5.218685   338A      5.238615   339A      5.297006  
     340A      5.310922   341A      5.330914   342A      5.361932  
     343A      5.393996   344A      5.400254   345A      5.425784  
     346A      5.470668   347A      5.476384   348A      5.509907  
     349A      5.532136   350A      5.560224   351A      5.567057  
     352A      5.622878   353A      5.675388   354A      5.683418  
     355A      5.687370   356A      5.757288   357A      5.781357  
     358A      5.793295   359A      5.835312   360A      5.849124  
     361A      5.891719   362A      5.961069   363A      5.993281  
     364A      6.033320   365A      6.083511   366A      6.133980  
     367A      6.140062   368A      6.212001   369A      6.245134  
     370A      6.321929   371A      6.368342   372A      6.385331  
     373A      6.403116   374A      6.445679   375A      6.462529  
     376A      6.518663   377A      6.615759   378A      6.699545  
     379A      6.721840   380A      6.751285   381A      6.847858  
     382A      7.085983   383A      7.385681   384A      7.421933  
     385A      7.546022   386A      7.599887   387A      7.648936  
     388A      7.813294   389A      7.914568   390A      7.981544  
     391A      8.104438   392A      8.287360   393A      8.729033  
     394A      9.371290   395A      9.864634   396A     10.198590  
     397A     12.126023   398A     14.588434   399A     15.299732  
     400A     40.550278   401A     45.806094   402A     47.107841  

    Final Occupation by Irrep:
              A 
    DOCC [    12 ]

  @DF-RHF Final Energy:  -117.11687556262297

   => Energetics <=

    Nuclear Repulsion Energy =             70.8714919729977453
    One-Electron Energy =                -296.7884276812583266
    Two-Electron Energy =                 108.8000601456376160
    Total Energy =                       -117.1168755626229654

Computation Completed


Properties will be evaluated at   0.000000,   0.000000,   0.000000 [a0]

Properties computed using the SCF density matrix

  Nuclear Dipole Moment: [e a0]
     X:   -92.1171      Y:    13.7771      Z:    -3.7738

  Electronic Dipole Moment: [e a0]
     X:    92.0344      Y:   -13.9194      Z:     3.7993

  Dipole Moment: [e a0]
     X:    -0.0827      Y:    -0.1423      Z:     0.0255     Total:     0.1665

  Dipole Moment: [D]
     X:    -0.2103      Y:    -0.3616      Z:     0.0648     Total:     0.4233


*** tstop() called on r282 at Wed Sep 15 07:32:55 2021
Module time:
	user time   =      13.51 seconds =       0.23 minutes
	system time =       0.34 seconds =       0.01 minutes
	total time  =         14 seconds =       0.23 minutes
Total time:
	user time   =      39.19 seconds =       0.65 minutes
	system time =       1.10 seconds =       0.02 minutes
	total time  =         40 seconds =       0.67 minutes

  //>>>>>>>>>>>>>>>>>>>>>>>>>>>>>>>>>>>//
  //            Monomer B HF           //
  //<<<<<<<<<<<<<<<<<<<<<<<<<<<<<<<<<<<//


*** tstart() called on r282
*** at Wed Sep 15 07:32:55 2021

   => Loading Basis Set <=

    Name: JUN-CC-PVTZ
    Role: ORBITAL
    Keyword: BASIS
    atoms 1-3, 10-12 entry C          line   217 file /home/r08543048/miniconda3/share/psi4/basis/jun-cc-pvtz.gbs 
    atoms 4-9, 13-18 entry H          line    36 file /home/r08543048/miniconda3/share/psi4/basis/jun-cc-pvtz.gbs 


         ---------------------------------------------------------
                                   SCF
               by Justin Turney, Rob Parrish, Andy Simmonett
                          and Daniel G. A. Smith
                              RHF Reference
                        1 Threads,  20980 MiB Core
         ---------------------------------------------------------

  ==> Geometry <==

    Molecular point group: c1
    Full point group: C1

    Geometry (in Angstrom), charge = 0, multiplicity = 1:

       Center              X                  Y                   Z               Mass       
    ------------   -----------------  -----------------  -----------------  -----------------
      Gh(C)          -1.388806039938     1.412287497352    -0.276124602111    12.000000000000
      Gh(C)          -2.286063039938     0.562596497352     0.230916397889    12.000000000000
      Gh(C)          -2.398049039938    -0.876487502648    -0.159237602111    12.000000000000
      Gh(H)          -1.354288039938     2.446330497352     0.037946397889     1.007825032230
      Gh(H)          -0.669501039938     1.084361497352    -1.016004602111     1.007825032230
      Gh(H)          -2.987301039938     0.926545497352     0.975092397889     1.007825032230
      Gh(H)          -3.385811039938    -1.091815502648    -0.569881602111     1.007825032230
      Gh(H)          -1.647463039938    -1.137405502648    -0.903930602111     1.007825032230
      Gh(H)          -2.264423039938    -1.527868502648     0.706436397889     1.007825032230
         C            1.388981460062    -1.412306762648     0.276653677889    12.000000000000
         C            2.285635460062    -0.562523762648    -0.231299322111    12.000000000000
         C            2.398254460062     0.876443237352     0.159082677889    12.000000000000
         H            1.353985460062    -2.446244762648    -0.037707322111     1.007825032230
         H            0.670669460062    -1.084586762648     1.017588677889     1.007825032230
         H            2.985863460062    -0.926315762648    -0.976506322111     1.007825032230
         H            2.263507460062     1.528072237352    -0.706235322111     1.007825032230
         H            1.648719460062     1.137242237352     0.904877677889     1.007825032230
         H            3.386598460062     1.091575237352     0.568428677889     1.007825032230

  Running in c1 symmetry.

  Rotational constants: A =      0.15492  B =      0.04388  C =      0.03578 [cm^-1]
  Rotational constants: A =   4644.44447  B =   1315.50796  C =   1072.76506 [MHz]
  Nuclear repulsion =   70.871383723929796

  Charge       = 0
  Multiplicity = 1
  Electrons    = 24
  Nalpha       = 12
  Nbeta        = 12

  ==> Algorithm <==

  SCF Algorithm Type is DF.
  DIIS enabled.
  MOM disabled.
  Fractional occupation disabled.
  Guess Type is SAD.
  Energy threshold   = 1.00e-08
  Density threshold  = 1.00e-08
  Integral threshold = 0.00e+00

  ==> Primary Basis <==

  Basis Set: JUN-CC-PVTZ
    Blend: JUN-CC-PVTZ
    Number of shells: 150
    Number of basis function: 402
    Number of Cartesian functions: 450
    Spherical Harmonics?: true
    Max angular momentum: 3

   => Loading Basis Set <=

    Name: (JUN-CC-PVTZ AUX)
    Role: JKFIT
    Keyword: DF_BASIS_SCF
    atoms 1-3, 10-12 entry C          line   152 file /home/r08543048/miniconda3/share/psi4/basis/jun-cc-pvtz-jkfit.gbs 
    atoms 4-9, 13-18 entry H          line    70 file /home/r08543048/miniconda3/share/psi4/basis/jun-cc-pvtz-jkfit.gbs 

  ==> Pre-Iterations <==

   -------------------------------------------------------
    Irrep   Nso     Nmo     Nalpha   Nbeta   Ndocc  Nsocc
   -------------------------------------------------------
     A        402     402       0       0       0       0
   -------------------------------------------------------
    Total     402     402      12      12      12       0
   -------------------------------------------------------

  ==> Integral Setup <==

  ==> DiskDFJK: Density-Fitted J/K Matrices <==

    J tasked:                  Yes
    K tasked:                  Yes
    wK tasked:                  No
    OpenMP threads:              1
    Integrals threads:           1
    Memory [MiB]:            15735
    Algorithm:                Core
    Integral Cache:           LOAD
    Schwarz Cutoff:          1E-12
    Fitting Condition:       1E-10

   => Auxiliary Basis Set <=

  Basis Set: (JUN-CC-PVTZ AUX)
    Blend: JUN-CC-PVTZ-JKFIT
    Number of shells: 294
    Number of basis function: 930
    Number of Cartesian functions: 1116
    Spherical Harmonics?: true
    Max angular momentum: 4

  Minimum eigenvalue in the overlap matrix is 3.8029368997E-05.
  Using Symmetric Orthogonalization.

  SCF Guess: Superposition of Atomic Densities via on-the-fly atomic UHF.

  ==> Iterations <==

                           Total Energy        Delta E     RMS |[F,P]|

   @DF-RHF iter SAD:  -116.33324040146778   -1.16333e+02   0.00000e+00 
   @DF-RHF iter   1:  -116.98772884756860   -6.54488e-01   1.14074e-03 DIIS
   @DF-RHF iter   2:  -117.09538770481448   -1.07659e-01   4.89941e-04 DIIS
   @DF-RHF iter   3:  -117.11550106274225   -2.01134e-02   8.80135e-05 DIIS
   @DF-RHF iter   4:  -117.11679535710246   -1.29429e-03   2.64933e-05 DIIS
   @DF-RHF iter   5:  -117.11686924865842   -7.38916e-05   7.12538e-06 DIIS
   @DF-RHF iter   6:  -117.11687545714585   -6.20849e-06   1.28388e-06 DIIS
   @DF-RHF iter   7:  -117.11687576516562   -3.08020e-07   4.71449e-07 DIIS
   @DF-RHF iter   8:  -117.11687580582077   -4.06552e-08   1.63189e-07 DIIS
   @DF-RHF iter   9:  -117.11687581164526   -5.82449e-09   5.93589e-08 DIIS
   @DF-RHF iter  10:  -117.11687581258515   -9.39892e-10   1.34757e-08 DIIS
   @DF-RHF iter  11:  -117.11687581262839   -4.32436e-11   2.38152e-09 DIIS
  Energy and wave function converged.


  ==> Post-Iterations <==

    Orbital Energies [Eh]
    ---------------------

    Doubly Occupied:                                                      

       1A    -11.234389     2A    -11.220818     3A    -11.217531  
       4A     -1.064932     5A     -0.932795     6A     -0.758093  
       7A     -0.640065     8A     -0.582622     9A     -0.568358  
      10A     -0.523405    11A     -0.493152    12A     -0.357997  

    Virtual:                                                              

      13A      0.036212    14A      0.047642    15A      0.055740  
      16A      0.061602    17A      0.068014    18A      0.069499  
      19A      0.088700    20A      0.094840    21A      0.096498  
      22A      0.104185    23A      0.107746    24A      0.116173  
      25A      0.120521    26A      0.126152    27A      0.131812  
      28A      0.142819    29A      0.143489    30A      0.150968  
      31A      0.156355    32A      0.164233    33A      0.170431  
      34A      0.173809    35A      0.187436    36A      0.202937  
      37A      0.211426    38A      0.238157    39A      0.247099  
      40A      0.251239    41A      0.261359    42A      0.274513  
      43A      0.282607    44A      0.285506    45A      0.297812  
      46A      0.312380    47A      0.320769    48A      0.325265  
      49A      0.336183    50A      0.336448    51A      0.343989  
      52A      0.355262    53A      0.356947    54A      0.359000  
      55A      0.365915    56A      0.369692    57A      0.378312  
      58A      0.385549    59A      0.391978    60A      0.400795  
      61A      0.407013    62A      0.414525    63A      0.426801  
      64A      0.432935    65A      0.440317    66A      0.443189  
      67A      0.454742    68A      0.460653    69A      0.475393  
      70A      0.480690    71A      0.497948    72A      0.505466  
      73A      0.512729    74A      0.523567    75A      0.528095  
      76A      0.541984    77A      0.558006    78A      0.559687  
      79A      0.564900    80A      0.570960    81A      0.585063  
      82A      0.593539    83A      0.606183    84A      0.618852  
      85A      0.621859    86A      0.634222    87A      0.651537  
      88A      0.670366    89A      0.687725    90A      0.702015  
      91A      0.713815    92A      0.713931    93A      0.728916  
      94A      0.745957    95A      0.750940    96A      0.766445  
      97A      0.783494    98A      0.788413    99A      0.797212  
     100A      0.809478   101A      0.824027   102A      0.832908  
     103A      0.848033   104A      0.867636   105A      0.878056  
     106A      0.897103   107A      0.917283   108A      0.943375  
     109A      0.964362   110A      0.983175   111A      1.017174  
     112A      1.050602   113A      1.058998   114A      1.070954  
     115A      1.088203   116A      1.093546   117A      1.113999  
     118A      1.114741   119A      1.118362   120A      1.134881  
     121A      1.144465   122A      1.153675   123A      1.161522  
     124A      1.171531   125A      1.204115   126A      1.212543  
     127A      1.222154   128A      1.234364   129A      1.244170  
     130A      1.251097   131A      1.265891   132A      1.276827  
     133A      1.289194   134A      1.296762   135A      1.318593  
     136A      1.330996   137A      1.331262   138A      1.343279  
     139A      1.349077   140A      1.363619   141A      1.371433  
     142A      1.393812   143A      1.404262   144A      1.421710  
     145A      1.425859   146A      1.434423   147A      1.447606  
     148A      1.453528   149A      1.468043   150A      1.480659  
     151A      1.495017   152A      1.505095   153A      1.518325  
     154A      1.536465   155A      1.546699   156A      1.563801  
     157A      1.567383   158A      1.579610   159A      1.598865  
     160A      1.613752   161A      1.619146   162A      1.624908  
     163A      1.629312   164A      1.642338   165A      1.647803  
     166A      1.663877   167A      1.667206   168A      1.683376  
     169A      1.715346   170A      1.744127   171A      1.748841  
     172A      1.770898   173A      1.787603   174A      1.809011  
     175A      1.850864   176A      1.879607   177A      1.893032  
     178A      1.908427   179A      1.980077   180A      2.003865  
     181A      2.032710   182A      2.054895   183A      2.067602  
     184A      2.082886   185A      2.102599   186A      2.206913  
     187A      2.231140   188A      2.248261   189A      2.344625  
     190A      2.368615   191A      2.447373   192A      2.521433  
     193A      2.544751   194A      2.618940   195A      2.669942  
     196A      2.721372   197A      2.764760   198A      2.790662  
     199A      2.802144   200A      2.827176   201A      2.851245  
     202A      2.880452   203A      2.898126   204A      2.921819  
     205A      2.980331   206A      3.004746   207A      3.048253  
     208A      3.065820   209A      3.080759   210A      3.093980  
     211A      3.159434   212A      3.170652   213A      3.192450  
     214A      3.221311   215A      3.244298   216A      3.254717  
     217A      3.295391   218A      3.309604   219A      3.324888  
     220A      3.351608   221A      3.382836   222A      3.391743  
     223A      3.419810   224A      3.424507   225A      3.442137  
     226A      3.444665   227A      3.482915   228A      3.497567  
     229A      3.504668   230A      3.518692   231A      3.543497  
     232A      3.555712   233A      3.566437   234A      3.587729  
     235A      3.597231   236A      3.602318   237A      3.629546  
     238A      3.637766   239A      3.658783   240A      3.667274  
     241A      3.679127   242A      3.703079   243A      3.707507  
     244A      3.713414   245A      3.741769   246A      3.756374  
     247A      3.768580   248A      3.784187   249A      3.793260  
     250A      3.803494   251A      3.807779   252A      3.839606  
     253A      3.850372   254A      3.869010   255A      3.886933  
     256A      3.910530   257A      3.926436   258A      3.972064  
     259A      3.978695   260A      3.994433   261A      4.023001  
     262A      4.039564   263A      4.049159   264A      4.062832  
     265A      4.070419   266A      4.088068   267A      4.100885  
     268A      4.111258   269A      4.130797   270A      4.152797  
     271A      4.166905   272A      4.174503   273A      4.186775  
     274A      4.205363   275A      4.211487   276A      4.250083  
     277A      4.266969   278A      4.279037   279A      4.293892  
     280A      4.303857   281A      4.319212   282A      4.338038  
     283A      4.358301   284A      4.369792   285A      4.377197  
     286A      4.397865   287A      4.401686   288A      4.409422  
     289A      4.434722   290A      4.444214   291A      4.455034  
     292A      4.463305   293A      4.483052   294A      4.501878  
     295A      4.513372   296A      4.519586   297A      4.533244  
     298A      4.548922   299A      4.572658   300A      4.587103  
     301A      4.612787   302A      4.617430   303A      4.623452  
     304A      4.637760   305A      4.662010   306A      4.674420  
     307A      4.691894   308A      4.720429   309A      4.726101  
     310A      4.765839   311A      4.773859   312A      4.787710  
     313A      4.795805   314A      4.803374   315A      4.815583  
     316A      4.823748   317A      4.845028   318A      4.852552  
     319A      4.875862   320A      4.890272   321A      4.899868  
     322A      4.913666   323A      4.925088   324A      4.943767  
     325A      4.959407   326A      4.979344   327A      5.007821  
     328A      5.030555   329A      5.034884   330A      5.059046  
     331A      5.068890   332A      5.097513   333A      5.146968  
     334A      5.170745   335A      5.177298   336A      5.201630  
     337A      5.218673   338A      5.238648   339A      5.296984  
     340A      5.310932   341A      5.330930   342A      5.361895  
     343A      5.393983   344A      5.400272   345A      5.425802  
     346A      5.470664   347A      5.476382   348A      5.509884  
     349A      5.532151   350A      5.560230   351A      5.567049  
     352A      5.622864   353A      5.675410   354A      5.683409  
     355A      5.687381   356A      5.757287   357A      5.781359  
     358A      5.793298   359A      5.835297   360A      5.849117  
     361A      5.891723   362A      5.961057   363A      5.993264  
     364A      6.033341   365A      6.083557   366A      6.133989  
     367A      6.140068   368A      6.211968   369A      6.245146  
     370A      6.321906   371A      6.368412   372A      6.385345  
     373A      6.403106   374A      6.445660   375A      6.462554  
     376A      6.518678   377A      6.615766   378A      6.699562  
     379A      6.721866   380A      6.751281   381A      6.847871  
     382A      7.085986   383A      7.385656   384A      7.421930  
     385A      7.545962   386A      7.599891   387A      7.648954  
     388A      7.813303   389A      7.914595   390A      7.981555  
     391A      8.104461   392A      8.287357   393A      8.729025  
     394A      9.371275   395A      9.864541   396A     10.198573  
     397A     12.126025   398A     14.588606   399A     15.299928  
     400A     40.550324   401A     45.805857   402A     47.107446  

    Final Occupation by Irrep:
              A 
    DOCC [    12 ]

  @DF-RHF Final Energy:  -117.11687581262839

   => Energetics <=

    Nuclear Repulsion Energy =             70.8713837239297959
    One-Electron Energy =                -296.7882085665784189
    Two-Electron Energy =                 108.7999490300202297
    Total Energy =                       -117.1168758126283933

Computation Completed


Properties will be evaluated at   0.000000,   0.000000,   0.000000 [a0]

Properties computed using the SCF density matrix

  Nuclear Dipole Moment: [e a0]
     X:    92.1177      Y:   -13.7772      Z:     3.7739

  Electronic Dipole Moment: [e a0]
     X:   -92.0350      Y:    13.9195      Z:    -3.7995

  Dipole Moment: [e a0]
     X:     0.0827      Y:     0.1423      Z:    -0.0256     Total:     0.1665

  Dipole Moment: [D]
     X:     0.2102      Y:     0.3616      Z:    -0.0649     Total:     0.4233


*** tstop() called on r282 at Wed Sep 15 07:33:10 2021
Module time:
	user time   =      14.50 seconds =       0.24 minutes
	system time =       0.32 seconds =       0.01 minutes
	total time  =         15 seconds =       0.25 minutes
Total time:
	user time   =      53.69 seconds =       0.89 minutes
	system time =       1.43 seconds =       0.02 minutes
	total time  =         55 seconds =       0.92 minutes
  Constructing Basis Sets for SAPT...

   => Loading Basis Set <=

    Name: (JUN-CC-PVTZ AUX)
    Role: RIFIT
    Keyword: DF_BASIS_SAPT
    atoms 1-3, 10-12 entry C          line   132 file /home/r08543048/miniconda3/share/psi4/basis/jun-cc-pvtz-ri.gbs 
    atoms 4-9, 13-18 entry H          line    30 file /home/r08543048/miniconda3/share/psi4/basis/jun-cc-pvtz-ri.gbs 


  //>>>>>>>>>>>>>>>>>>>>>>>>>>>>>>>>>>>//
  //               SAPT0               //
  //<<<<<<<<<<<<<<<<<<<<<<<<<<<<<<<<<<<//


*** tstart() called on r282
*** at Wed Sep 15 07:33:10 2021

        SAPT0  
    Ed Hohenstein
     6 June 2009

      Orbital Information
  --------------------------
    NSO        =       402
    NMO        =       402
    NRI        =       942
    NOCC A     =        12
    NOCC B     =        12
    FOCC A     =         0
    FOCC B     =         0
    NVIR A     =       390
    NVIR B     =       390

    Elst10,r            =    -0.001394558279 [Eh]
    Exch10              =     0.002756331993 [Eh]
    Exch10 (S^2)        =     0.002751635089 [Eh]

    Iter     Energy [mEh]          dE [mEh]         Residual      Time [s]
       1      -0.29954471       0.299544706       2.232069660             1
       2      -0.36416659       0.064621884       0.678588928             1
       3      -0.36737797       0.003211376       0.181373255             2
       4      -0.36597418      -0.001403782       0.064123157             2
       5      -0.36580187      -0.000172315       0.015309251             3
       6      -0.36587450       0.000072634       0.005930267             3
       7      -0.36589786       0.000023358       0.001622143             4
       8      -0.36588731      -0.000010553       0.000453674             4
       9      -0.36588839       0.000001082       0.000148167             5
      10      -0.36588877       0.000000382       0.000036407             5
      11      -0.36588867      -0.000000096       0.000008829             6
      12      -0.36588867      -0.000000006       0.000002040             6
      13      -0.36588867       0.000000005       0.000000434             6

    CHF Iterations converged


    Iter     Energy [mEh]          dE [mEh]         Residual      Time [s]
       1      -0.29974370       0.299743705       2.232974751             1
       2      -0.36448175       0.064738048       0.678737121             1
       3      -0.36768356       0.003201811       0.181634876             2
       4      -0.36627799      -0.001405579       0.064216041             2
       5      -0.36610541      -0.000172579       0.015330017             3
       6      -0.36617823       0.000072824       0.005929672             3
       7      -0.36620156       0.000023326       0.001622811             4
       8      -0.36619100      -0.000010554       0.000453808             4
       9      -0.36619209       0.000001084       0.000148160             4
      10      -0.36619247       0.000000381       0.000036444             5
      11      -0.36619237      -0.000000096       0.000008854             5
      12      -0.36619236      -0.000000006       0.000002046             6
      13      -0.36619237       0.000000005       0.000000435             6

    CHF Iterations converged

    Ind20,r (A<-B)      =    -0.000365888674 [Eh]
    Ind20,r (B<-A)      =    -0.000366192370 [Eh]
    Ind20,r             =    -0.000732081044 [Eh]
    Exch-Ind20,r (A<-B) =     0.000323424157 [Eh]
    Exch-Ind20,r (B<-A) =     0.000323751580 [Eh]
    Exch-Ind20,r        =     0.000647175736 [Eh]
    Disp20              =    -0.004448642096 [Eh]
    Disp20 (SS)         =    -0.002224321048 [Eh]
    Disp20 (OS)         =    -0.002224321048 [Eh]
    Exch-Disp20         =     0.000375702441 [Eh]
    Exch-Disp20 (SS)    =     0.000247551539 [Eh]
    Exch-Disp20 (OS)    =     0.000128150902 [Eh]

    SAPT Results 
  --------------------------------------------------------------------------------------------------------
    Electrostatics                 -1.39455828 [mEh]      -0.87509853 [kcal/mol]      -3.66141226 [kJ/mol]
      Elst10,r                     -1.39455828 [mEh]      -0.87509853 [kcal/mol]      -3.66141226 [kJ/mol]

    Exchange                        2.75633199 [mEh]       1.72962444 [kcal/mol]       7.23674865 [kJ/mol]
      Exch10                        2.75633199 [mEh]       1.72962444 [kcal/mol]       7.23674865 [kJ/mol]
      Exch10(S^2)                   2.75163509 [mEh]       1.72667709 [kcal/mol]       7.22441693 [kJ/mol]

    Induction                      -0.29458627 [mEh]      -0.18485567 [kcal/mol]      -0.77343614 [kJ/mol]
      Ind20,r                      -0.73208104 [mEh]      -0.45938779 [kcal/mol]      -1.92207852 [kJ/mol]
      Exch-Ind20,r                  0.64717574 [mEh]       0.40610891 [kcal/mol]       1.69915966 [kJ/mol]
      delta HF,r (2)               -0.20968096 [mEh]      -0.13157679 [kcal/mol]      -0.55051729 [kJ/mol]

    Dispersion                     -4.07293966 [mEh]      -2.55580822 [kcal/mol]     -10.69350159 [kJ/mol]
      Disp20                       -4.44864210 [mEh]      -2.79156506 [kcal/mol]     -11.67990821 [kJ/mol]
      Exch-Disp20                   0.37570244 [mEh]       0.23575684 [kcal/mol]       0.98640662 [kJ/mol]
      Disp20 (SS)                  -2.22432105 [mEh]      -1.39578253 [kcal/mol]      -5.83995411 [kJ/mol]
      Disp20 (OS)                  -2.22432105 [mEh]      -1.39578253 [kcal/mol]      -5.83995411 [kJ/mol]
      Exch-Disp20 (SS)              0.24755154 [mEh]       0.15534094 [kcal/mol]       0.64994648 [kJ/mol]
      Exch-Disp20 (OS)              0.12815090 [mEh]       0.08041590 [kcal/mol]       0.33646015 [kJ/mol]

  Total HF                          1.06718744 [mEh]       0.66967023 [kcal/mol]       2.80190025 [kJ/mol]
  Total SAPT0                      -3.00575221 [mEh]      -1.88613799 [kcal/mol]      -7.89160134 [kJ/mol]

  Special recipe for scaled SAPT0 (see Manual):
    Electrostatics sSAPT0          -1.39455828 [mEh]      -0.87509853 [kcal/mol]      -3.66141226 [kJ/mol]
    Exchange sSAPT0                 2.75633199 [mEh]       1.72962444 [kcal/mol]       7.23674865 [kJ/mol]
    Induction sSAPT0               -0.29126652 [mEh]      -0.18277250 [kcal/mol]      -0.76472014 [kJ/mol]
    Dispersion sSAPT0              -4.07101245 [mEh]      -2.55459888 [kcal/mol]     -10.68844172 [kJ/mol]
  Total sSAPT0                     -3.00050526 [mEh]      -1.88284548 [kcal/mol]      -7.87782547 [kJ/mol]
  --------------------------------------------------------------------------------------------------------

*** tstop() called on r282 at Wed Sep 15 07:34:02 2021
Module time:
	user time   =      42.21 seconds =       0.70 minutes
	system time =       8.42 seconds =       0.14 minutes
	total time  =         52 seconds =       0.87 minutes
Total time:
	user time   =      96.02 seconds =       1.60 minutes
	system time =       9.85 seconds =       0.16 minutes
	total time  =        107 seconds =       1.78 minutes

    Psi4 stopped on: Wednesday, 15 September 2021 07:34AM
    Psi4 wall time for execution: 0:01:47.55

*** Psi4 exiting successfully. Buy a developer a beer!
