
    -----------------------------------------------------------------------
          Psi4: An Open-Source Ab Initio Electronic Structure Package
                               Psi4 1.3.2 release

                         Git: Rev {HEAD} ecbda83 


    R. M. Parrish, L. A. Burns, D. G. A. Smith, A. C. Simmonett,
    A. E. DePrince III, E. G. Hohenstein, U. Bozkaya, A. Yu. Sokolov,
    R. Di Remigio, R. M. Richard, J. F. Gonthier, A. M. James,
    H. R. McAlexander, A. Kumar, M. Saitow, X. Wang, B. P. Pritchard,
    P. Verma, H. F. Schaefer III, K. Patkowski, R. A. King, E. F. Valeev,
    F. A. Evangelista, J. M. Turney, T. D. Crawford, and C. D. Sherrill,
    J. Chem. Theory Comput. 13(7) pp 3185--3197 (2017).
    (doi: 10.1021/acs.jctc.7b00174)


                         Additional Contributions by
    P. Kraus, H. Kruse, M. H. Lechner, M. C. Schieber, R. A. Shaw,
    A. Alenaizan, R. Galvelis, Z. L. Glick, S. Lehtola, and J. P. Misiewicz

    -----------------------------------------------------------------------


    Psi4 started on: Wednesday, 15 September 2021 07:10AM

    Process ID: 4556
    Host:       r282
    PSIDATADIR: /home/r08543048/miniconda3/share/psi4
    Memory:     500.0 MiB
    Threads:    1
    
  ==> Input File <==

--------------------------------------------------------------------------
# Any line starting with the # character is a comment line
#! Sample  computation

memory 22 gb

molecule Dimer {

0 1
C         -1.30395400   1.32600100   -0.2592390
C         -2.20121100   0.47631000   0.2478020
C         -2.31319700   -0.96277400   -0.1423520
H         -1.26943600   2.36004400   0.0548320
H         -0.58464900   0.99807500   -0.9991190
H         -2.90244900   0.84025900   0.9919780
H         -3.30095900   -1.17810200   -0.5529960
H         -1.56261100   -1.22369200   -0.8870450
H         -2.17957100   -1.61415500   0.7233220
--
0 1
C         1.30411800   -1.32601800   0.2597660
C         2.20077200   -0.47623500   -0.2481870
C         2.31339100   0.96273200   0.1421950
H         1.26912200   -2.35995600   -0.0545950
H         0.58580600   -0.99829800   1.0007010
H         2.90100000   -0.84002700   -0.9933940
H         2.17864400   1.61436100   -0.7231230
H         1.56385600   1.22353100   0.8879900
H         3.30173500   1.17786400   0.5515410

units angstrom
no_reorient
symmetry c1
}

set globals{
  basis jun-cc-pvtz
}

energy('sapt0')
--------------------------------------------------------------------------

  Memory set to  20.489 GiB by Python driver.

  //>>>>>>>>>>>>>>>>>>>>>>>>>>>>>>>>>>>//
  //              Dimer HF             //
  //<<<<<<<<<<<<<<<<<<<<<<<<<<<<<<<<<<<//


*** tstart() called on r282
*** at Wed Sep 15 07:10:59 2021

   => Loading Basis Set <=

    Name: JUN-CC-PVTZ
    Role: ORBITAL
    Keyword: BASIS
    atoms 1-3, 10-12 entry C          line   217 file /home/r08543048/miniconda3/share/psi4/basis/jun-cc-pvtz.gbs 
    atoms 4-9, 13-18 entry H          line    36 file /home/r08543048/miniconda3/share/psi4/basis/jun-cc-pvtz.gbs 


         ---------------------------------------------------------
                                   SCF
               by Justin Turney, Rob Parrish, Andy Simmonett
                          and Daniel G. A. Smith
                              RHF Reference
                        1 Threads,  20980 MiB Core
         ---------------------------------------------------------

  ==> Geometry <==

    Molecular point group: c1
    Full point group: C1

    Geometry (in Angstrom), charge = 0, multiplicity = 1:

       Center              X                  Y                   Z               Mass       
    ------------   -----------------  -----------------  -----------------  -----------------
         C           -1.303948289938     1.325999867352    -0.259237962111    12.000000000000
         C           -2.201205289938     0.476308867352     0.247803037889    12.000000000000
         C           -2.313191289938    -0.962775132648    -0.142350962111    12.000000000000
         H           -1.269430289938     2.360042867352     0.054833037889     1.007825032230
         H           -0.584643289938     0.998073867352    -0.999117962111     1.007825032230
         H           -2.902443289938     0.840257867352     0.991979037889     1.007825032230
         H           -3.300953289938    -1.178103132648    -0.552994962111     1.007825032230
         H           -1.562605289938    -1.223693132648    -0.887043962111     1.007825032230
         H           -2.179565289938    -1.614156132648     0.723323037889     1.007825032230
         C            1.304123710062    -1.326019132648     0.259767037889    12.000000000000
         C            2.200777710062    -0.476236132648    -0.248185962111    12.000000000000
         C            2.313396710062     0.962730867352     0.142196037889    12.000000000000
         H            1.269127710062    -2.359957132648    -0.054593962111     1.007825032230
         H            0.585811710062    -0.998299132648     1.000702037889     1.007825032230
         H            2.901005710062    -0.840028132648    -0.993392962111     1.007825032230
         H            2.178649710062     1.614359867352    -0.723121962111     1.007825032230
         H            1.563861710062     1.223529867352     0.887991037889     1.007825032230
         H            3.301740710062     1.177862867352     0.551542037889     1.007825032230

  Running in c1 symmetry.

  Rotational constants: A =      0.15862  B =      0.04764  C =      0.03844 [cm^-1]
  Rotational constants: A =   4755.35230  B =   1428.07923  C =   1152.47554 [MHz]
  Nuclear repulsion =  214.846038507967364

  Charge       = 0
  Multiplicity = 1
  Electrons    = 48
  Nalpha       = 24
  Nbeta        = 24

  ==> Algorithm <==

  SCF Algorithm Type is DF.
  DIIS enabled.
  MOM disabled.
  Fractional occupation disabled.
  Guess Type is SAD.
  Energy threshold   = 1.00e-08
  Density threshold  = 1.00e-08
  Integral threshold = 0.00e+00

  ==> Primary Basis <==

  Basis Set: JUN-CC-PVTZ
    Blend: JUN-CC-PVTZ
    Number of shells: 150
    Number of basis function: 402
    Number of Cartesian functions: 450
    Spherical Harmonics?: true
    Max angular momentum: 3

   => Loading Basis Set <=

    Name: (JUN-CC-PVTZ AUX)
    Role: JKFIT
    Keyword: DF_BASIS_SCF
    atoms 1-3, 10-12 entry C          line   152 file /home/r08543048/miniconda3/share/psi4/basis/jun-cc-pvtz-jkfit.gbs 
    atoms 4-9, 13-18 entry H          line    70 file /home/r08543048/miniconda3/share/psi4/basis/jun-cc-pvtz-jkfit.gbs 

  ==> Pre-Iterations <==

   -------------------------------------------------------
    Irrep   Nso     Nmo     Nalpha   Nbeta   Ndocc  Nsocc
   -------------------------------------------------------
     A        402     402       0       0       0       0
   -------------------------------------------------------
    Total     402     402      24      24      24       0
   -------------------------------------------------------

  ==> Integral Setup <==

  ==> DiskDFJK: Density-Fitted J/K Matrices <==

    J tasked:                  Yes
    K tasked:                  Yes
    wK tasked:                  No
    OpenMP threads:              1
    Integrals threads:           1
    Memory [MiB]:            15735
    Algorithm:                Core
    Integral Cache:           SAVE
    Schwarz Cutoff:          1E-12
    Fitting Condition:       1E-10

   => Auxiliary Basis Set <=

  Basis Set: (JUN-CC-PVTZ AUX)
    Blend: JUN-CC-PVTZ-JKFIT
    Number of shells: 294
    Number of basis function: 930
    Number of Cartesian functions: 1116
    Spherical Harmonics?: true
    Max angular momentum: 4

  Minimum eigenvalue in the overlap matrix is 3.7131250496E-05.
  Using Symmetric Orthogonalization.

  SCF Guess: Superposition of Atomic Densities via on-the-fly atomic UHF.

  ==> Iterations <==

                           Total Energy        Delta E     RMS |[F,P]|

   @DF-RHF iter SAD:  -232.76941059065047   -2.32769e+02   0.00000e+00 
   @DF-RHF iter   1:  -233.97422281543689   -1.20481e+00   1.60505e-03 DIIS
   @DF-RHF iter   2:  -234.18860681313731   -2.14384e-01   6.89261e-04 DIIS
   @DF-RHF iter   3:  -234.22862208228452   -4.00153e-02   1.24769e-04 DIIS
   @DF-RHF iter   4:  -234.23128582353104   -2.66374e-03   3.16995e-05 DIIS
   @DF-RHF iter   5:  -234.23140347189570   -1.17648e-04   1.04429e-05 DIIS
   @DF-RHF iter   6:  -234.23141570782514   -1.22359e-05   2.04189e-06 DIIS
   @DF-RHF iter   7:  -234.23141657729371   -8.69469e-07   8.26223e-07 DIIS
   @DF-RHF iter   8:  -234.23141671943998   -1.42146e-07   2.93020e-07 DIIS
   @DF-RHF iter   9:  -234.23141674081165   -2.13717e-08   1.07415e-07 DIIS
   @DF-RHF iter  10:  -234.23141674390394   -3.09228e-09   2.33987e-08 DIIS
   @DF-RHF iter  11:  -234.23141674403064   -1.26704e-10   5.60079e-09 DIIS
  Energy and wave function converged.


  ==> Post-Iterations <==

    Orbital Energies [Eh]
    ---------------------

    Doubly Occupied:                                                      

       1A    -11.232068     2A    -11.232058     3A    -11.218160  
       4A    -11.218146     5A    -11.215263     6A    -11.215249  
       7A     -1.064759     8A     -1.061323     9A     -0.932559  
      10A     -0.929201    11A     -0.759640    12A     -0.753011  
      13A     -0.638915    14A     -0.637865    15A     -0.583700  
      16A     -0.580259    17A     -0.565854    18A     -0.564392  
      19A     -0.522164    20A     -0.520086    21A     -0.491363  
      22A     -0.490457    23A     -0.359663    24A     -0.352991  

    Virtual:                                                              

      25A      0.052734    26A      0.054570    27A      0.058112  
      28A      0.067632    29A      0.069658    30A      0.073176  
      31A      0.092201    32A      0.096081    33A      0.104588  
      34A      0.106442    35A      0.115646    36A      0.120296  
      37A      0.125286    38A      0.132122    39A      0.136514  
      40A      0.143627    41A      0.152048    42A      0.157406  
      43A      0.169826    44A      0.175901    45A      0.179876  
      46A      0.190175    47A      0.198754    48A      0.203644  
      49A      0.205645    50A      0.225352    51A      0.248273  
      52A      0.255415    53A      0.272599    54A      0.279486  
      55A      0.290216    56A      0.294672    57A      0.300319  
      58A      0.312778    59A      0.316741    60A      0.330742  
      61A      0.336665    62A      0.340437    63A      0.343289  
      64A      0.348711    65A      0.353796    66A      0.363041  
      67A      0.363075    68A      0.372531    69A      0.381108  
      70A      0.383876    71A      0.401866    72A      0.406876  
      73A      0.411508    74A      0.411750    75A      0.417775  
      76A      0.424645    77A      0.426431    78A      0.436911  
      79A      0.458676    80A      0.460742    81A      0.480580  
      82A      0.487031    83A      0.487724    84A      0.511599  
      85A      0.512529    86A      0.520206    87A      0.526027  
      88A      0.541355    89A      0.542259    90A      0.547944  
      91A      0.562630    92A      0.567386    93A      0.576959  
      94A      0.591623    95A      0.618319    96A      0.626041  
      97A      0.677799    98A      0.678912    99A      0.701766  
     100A      0.706447   101A      0.710041   102A      0.718767  
     103A      0.738109   104A      0.739426   105A      0.740790  
     106A      0.755096   107A      0.764099   108A      0.771608  
     109A      0.773677   110A      0.793289   111A      0.809829  
     112A      0.812300   113A      0.817497   114A      0.828167  
     115A      0.851248   116A      0.856288   117A      0.860938  
     118A      0.867688   119A      0.884070   120A      0.895674  
     121A      0.898606   122A      0.922633   123A      0.927152  
     124A      0.933370   125A      0.954746   126A      0.967188  
     127A      0.967783   128A      0.988001   129A      0.995972  
     130A      1.015421   131A      1.039941   132A      1.065478  
     133A      1.079298   134A      1.080999   135A      1.092398  
     136A      1.108700   137A      1.117489   138A      1.130220  
     139A      1.131130   140A      1.145513   141A      1.166852  
     142A      1.186339   143A      1.193353   144A      1.207118  
     145A      1.222248   146A      1.243347   147A      1.252190  
     148A      1.266715   149A      1.307325   150A      1.310565  
     151A      1.317010   152A      1.318327   153A      1.355582  
     154A      1.361274   155A      1.371502   156A      1.390349  
     157A      1.415388   158A      1.422997   159A      1.428614  
     160A      1.437153   161A      1.463360   162A      1.486808  
     163A      1.489852   164A      1.499406   165A      1.504312  
     166A      1.527338   167A      1.537323   168A      1.545481  
     169A      1.564143   170A      1.578324   171A      1.588797  
     172A      1.603695   173A      1.618385   174A      1.626784  
     175A      1.630181   176A      1.641437   177A      1.654332  
     178A      1.658530   179A      1.674272   180A      1.689666  
     181A      1.742367   182A      1.745404   183A      1.759812  
     184A      1.774350   185A      1.791131   186A      1.793266  
     187A      1.852929   188A      1.862453   189A      1.889514  
     190A      1.902565   191A      1.913972   192A      1.919995  
     193A      2.036894   194A      2.040627   195A      2.057543  
     196A      2.073656   197A      2.206480   198A      2.221879  
     199A      2.587876   200A      2.643471   201A      2.703196  
     202A      2.722867   203A      2.757844   204A      2.765046  
     205A      2.779625   206A      2.780870   207A      2.817470  
     208A      2.822131   209A      2.825370   210A      2.843069  
     211A      2.859533   212A      2.864513   213A      2.894883  
     214A      2.899856   215A      2.908947   216A      2.931512  
     217A      2.948201   218A      2.994757   219A      3.010939  
     220A      3.024048   221A      3.050550   222A      3.062445  
     223A      3.067484   224A      3.071795   225A      3.090757  
     226A      3.096941   227A      3.112943   228A      3.135853  
     229A      3.153012   230A      3.158182   231A      3.169411  
     232A      3.180359   233A      3.186720   234A      3.198293  
     235A      3.230217   236A      3.232396   237A      3.253730  
     238A      3.261191   239A      3.275901   240A      3.287116  
     241A      3.299475   242A      3.314265   243A      3.317096  
     244A      3.329660   245A      3.332404   246A      3.341044  
     247A      3.351263   248A      3.368235   249A      3.397235  
     250A      3.397295   251A      3.405970   252A      3.418587  
     253A      3.425455   254A      3.436415   255A      3.444340  
     256A      3.448054   257A      3.471777   258A      3.494522  
     259A      3.513025   260A      3.513084   261A      3.525294  
     262A      3.537591   263A      3.544825   264A      3.561493  
     265A      3.588157   266A      3.599740   267A      3.603787  
     268A      3.607843   269A      3.636391   270A      3.653978  
     271A      3.671287   272A      3.691979   273A      3.698741  
     274A      3.710306   275A      3.750223   276A      3.756987  
     277A      3.759908   278A      3.779792   279A      3.792331  
     280A      3.793229   281A      3.801589   282A      3.813363  
     283A      3.820899   284A      3.845048   285A      3.855895  
     286A      3.861381   287A      3.900066   288A      3.937932  
     289A      3.972260   290A      3.986408   291A      3.992906  
     292A      4.012161   293A      4.044443   294A      4.061481  
     295A      4.069285   296A      4.070889   297A      4.092530  
     298A      4.096242   299A      4.137704   300A      4.139879  
     301A      4.156208   302A      4.173557   303A      4.209056  
     304A      4.215889   305A      4.268149   306A      4.272530  
     307A      4.288518   308A      4.296780   309A      4.311262  
     310A      4.324710   311A      4.337577   312A      4.359545  
     313A      4.376561   314A      4.377124   315A      4.386735  
     316A      4.395574   317A      4.410274   318A      4.412292  
     319A      4.435323   320A      4.436094   321A      4.438733  
     322A      4.491977   323A      4.493606   324A      4.505126  
     325A      4.524264   326A      4.535312   327A      4.544741  
     328A      4.548033   329A      4.602892   330A      4.603185  
     331A      4.623556   332A      4.632887   333A      4.640595  
     334A      4.686003   335A      4.692018   336A      4.708715  
     337A      4.777509   338A      4.786296   339A      4.812950  
     340A      4.828687   341A      4.838109   342A      4.846532  
     343A      4.898040   344A      4.916438   345A      4.917098  
     346A      4.935611   347A      5.035553   348A      5.046081  
     349A      5.076418   350A      5.081724   351A      5.178128  
     352A      5.181809   353A      5.198039   354A      5.204986  
     355A      5.226712   356A      5.229813   357A      5.300740  
     358A      5.302671   359A      5.326547   360A      5.332992  
     361A      5.360965   362A      5.370117   363A      5.387570  
     364A      5.408346   365A      5.432343   366A      5.434218  
     367A      5.479463   368A      5.483480   369A      5.565811  
     370A      5.574629   371A      5.624483   372A      5.627989  
     373A      5.681002   374A      5.690034   375A      5.691487  
     376A      5.703538   377A      5.761156   378A      5.765047  
     379A      5.778846   380A      5.791950   381A      5.851906  
     382A      5.854832   383A      5.963173   384A      5.970363  
     385A      6.089946   386A      6.092478   387A      6.381806  
     388A      6.395497   389A      6.442738   390A      6.456632  
     391A      6.469430   392A      6.471027   393A      6.524092  
     394A      6.525140   395A      6.702554   396A      6.703662  
     397A     12.145309   398A     12.160566   399A     14.630995  
     400A     14.645631   401A     15.294720   402A     15.376756  

    Final Occupation by Irrep:
              A 
    DOCC [    24 ]

  @DF-RHF Final Energy:  -234.23141674403064

   => Energetics <=

    Nuclear Repulsion Energy =            214.8460385079673642
    One-Electron Energy =                -739.8766179187775833
    Two-Electron Energy =                 290.7991626667795799
    Total Energy =                       -234.2314167440306392

Computation Completed


Properties will be evaluated at   0.000000,   0.000000,   0.000000 [a0]

Properties computed using the SCF density matrix

  Nuclear Dipole Moment: [e a0]
     X:     0.0005      Y:    -0.0001      Z:     0.0001

  Electronic Dipole Moment: [e a0]
     X:    -0.0004      Y:     0.0001      Z:    -0.0001

  Dipole Moment: [e a0]
     X:     0.0001      Y:    -0.0000      Z:    -0.0000     Total:     0.0001

  Dipole Moment: [D]
     X:     0.0002      Y:    -0.0001      Z:    -0.0001     Total:     0.0003


*** tstop() called on r282 at Wed Sep 15 07:11:26 2021
Module time:
	user time   =      26.40 seconds =       0.44 minutes
	system time =       0.76 seconds =       0.01 minutes
	total time  =         27 seconds =       0.45 minutes
Total time:
	user time   =      26.40 seconds =       0.44 minutes
	system time =       0.76 seconds =       0.01 minutes
	total time  =         27 seconds =       0.45 minutes

  //>>>>>>>>>>>>>>>>>>>>>>>>>>>>>>>>>>>//
  //            Monomer A HF           //
  //<<<<<<<<<<<<<<<<<<<<<<<<<<<<<<<<<<<//


*** tstart() called on r282
*** at Wed Sep 15 07:11:26 2021

   => Loading Basis Set <=

    Name: JUN-CC-PVTZ
    Role: ORBITAL
    Keyword: BASIS
    atoms 1-3, 10-12 entry C          line   217 file /home/r08543048/miniconda3/share/psi4/basis/jun-cc-pvtz.gbs 
    atoms 4-9, 13-18 entry H          line    36 file /home/r08543048/miniconda3/share/psi4/basis/jun-cc-pvtz.gbs 


         ---------------------------------------------------------
                                   SCF
               by Justin Turney, Rob Parrish, Andy Simmonett
                          and Daniel G. A. Smith
                              RHF Reference
                        1 Threads,  20980 MiB Core
         ---------------------------------------------------------

  ==> Geometry <==

    Molecular point group: c1
    Full point group: C1

    Geometry (in Angstrom), charge = 0, multiplicity = 1:

       Center              X                  Y                   Z               Mass       
    ------------   -----------------  -----------------  -----------------  -----------------
         C           -1.303948289938     1.325999867352    -0.259237962111    12.000000000000
         C           -2.201205289938     0.476308867352     0.247803037889    12.000000000000
         C           -2.313191289938    -0.962775132648    -0.142350962111    12.000000000000
         H           -1.269430289938     2.360042867352     0.054833037889     1.007825032230
         H           -0.584643289938     0.998073867352    -0.999117962111     1.007825032230
         H           -2.902443289938     0.840257867352     0.991979037889     1.007825032230
         H           -3.300953289938    -1.178103132648    -0.552994962111     1.007825032230
         H           -1.562605289938    -1.223693132648    -0.887043962111     1.007825032230
         H           -2.179565289938    -1.614156132648     0.723323037889     1.007825032230
      Gh(C)           1.304123710062    -1.326019132648     0.259767037889    12.000000000000
      Gh(C)           2.200777710062    -0.476236132648    -0.248185962111    12.000000000000
      Gh(C)           2.313396710062     0.962730867352     0.142196037889    12.000000000000
      Gh(H)           1.269127710062    -2.359957132648    -0.054593962111     1.007825032230
      Gh(H)           0.585811710062    -0.998299132648     1.000702037889     1.007825032230
      Gh(H)           2.901005710062    -0.840028132648    -0.993392962111     1.007825032230
      Gh(H)           2.178649710062     1.614359867352    -0.723121962111     1.007825032230
      Gh(H)           1.563861710062     1.223529867352     0.887991037889     1.007825032230
      Gh(H)           3.301740710062     1.177862867352     0.551542037889     1.007825032230

  Running in c1 symmetry.

  Rotational constants: A =      0.15862  B =      0.04764  C =      0.03844 [cm^-1]
  Rotational constants: A =   4755.35230  B =   1428.07923  C =   1152.47554 [MHz]
  Nuclear repulsion =   70.871491972997745

  Charge       = 0
  Multiplicity = 1
  Electrons    = 24
  Nalpha       = 12
  Nbeta        = 12

  ==> Algorithm <==

  SCF Algorithm Type is DF.
  DIIS enabled.
  MOM disabled.
  Fractional occupation disabled.
  Guess Type is SAD.
  Energy threshold   = 1.00e-08
  Density threshold  = 1.00e-08
  Integral threshold = 0.00e+00

  ==> Primary Basis <==

  Basis Set: JUN-CC-PVTZ
    Blend: JUN-CC-PVTZ
    Number of shells: 150
    Number of basis function: 402
    Number of Cartesian functions: 450
    Spherical Harmonics?: true
    Max angular momentum: 3

   => Loading Basis Set <=

    Name: (JUN-CC-PVTZ AUX)
    Role: JKFIT
    Keyword: DF_BASIS_SCF
    atoms 1-3, 10-12 entry C          line   152 file /home/r08543048/miniconda3/share/psi4/basis/jun-cc-pvtz-jkfit.gbs 
    atoms 4-9, 13-18 entry H          line    70 file /home/r08543048/miniconda3/share/psi4/basis/jun-cc-pvtz-jkfit.gbs 

  ==> Pre-Iterations <==

   -------------------------------------------------------
    Irrep   Nso     Nmo     Nalpha   Nbeta   Ndocc  Nsocc
   -------------------------------------------------------
     A        402     402       0       0       0       0
   -------------------------------------------------------
    Total     402     402      12      12      12       0
   -------------------------------------------------------

  ==> Integral Setup <==

  ==> DiskDFJK: Density-Fitted J/K Matrices <==

    J tasked:                  Yes
    K tasked:                  Yes
    wK tasked:                  No
    OpenMP threads:              1
    Integrals threads:           1
    Memory [MiB]:            15735
    Algorithm:                Core
    Integral Cache:           LOAD
    Schwarz Cutoff:          1E-12
    Fitting Condition:       1E-10

   => Auxiliary Basis Set <=

  Basis Set: (JUN-CC-PVTZ AUX)
    Blend: JUN-CC-PVTZ-JKFIT
    Number of shells: 294
    Number of basis function: 930
    Number of Cartesian functions: 1116
    Spherical Harmonics?: true
    Max angular momentum: 4

  Minimum eigenvalue in the overlap matrix is 3.7131250496E-05.
  Using Symmetric Orthogonalization.

  SCF Guess: Superposition of Atomic Densities via on-the-fly atomic UHF.

  ==> Iterations <==

                           Total Energy        Delta E     RMS |[F,P]|

   @DF-RHF iter SAD:  -116.33324501856067   -1.16333e+02   0.00000e+00 
   @DF-RHF iter   1:  -116.98773451242576   -6.54489e-01   1.14075e-03 DIIS
   @DF-RHF iter   2:  -117.09539372192513   -1.07659e-01   4.89942e-04 DIIS
   @DF-RHF iter   3:  -117.11550727580071   -2.01136e-02   8.80146e-05 DIIS
   @DF-RHF iter   4:  -117.11680161627592   -1.29434e-03   2.64922e-05 DIIS
   @DF-RHF iter   5:  -117.11687550699730   -7.38907e-05   7.12594e-06 DIIS
   @DF-RHF iter   6:  -117.11688171732294   -6.21033e-06   1.28400e-06 DIIS
   @DF-RHF iter   7:  -117.11688202550756   -3.08185e-07   4.71540e-07 DIIS
   @DF-RHF iter   8:  -117.11688206618430   -4.06767e-08   1.63226e-07 DIIS
   @DF-RHF iter   9:  -117.11688207201007   -5.82577e-09   5.93717e-08 DIIS
   @DF-RHF iter  10:  -117.11688207295109   -9.41014e-10   1.34790e-08 DIIS
   @DF-RHF iter  11:  -117.11688207299738   -4.62990e-11   2.38262e-09 DIIS
  Energy and wave function converged.


  ==> Post-Iterations <==

    Orbital Energies [Eh]
    ---------------------

    Doubly Occupied:                                                      

       1A    -11.234386     2A    -11.220815     3A    -11.217527  
       4A     -1.064930     5A     -0.932791     6A     -0.758091  
       7A     -0.640064     8A     -0.582615     9A     -0.568358  
      10A     -0.523402    11A     -0.493150    12A     -0.357997  

    Virtual:                                                              

      13A      0.036540    14A      0.047892    15A      0.055635  
      16A      0.061452    17A      0.068265    18A      0.070255  
      19A      0.088753    20A      0.095558    21A      0.097249  
      22A      0.104674    23A      0.108511    24A      0.117053  
      25A      0.121457    26A      0.126901    27A      0.132489  
      28A      0.144161    29A      0.144958    30A      0.152239  
      31A      0.156928    32A      0.165378    33A      0.170794  
      34A      0.174860    35A      0.186850    36A      0.203480  
      37A      0.212120    38A      0.238584    39A      0.247851  
      40A      0.254922    41A      0.262197    42A      0.275350  
      43A      0.284137    44A      0.287399    45A      0.299560  
      46A      0.315955    47A      0.321991    48A      0.326210  
      49A      0.337522    50A      0.340581    51A      0.343618  
      52A      0.356793    53A      0.358742    54A      0.362426  
      55A      0.370582    56A      0.373191    57A      0.380411  
      58A      0.385986    59A      0.395041    60A      0.403163  
      61A      0.410439    62A      0.416715    63A      0.430494  
      64A      0.437919    65A      0.443260    66A      0.449301  
      67A      0.459961    68A      0.464976    69A      0.481490  
      70A      0.484550    71A      0.500912    72A      0.508602  
      73A      0.517042    74A      0.527086    75A      0.531530  
      76A      0.544737    77A      0.561908    78A      0.566578  
      79A      0.571723    80A      0.573847    81A      0.591827  
      82A      0.600615    83A      0.610746    84A      0.621257  
      85A      0.627486    86A      0.631966    87A      0.651197  
      88A      0.672380    89A      0.687915    90A      0.706488  
      91A      0.715218    92A      0.717424    93A      0.731326  
      94A      0.742766    95A      0.754892    96A      0.770166  
      97A      0.785456    98A      0.793993    99A      0.803729  
     100A      0.816599   101A      0.825449   102A      0.836753  
     103A      0.848550   104A      0.872839   105A      0.881141  
     106A      0.903208   107A      0.921873   108A      0.944144  
     109A      0.967078   110A      0.985775   111A      1.018049  
     112A      1.063394   113A      1.065901   114A      1.069207  
     115A      1.086384   116A      1.088259   117A      1.113872  
     118A      1.122953   119A      1.129826   120A      1.134488  
     121A      1.150139   122A      1.155832   123A      1.168564  
     124A      1.179586   125A      1.201369   126A      1.218728  
     127A      1.224611   128A      1.243692   129A      1.254805  
     130A      1.261192   131A      1.267541   132A      1.289504  
     133A      1.298213   134A      1.306664   135A      1.323479  
     136A      1.331287   137A      1.337463   138A      1.344732  
     139A      1.354681   140A      1.370716   141A      1.382513  
     142A      1.397790   143A      1.404076   144A      1.423910  
     145A      1.437783   146A      1.444868   147A      1.449233  
     148A      1.468074   149A      1.473253   150A      1.498611  
     151A      1.506356   152A      1.514193   153A      1.527256  
     154A      1.547410   155A      1.560672   156A      1.572371  
     157A      1.582272   158A      1.595206   159A      1.608994  
     160A      1.614983   161A      1.627974   162A      1.629554  
     163A      1.648821   164A      1.657381   165A      1.661889  
     166A      1.666798   167A      1.681199   168A      1.694606  
     169A      1.717987   170A      1.749097   171A      1.757343  
     172A      1.778121   173A      1.795766   174A      1.816243  
     175A      1.855882   176A      1.891922   177A      1.893891  
     178A      1.919387   179A      1.985381   180A      2.008291  
     181A      2.037399   182A      2.054635   183A      2.071145  
     184A      2.095252   185A      2.109947   186A      2.212887  
     187A      2.235871   188A      2.249728   189A      2.347764  
     190A      2.372276   191A      2.452181   192A      2.523527  
     193A      2.548283   194A      2.630867   195A      2.671807  
     196A      2.735986   197A      2.770329   198A      2.806023  
     199A      2.814939   200A      2.843872   201A      2.856399  
     202A      2.885510   203A      2.905880   204A      2.925849  
     205A      2.997039   206A      3.009758   207A      3.052876  
     208A      3.073212   209A      3.084850   210A      3.098519  
     211A      3.164945   212A      3.172566   213A      3.198276  
     214A      3.229749   215A      3.248087   216A      3.258796  
     217A      3.297616   218A      3.312116   219A      3.326211  
     220A      3.355640   221A      3.383629   222A      3.393338  
     223A      3.417989   224A      3.427389   225A      3.447541  
     226A      3.452234   227A      3.482123   228A      3.499301  
     229A      3.509008   230A      3.528919   231A      3.544999  
     232A      3.559235   233A      3.565074   234A      3.589680  
     235A      3.605618   236A      3.614522   237A      3.632050  
     238A      3.643881   239A      3.666064   240A      3.679413  
     241A      3.685096   242A      3.709499   243A      3.712423  
     244A      3.724508   245A      3.751328   246A      3.755886  
     247A      3.771559   248A      3.784935   249A      3.795382  
     250A      3.814001   251A      3.815433   252A      3.845820  
     253A      3.852263   254A      3.872347   255A      3.889677  
     256A      3.918750   257A      3.930824   258A      3.974389  
     259A      3.986354   260A      3.996410   261A      4.035086  
     262A      4.046217   263A      4.057724   264A      4.067057  
     265A      4.072699   266A      4.091623   267A      4.105346  
     268A      4.117741   269A      4.137175   270A      4.153782  
     271A      4.169593   272A      4.177816   273A      4.195724  
     274A      4.210481   275A      4.215880   276A      4.259687  
     277A      4.270698   278A      4.281875   279A      4.296834  
     280A      4.302172   281A      4.329613   282A      4.354496  
     283A      4.362706   284A      4.373269   285A      4.380047  
     286A      4.402319   287A      4.404289   288A      4.416997  
     289A      4.437858   290A      4.456030   291A      4.465776  
     292A      4.475072   293A      4.489551   294A      4.509306  
     295A      4.517333   296A      4.525276   297A      4.544626  
     298A      4.556029   299A      4.576459   300A      4.592968  
     301A      4.619925   302A      4.623625   303A      4.627278  
     304A      4.648813   305A      4.665835   306A      4.680699  
     307A      4.701152   308A      4.723429   309A      4.732030  
     310A      4.772573   311A      4.782666   312A      4.791608  
     313A      4.801434   314A      4.806752   315A      4.821191  
     316A      4.831305   317A      4.853100   318A      4.864482  
     319A      4.893007   320A      4.902235   321A      4.913538  
     322A      4.920607   323A      4.939340   324A      4.947477  
     325A      4.972192   326A      4.989253   327A      5.017678  
     328A      5.037800   329A      5.040984   330A      5.066147  
     331A      5.073041   332A      5.116403   333A      5.155838  
     334A      5.173911   335A      5.180694   336A      5.202901  
     337A      5.224099   338A      5.242292   339A      5.299123  
     340A      5.315077   341A      5.336343   342A      5.366429  
     343A      5.396433   344A      5.402332   345A      5.430993  
     346A      5.474801   347A      5.480528   348A      5.513060  
     349A      5.533928   350A      5.561561   351A      5.568093  
     352A      5.625017   353A      5.675840   354A      5.687352  
     355A      5.692352   356A      5.761567   357A      5.783103  
     358A      5.795955   359A      5.838025   360A      5.853671  
     361A      5.894756   362A      5.963934   363A      5.995885  
     364A      6.035185   365A      6.086543   366A      6.135701  
     367A      6.142331   368A      6.224092   369A      6.249449  
     370A      6.330607   371A      6.375324   372A      6.387461  
     373A      6.407862   374A      6.449212   375A      6.469708  
     376A      6.521839   377A      6.620529   378A      6.700701  
     379A      6.725930   380A      6.759537   381A      6.853207  
     382A      7.089498   383A      7.389490   384A      7.425454  
     385A      7.552922   386A      7.601290   387A      7.651012  
     388A      7.814793   389A      7.916170   390A      7.983653  
     391A      8.109000   392A      8.288751   393A      8.736546  
     394A      9.382735   395A      9.889318   396A     10.206294  
     397A     12.153290   398A     14.636514   399A     15.333958  
     400A     40.599835   401A     45.876114   402A     47.170692  

    Final Occupation by Irrep:
              A 
    DOCC [    12 ]

  @DF-RHF Final Energy:  -117.11688207299738

   => Energetics <=

    Nuclear Repulsion Energy =             70.8714919729977453
    One-Electron Energy =                -296.7884963213759306
    Two-Electron Energy =                 108.8001222753808008
    Total Energy =                       -117.1168820729973845

Computation Completed


Properties will be evaluated at   0.000000,   0.000000,   0.000000 [a0]

Properties computed using the SCF density matrix

  Nuclear Dipole Moment: [e a0]
     X:   -88.2686      Y:     9.8637      Z:    -3.0079

  Electronic Dipole Moment: [e a0]
     X:    88.1858      Y:   -10.0060      Z:     3.0334

  Dipole Moment: [e a0]
     X:    -0.0828      Y:    -0.1423      Z:     0.0254     Total:     0.1666

  Dipole Moment: [D]
     X:    -0.2104      Y:    -0.3617      Z:     0.0647     Total:     0.4234


*** tstop() called on r282 at Wed Sep 15 07:11:39 2021
Module time:
	user time   =      12.37 seconds =       0.21 minutes
	system time =       0.37 seconds =       0.01 minutes
	total time  =         13 seconds =       0.22 minutes
Total time:
	user time   =      38.78 seconds =       0.65 minutes
	system time =       1.13 seconds =       0.02 minutes
	total time  =         40 seconds =       0.67 minutes

  //>>>>>>>>>>>>>>>>>>>>>>>>>>>>>>>>>>>//
  //            Monomer B HF           //
  //<<<<<<<<<<<<<<<<<<<<<<<<<<<<<<<<<<<//


*** tstart() called on r282
*** at Wed Sep 15 07:11:39 2021

   => Loading Basis Set <=

    Name: JUN-CC-PVTZ
    Role: ORBITAL
    Keyword: BASIS
    atoms 1-3, 10-12 entry C          line   217 file /home/r08543048/miniconda3/share/psi4/basis/jun-cc-pvtz.gbs 
    atoms 4-9, 13-18 entry H          line    36 file /home/r08543048/miniconda3/share/psi4/basis/jun-cc-pvtz.gbs 


         ---------------------------------------------------------
                                   SCF
               by Justin Turney, Rob Parrish, Andy Simmonett
                          and Daniel G. A. Smith
                              RHF Reference
                        1 Threads,  20980 MiB Core
         ---------------------------------------------------------

  ==> Geometry <==

    Molecular point group: c1
    Full point group: C1

    Geometry (in Angstrom), charge = 0, multiplicity = 1:

       Center              X                  Y                   Z               Mass       
    ------------   -----------------  -----------------  -----------------  -----------------
      Gh(C)          -1.303948289938     1.325999867352    -0.259237962111    12.000000000000
      Gh(C)          -2.201205289938     0.476308867352     0.247803037889    12.000000000000
      Gh(C)          -2.313191289938    -0.962775132648    -0.142350962111    12.000000000000
      Gh(H)          -1.269430289938     2.360042867352     0.054833037889     1.007825032230
      Gh(H)          -0.584643289938     0.998073867352    -0.999117962111     1.007825032230
      Gh(H)          -2.902443289938     0.840257867352     0.991979037889     1.007825032230
      Gh(H)          -3.300953289938    -1.178103132648    -0.552994962111     1.007825032230
      Gh(H)          -1.562605289938    -1.223693132648    -0.887043962111     1.007825032230
      Gh(H)          -2.179565289938    -1.614156132648     0.723323037889     1.007825032230
         C            1.304123710062    -1.326019132648     0.259767037889    12.000000000000
         C            2.200777710062    -0.476236132648    -0.248185962111    12.000000000000
         C            2.313396710062     0.962730867352     0.142196037889    12.000000000000
         H            1.269127710062    -2.359957132648    -0.054593962111     1.007825032230
         H            0.585811710062    -0.998299132648     1.000702037889     1.007825032230
         H            2.901005710062    -0.840028132648    -0.993392962111     1.007825032230
         H            2.178649710062     1.614359867352    -0.723121962111     1.007825032230
         H            1.563861710062     1.223529867352     0.887991037889     1.007825032230
         H            3.301740710062     1.177862867352     0.551542037889     1.007825032230

  Running in c1 symmetry.

  Rotational constants: A =      0.15862  B =      0.04764  C =      0.03844 [cm^-1]
  Rotational constants: A =   4755.35230  B =   1428.07923  C =   1152.47554 [MHz]
  Nuclear repulsion =   70.871383723929796

  Charge       = 0
  Multiplicity = 1
  Electrons    = 24
  Nalpha       = 12
  Nbeta        = 12

  ==> Algorithm <==

  SCF Algorithm Type is DF.
  DIIS enabled.
  MOM disabled.
  Fractional occupation disabled.
  Guess Type is SAD.
  Energy threshold   = 1.00e-08
  Density threshold  = 1.00e-08
  Integral threshold = 0.00e+00

  ==> Primary Basis <==

  Basis Set: JUN-CC-PVTZ
    Blend: JUN-CC-PVTZ
    Number of shells: 150
    Number of basis function: 402
    Number of Cartesian functions: 450
    Spherical Harmonics?: true
    Max angular momentum: 3

   => Loading Basis Set <=

    Name: (JUN-CC-PVTZ AUX)
    Role: JKFIT
    Keyword: DF_BASIS_SCF
    atoms 1-3, 10-12 entry C          line   152 file /home/r08543048/miniconda3/share/psi4/basis/jun-cc-pvtz-jkfit.gbs 
    atoms 4-9, 13-18 entry H          line    70 file /home/r08543048/miniconda3/share/psi4/basis/jun-cc-pvtz-jkfit.gbs 

  ==> Pre-Iterations <==

   -------------------------------------------------------
    Irrep   Nso     Nmo     Nalpha   Nbeta   Ndocc  Nsocc
   -------------------------------------------------------
     A        402     402       0       0       0       0
   -------------------------------------------------------
    Total     402     402      12      12      12       0
   -------------------------------------------------------

  ==> Integral Setup <==

  ==> DiskDFJK: Density-Fitted J/K Matrices <==

    J tasked:                  Yes
    K tasked:                  Yes
    wK tasked:                  No
    OpenMP threads:              1
    Integrals threads:           1
    Memory [MiB]:            15735
    Algorithm:                Core
    Integral Cache:           LOAD
    Schwarz Cutoff:          1E-12
    Fitting Condition:       1E-10

   => Auxiliary Basis Set <=

  Basis Set: (JUN-CC-PVTZ AUX)
    Blend: JUN-CC-PVTZ-JKFIT
    Number of shells: 294
    Number of basis function: 930
    Number of Cartesian functions: 1116
    Spherical Harmonics?: true
    Max angular momentum: 4

  Minimum eigenvalue in the overlap matrix is 3.7131250496E-05.
  Using Symmetric Orthogonalization.

  SCF Guess: Superposition of Atomic Densities via on-the-fly atomic UHF.

  ==> Iterations <==

                           Total Energy        Delta E     RMS |[F,P]|

   @DF-RHF iter SAD:  -116.33324068456368   -1.16333e+02   0.00000e+00 
   @DF-RHF iter   1:  -116.98773461260552   -6.54494e-01   1.14074e-03 DIIS
   @DF-RHF iter   2:  -117.09539394755234   -1.07659e-01   4.89942e-04 DIIS
   @DF-RHF iter   3:  -117.11550752443526   -2.01136e-02   8.80151e-05 DIIS
   @DF-RHF iter   4:  -117.11680187587876   -1.29435e-03   2.64930e-05 DIIS
   @DF-RHF iter   5:  -117.11687577057072   -7.38947e-05   7.12595e-06 DIIS
   @DF-RHF iter   6:  -117.11688198099630   -6.21043e-06   1.28403e-06 DIIS
   @DF-RHF iter   7:  -117.11688228919294   -3.08197e-07   4.71556e-07 DIIS
   @DF-RHF iter   8:  -117.11688232987370   -4.06808e-08   1.63231e-07 DIIS
   @DF-RHF iter   9:  -117.11688233570010   -5.82639e-09   5.93727e-08 DIIS
   @DF-RHF iter  10:  -117.11688233664151   -9.41412e-10   1.34790e-08 DIIS
   @DF-RHF iter  11:  -117.11688233668538   -4.38689e-11   2.38258e-09 DIIS
  Energy and wave function converged.


  ==> Post-Iterations <==

    Orbital Energies [Eh]
    ---------------------

    Doubly Occupied:                                                      

       1A    -11.234386     2A    -11.220816     3A    -11.217527  
       4A     -1.064930     5A     -0.932793     6A     -0.758090  
       7A     -0.640062     8A     -0.582619     9A     -0.568357  
      10A     -0.523402    11A     -0.493149    12A     -0.357996  

    Virtual:                                                              

      13A      0.036546    14A      0.047894    15A      0.055633  
      16A      0.061452    17A      0.068268    18A      0.070252  
      19A      0.088748    20A      0.095563    21A      0.097231  
      22A      0.104681    23A      0.108514    24A      0.117057  
      25A      0.121453    26A      0.126902    27A      0.132495  
      28A      0.144157    29A      0.144961    30A      0.152241  
      31A      0.156921    32A      0.165375    33A      0.170809  
      34A      0.174876    35A      0.186840    36A      0.203487  
      37A      0.212115    38A      0.238572    39A      0.247872  
      40A      0.254930    41A      0.262193    42A      0.275364  
      43A      0.284148    44A      0.287405    45A      0.299600  
      46A      0.315958    47A      0.322010    48A      0.326227  
      49A      0.337527    50A      0.340526    51A      0.343609  
      52A      0.356771    53A      0.358735    54A      0.362390  
      55A      0.370613    56A      0.373179    57A      0.380355  
      58A      0.385985    59A      0.395066    60A      0.403162  
      61A      0.410450    62A      0.416706    63A      0.430451  
      64A      0.437897    65A      0.443309    66A      0.449317  
      67A      0.459907    68A      0.465016    69A      0.481500  
      70A      0.484539    71A      0.500903    72A      0.508648  
      73A      0.517011    74A      0.527113    75A      0.531556  
      76A      0.544724    77A      0.561905    78A      0.566633  
      79A      0.571706    80A      0.573792    81A      0.591913  
      82A      0.600577    83A      0.610784    84A      0.621231  
      85A      0.627450    86A      0.631974    87A      0.651205  
      88A      0.672406    89A      0.687895    90A      0.706491  
      91A      0.715207    92A      0.717461    93A      0.731364  
      94A      0.742811    95A      0.754912    96A      0.770201  
      97A      0.785442    98A      0.793972    99A      0.803700  
     100A      0.816592   101A      0.825458   102A      0.836749  
     103A      0.848566   104A      0.872895   105A      0.881163  
     106A      0.903267   107A      0.921882   108A      0.944133  
     109A      0.967068   110A      0.985786   111A      1.018050  
     112A      1.063383   113A      1.065930   114A      1.069267  
     115A      1.086435   116A      1.088241   117A      1.113831  
     118A      1.122907   119A      1.129865   120A      1.134508  
     121A      1.150117   122A      1.155824   123A      1.168568  
     124A      1.179552   125A      1.201388   126A      1.218746  
     127A      1.224659   128A      1.243814   129A      1.254830  
     130A      1.261243   131A      1.267520   132A      1.289398  
     133A      1.298101   134A      1.306553   135A      1.323609  
     136A      1.331201   137A      1.337455   138A      1.344713  
     139A      1.354705   140A      1.370630   141A      1.382518  
     142A      1.397794   143A      1.404066   144A      1.423949  
     145A      1.437817   146A      1.444770   147A      1.449271  
     148A      1.468033   149A      1.473258   150A      1.498708  
     151A      1.506377   152A      1.514221   153A      1.527253  
     154A      1.547362   155A      1.560720   156A      1.572490  
     157A      1.582292   158A      1.595245   159A      1.608948  
     160A      1.615021   161A      1.627934   162A      1.629588  
     163A      1.648932   164A      1.657362   165A      1.661770  
     166A      1.666739   167A      1.681119   168A      1.694610  
     169A      1.718107   170A      1.749111   171A      1.757343  
     172A      1.778153   173A      1.795735   174A      1.816170  
     175A      1.855850   176A      1.891774   177A      1.893926  
     178A      1.919371   179A      1.985389   180A      2.008305  
     181A      2.037240   182A      2.054653   183A      2.071189  
     184A      2.095304   185A      2.109900   186A      2.212950  
     187A      2.235864   188A      2.249701   189A      2.347790  
     190A      2.372248   191A      2.452197   192A      2.523542  
     193A      2.548304   194A      2.630998   195A      2.671809  
     196A      2.736069   197A      2.770362   198A      2.806109  
     199A      2.814983   200A      2.844174   201A      2.856412  
     202A      2.885487   203A      2.905894   204A      2.925894  
     205A      2.997123   206A      3.009850   207A      3.052914  
     208A      3.073241   209A      3.084865   210A      3.098559  
     211A      3.164875   212A      3.172556   213A      3.198357  
     214A      3.229862   215A      3.248023   216A      3.258804  
     217A      3.297621   218A      3.312086   219A      3.326203  
     220A      3.355680   221A      3.383641   222A      3.393301  
     223A      3.418016   224A      3.427383   225A      3.447509  
     226A      3.452223   227A      3.482141   228A      3.499343  
     229A      3.508995   230A      3.528843   231A      3.545040  
     232A      3.559289   233A      3.564999   234A      3.589673  
     235A      3.605532   236A      3.614579   237A      3.632094  
     238A      3.643821   239A      3.666060   240A      3.679413  
     241A      3.685047   242A      3.709430   243A      3.712402  
     244A      3.724511   245A      3.751328   246A      3.755898  
     247A      3.771590   248A      3.784925   249A      3.795384  
     250A      3.813945   251A      3.815436   252A      3.845818  
     253A      3.852273   254A      3.872318   255A      3.889672  
     256A      3.918786   257A      3.930802   258A      3.974370  
     259A      3.986347   260A      3.996390   261A      4.035199  
     262A      4.046235   263A      4.057768   264A      4.067043  
     265A      4.072741   266A      4.091641   267A      4.105321  
     268A      4.117791   269A      4.137072   270A      4.153805  
     271A      4.169634   272A      4.177909   273A      4.195686  
     274A      4.210570   275A      4.215800   276A      4.259693  
     277A      4.270733   278A      4.281865   279A      4.296839  
     280A      4.302212   281A      4.329587   282A      4.354490  
     283A      4.362688   284A      4.373252   285A      4.380046  
     286A      4.402306   287A      4.404316   288A      4.417116  
     289A      4.437855   290A      4.456125   291A      4.465672  
     292A      4.475042   293A      4.489542   294A      4.509216  
     295A      4.517379   296A      4.525241   297A      4.544594  
     298A      4.556020   299A      4.576479   300A      4.592962  
     301A      4.619967   302A      4.623640   303A      4.627340  
     304A      4.648807   305A      4.665843   306A      4.680645  
     307A      4.701234   308A      4.723444   309A      4.731998  
     310A      4.772622   311A      4.782537   312A      4.791634  
     313A      4.801425   314A      4.806703   315A      4.821209  
     316A      4.831255   317A      4.853124   318A      4.864464  
     319A      4.893068   320A      4.902294   321A      4.913583  
     322A      4.920645   323A      4.939456   324A      4.947488  
     325A      4.972248   326A      4.989232   327A      5.017767  
     328A      5.037842   329A      5.040876   330A      5.066124  
     331A      5.073027   332A      5.116365   333A      5.155766  
     334A      5.173903   335A      5.180704   336A      5.202900  
     337A      5.224079   338A      5.242313   339A      5.299099  
     340A      5.315075   341A      5.336363   342A      5.366385  
     343A      5.396418   344A      5.402342   345A      5.431031  
     346A      5.474784   347A      5.480520   348A      5.513042  
     349A      5.533944   350A      5.561567   351A      5.568089  
     352A      5.625010   353A      5.675851   354A      5.687347  
     355A      5.692366   356A      5.761556   357A      5.783108  
     358A      5.795942   359A      5.838009   360A      5.853657  
     361A      5.894762   362A      5.963936   363A      5.995865  
     364A      6.035213   365A      6.086601   366A      6.135712  
     367A      6.142335   368A      6.224023   369A      6.249432  
     370A      6.330569   371A      6.375388   372A      6.387459  
     373A      6.407881   374A      6.449176   375A      6.469727  
     376A      6.521859   377A      6.620527   378A      6.700726  
     379A      6.725952   380A      6.759502   381A      6.853200  
     382A      7.089489   383A      7.389460   384A      7.425452  
     385A      7.552885   386A      7.601298   387A      7.651031  
     388A      7.814805   389A      7.916197   390A      7.983670  
     391A      8.109014   392A      8.288748   393A      8.736529  
     394A      9.382693   395A      9.889145   396A     10.206237  
     397A     12.153356   398A     14.636808   399A     15.334293  
     400A     40.599786   401A     45.875741   402A     47.170063  

    Final Occupation by Irrep:
              A 
    DOCC [    12 ]

  @DF-RHF Final Energy:  -117.11688233668538

   => Energetics <=

    Nuclear Repulsion Energy =             70.8713837239297959
    One-Electron Energy =                -296.7882775914810054
    Two-Electron Energy =                 108.8000115308658309
    Total Energy =                       -117.1168823366853786

Computation Completed


Properties will be evaluated at   0.000000,   0.000000,   0.000000 [a0]

Properties computed using the SCF density matrix

  Nuclear Dipole Moment: [e a0]
     X:    88.2691      Y:    -9.8638      Z:     3.0080

  Electronic Dipole Moment: [e a0]
     X:   -88.1863      Y:    10.0061      Z:    -3.0336

  Dipole Moment: [e a0]
     X:     0.0827      Y:     0.1423      Z:    -0.0255     Total:     0.1666

  Dipole Moment: [D]
     X:     0.2103      Y:     0.3617      Z:    -0.0649     Total:     0.4234


*** tstop() called on r282 at Wed Sep 15 07:11:53 2021
Module time:
	user time   =      14.05 seconds =       0.23 minutes
	system time =       0.36 seconds =       0.01 minutes
	total time  =         14 seconds =       0.23 minutes
Total time:
	user time   =      52.83 seconds =       0.88 minutes
	system time =       1.49 seconds =       0.02 minutes
	total time  =         54 seconds =       0.90 minutes
  Constructing Basis Sets for SAPT...

   => Loading Basis Set <=

    Name: (JUN-CC-PVTZ AUX)
    Role: RIFIT
    Keyword: DF_BASIS_SAPT
    atoms 1-3, 10-12 entry C          line   132 file /home/r08543048/miniconda3/share/psi4/basis/jun-cc-pvtz-ri.gbs 
    atoms 4-9, 13-18 entry H          line    30 file /home/r08543048/miniconda3/share/psi4/basis/jun-cc-pvtz-ri.gbs 


  //>>>>>>>>>>>>>>>>>>>>>>>>>>>>>>>>>>>//
  //               SAPT0               //
  //<<<<<<<<<<<<<<<<<<<<<<<<<<<<<<<<<<<//


*** tstart() called on r282
*** at Wed Sep 15 07:11:54 2021

        SAPT0  
    Ed Hohenstein
     6 June 2009

      Orbital Information
  --------------------------
    NSO        =       402
    NMO        =       402
    NRI        =       942
    NOCC A     =        12
    NOCC B     =        12
    FOCC A     =         0
    FOCC B     =         0
    NVIR A     =       390
    NVIR B     =       390

    Elst10,r            =    -0.002379604362 [Eh]
    Exch10              =     0.005262381570 [Eh]
    Exch10 (S^2)        =     0.005245807327 [Eh]

    Iter     Energy [mEh]          dE [mEh]         Residual      Time [s]
       1      -0.59121161       0.591211613       3.221719888             0
       2      -0.72720027       0.135988657       0.968745408             1
       3      -0.73296416       0.005763892       0.269745379             1
       4      -0.72984905      -0.003115109       0.087377113             2
       5      -0.72964897      -0.000200088       0.022376484             2
       6      -0.72980725       0.000158285       0.008644191             2
       7      -0.72984470       0.000037449       0.002514368             3
       8      -0.72982306      -0.000021643       0.000708782             3
       9      -0.72982512       0.000002063       0.000230125             4
      10      -0.72982604       0.000000917       0.000054921             4
      11      -0.72982583      -0.000000207       0.000012932             5
      12      -0.72982582      -0.000000012       0.000003035             5
      13      -0.72982583       0.000000011       0.000000606             6

    CHF Iterations converged


    Iter     Energy [mEh]          dE [mEh]         Residual      Time [s]
       1      -0.59157419       0.591574191       3.223236569             0
       2      -0.72779144       0.136217248       0.969058009             0
       3      -0.73353783       0.005746395       0.270125482             1
       4      -0.73041891      -0.003118925       0.087499606             1
       5      -0.73021844      -0.000200470       0.022408742             2
       6      -0.73037710       0.000158662       0.008646419             2
       7      -0.73041451       0.000037409       0.002516625             3
       8      -0.73039286      -0.000021654       0.000709119             3
       9      -0.73039492       0.000002068       0.000230160             4
      10      -0.73039584       0.000000916       0.000054981             4
      11      -0.73039563      -0.000000207       0.000012964             5
      12      -0.73039562      -0.000000012       0.000003041             5
      13      -0.73039563       0.000000011       0.000000607             5

    CHF Iterations converged

    Ind20,r (A<-B)      =    -0.000729825829 [Eh]
    Ind20,r (B<-A)      =    -0.000730395632 [Eh]
    Ind20,r             =    -0.001460221461 [Eh]
    Exch-Ind20,r (A<-B) =     0.000667120846 [Eh]
    Exch-Ind20,r (B<-A) =     0.000667687207 [Eh]
    Exch-Ind20,r        =     0.001334808052 [Eh]
    Disp20              =    -0.006302647709 [Eh]
    Disp20 (SS)         =    -0.003151323855 [Eh]
    Disp20 (OS)         =    -0.003151323855 [Eh]
    Exch-Disp20         =     0.000673398219 [Eh]
    Exch-Disp20 (SS)    =     0.000439368589 [Eh]
    Exch-Disp20 (OS)    =     0.000234029631 [Eh]

    SAPT Results 
  --------------------------------------------------------------------------------------------------------
    Electrostatics                 -2.37960436 [mEh]      -1.49322428 [kcal/mol]      -6.24765039 [kJ/mol]
      Elst10,r                     -2.37960436 [mEh]      -1.49322428 [kcal/mol]      -6.24765039 [kJ/mol]

    Exchange                        5.26238157 [mEh]       3.30219429 [kcal/mol]      13.81638091 [kJ/mol]
      Exch10                        5.26238157 [mEh]       3.30219429 [kcal/mol]      13.81638091 [kJ/mol]
      Exch10(S^2)                   5.24580733 [mEh]       3.29179380 [kcal/mol]      13.77286524 [kJ/mol]

    Induction                      -0.53511156 [mEh]      -0.33578757 [kcal/mol]      -1.40493520 [kJ/mol]
      Ind20,r                      -1.46022146 [mEh]      -0.91630280 [kcal/mol]      -3.83381092 [kJ/mol]
      Exch-Ind20,r                  1.33480805 [mEh]       0.83760470 [kcal/mol]       3.50453806 [kJ/mol]
      delta HF,r (2)               -0.40969815 [mEh]      -0.25708947 [kcal/mol]      -1.07566234 [kJ/mol]

    Dispersion                     -5.62924949 [mEh]      -3.53240738 [kcal/mol]     -14.77959250 [kJ/mol]
      Disp20                       -6.30264771 [mEh]      -3.95497115 [kcal/mol]     -16.54759928 [kJ/mol]
      Exch-Disp20                   0.67339822 [mEh]       0.42256376 [kcal/mol]       1.76800678 [kJ/mol]
      Disp20 (SS)                  -3.15132385 [mEh]      -1.97748557 [kcal/mol]      -8.27379964 [kJ/mol]
      Disp20 (OS)                  -3.15132385 [mEh]      -1.97748557 [kcal/mol]      -8.27379964 [kJ/mol]
      Exch-Disp20 (SS)              0.43936859 [mEh]       0.27570795 [kcal/mol]       1.15356207 [kJ/mol]
      Exch-Disp20 (OS)              0.23402963 [mEh]       0.14685581 [kcal/mol]       0.61444471 [kJ/mol]

  Total HF                          2.34766565 [mEh]       1.47318244 [kcal/mol]       6.16379532 [kJ/mol]
  Total SAPT0                      -3.28158384 [mEh]      -2.05922495 [kcal/mol]      -8.61579718 [kJ/mol]

  Special recipe for scaled SAPT0 (see Manual):
    Electrostatics sSAPT0          -2.37960436 [mEh]      -1.49322428 [kcal/mol]      -6.24765039 [kJ/mol]
    Exchange sSAPT0                 5.26238157 [mEh]       3.30219429 [kcal/mol]      13.81638091 [kJ/mol]
    Induction sSAPT0               -0.52241947 [mEh]      -0.32782317 [kcal/mol]      -1.37161214 [kJ/mol]
    Dispersion sSAPT0              -5.62284645 [mEh]      -3.52838942 [kcal/mol]     -14.76278133 [kJ/mol]
  Total sSAPT0                     -3.26248872 [mEh]      -2.04724258 [kcal/mol]      -8.56566295 [kJ/mol]
  --------------------------------------------------------------------------------------------------------

*** tstop() called on r282 at Wed Sep 15 07:12:44 2021
Module time:
	user time   =      42.18 seconds =       0.70 minutes
	system time =       8.38 seconds =       0.14 minutes
	total time  =         50 seconds =       0.83 minutes
Total time:
	user time   =      95.13 seconds =       1.59 minutes
	system time =       9.87 seconds =       0.16 minutes
	total time  =        105 seconds =       1.75 minutes

    Psi4 stopped on: Wednesday, 15 September 2021 07:12AM
    Psi4 wall time for execution: 0:01:45.15

*** Psi4 exiting successfully. Buy a developer a beer!
