
    -----------------------------------------------------------------------
          Psi4: An Open-Source Ab Initio Electronic Structure Package
                               Psi4 1.3.2 release

                         Git: Rev {HEAD} ecbda83 


    R. M. Parrish, L. A. Burns, D. G. A. Smith, A. C. Simmonett,
    A. E. DePrince III, E. G. Hohenstein, U. Bozkaya, A. Yu. Sokolov,
    R. Di Remigio, R. M. Richard, J. F. Gonthier, A. M. James,
    H. R. McAlexander, A. Kumar, M. Saitow, X. Wang, B. P. Pritchard,
    P. Verma, H. F. Schaefer III, K. Patkowski, R. A. King, E. F. Valeev,
    F. A. Evangelista, J. M. Turney, T. D. Crawford, and C. D. Sherrill,
    J. Chem. Theory Comput. 13(7) pp 3185--3197 (2017).
    (doi: 10.1021/acs.jctc.7b00174)


                         Additional Contributions by
    P. Kraus, H. Kruse, M. H. Lechner, M. C. Schieber, R. A. Shaw,
    A. Alenaizan, R. Galvelis, Z. L. Glick, S. Lehtola, and J. P. Misiewicz

    -----------------------------------------------------------------------


    Psi4 started on: Wednesday, 15 September 2021 07:15AM

    Process ID: 4575
    Host:       r282
    PSIDATADIR: /home/r08543048/miniconda3/share/psi4
    Memory:     500.0 MiB
    Threads:    1
    
  ==> Input File <==

--------------------------------------------------------------------------
# Any line starting with the # character is a comment line
#! Sample  computation

memory 22 gb

molecule Dimer {

0 1
 C                 -2.44456628   -1.23362057    0.19444301
 C                 -2.13358828   -0.05066257   -0.71411999
 C                 -2.23454328    1.27857243    0.02356001
 H                 -1.75489228   -1.26493957    1.03940901
 H                 -3.45575328   -1.15606657    0.59658101
 H                 -2.36587628   -2.18169457   -0.33712399
 H                 -2.82085928   -0.05105057   -1.56271899
 H                 -1.13006728   -0.16347457   -1.12950199
 H                 -2.00816228    2.12089843   -0.62991599
 H                 -3.23979028    1.42249843    0.42242901
 H                 -1.53773128    1.30969243    0.86264201
--
0 1
 C                  2.44426728   -1.23378243   -0.19444701
 C                  2.13373128   -0.05074143    0.71415999
 C                  2.23471828    1.27844857   -0.02359301
 H                  1.75435328   -1.26505243   -1.03922501
 H                  3.45535328   -1.15639143   -0.59686901
 H                  2.36557128   -2.18181943    0.33718399
 H                  2.82121928   -0.05121043    1.56258299
 H                  1.13029428   -0.16336543    1.12980499
 H                  2.00870328    2.12083257    0.62993499
 H                  3.23987028    1.42217757   -0.42277301
 H                  1.53765428    1.30967357   -0.86245201

units angstrom
no_reorient
symmetry c1
}

set globals{
  basis jun-cc-pvtz
}

energy('sapt0')
--------------------------------------------------------------------------

  Memory set to  20.489 GiB by Python driver.

  //>>>>>>>>>>>>>>>>>>>>>>>>>>>>>>>>>>>//
  //              Dimer HF             //
  //<<<<<<<<<<<<<<<<<<<<<<<<<<<<<<<<<<<//


*** tstart() called on r282
*** at Wed Sep 15 07:15:31 2021

   => Loading Basis Set <=

    Name: JUN-CC-PVTZ
    Role: ORBITAL
    Keyword: BASIS
    atoms 1-3, 12-14  entry C          line   217 file /home/r08543048/miniconda3/share/psi4/basis/jun-cc-pvtz.gbs 
    atoms 4-11, 15-22 entry H          line    36 file /home/r08543048/miniconda3/share/psi4/basis/jun-cc-pvtz.gbs 


         ---------------------------------------------------------
                                   SCF
               by Justin Turney, Rob Parrish, Andy Simmonett
                          and Daniel G. A. Smith
                              RHF Reference
                        1 Threads,  20980 MiB Core
         ---------------------------------------------------------

  ==> Geometry <==

    Molecular point group: c1
    Full point group: C1

    Geometry (in Angstrom), charge = 0, multiplicity = 1:

       Center              X                  Y                   Z               Mass       
    ------------   -----------------  -----------------  -----------------  -----------------
         C           -2.444567574928    -1.232824308463     0.194442738726    12.000000000000
         C           -2.133589574928    -0.049866308463    -0.714120261274    12.000000000000
         C           -2.234544574928     1.279368691537     0.023559738726    12.000000000000
         H           -1.754893574928    -1.264143308463     1.039408738726     1.007825032230
         H           -3.455754574928    -1.155270308463     0.596580738726     1.007825032230
         H           -2.365877574928    -2.180898308463    -0.337124261274     1.007825032230
         H           -2.820860574928    -0.050254308463    -1.562719261274     1.007825032230
         H           -1.130068574928    -0.162678308463    -1.129502261274     1.007825032230
         H           -2.008163574928     2.121694691537    -0.629916261274     1.007825032230
         H           -3.239791574928     1.423294691537     0.422428738726     1.007825032230
         H           -1.537732574928     1.310488691537     0.862641738726     1.007825032230
         C            2.444265985072    -1.232986168463    -0.194447281274    12.000000000000
         C            2.133729985072    -0.049945168463     0.714159718726    12.000000000000
         C            2.234716985072     1.279244831537    -0.023593281274    12.000000000000
         H            1.754351985072    -1.264256168463    -1.039225281274     1.007825032230
         H            3.455351985072    -1.155595168463    -0.596869281274     1.007825032230
         H            2.365569985072    -2.181023168463     0.337183718726     1.007825032230
         H            2.821217985072    -0.050414168463     1.562582718726     1.007825032230
         H            1.130292985072    -0.162569168463     1.129804718726     1.007825032230
         H            2.008701985072     2.121628831537     0.629934718726     1.007825032230
         H            3.239868985072     1.422973831537    -0.422773281274     1.007825032230
         H            1.537652985072     1.310469831537    -0.862452281274     1.007825032230

  Running in c1 symmetry.

  Rotational constants: A =      0.12687  B =      0.03418  C =      0.02925 [cm^-1]
  Rotational constants: A =   3803.42445  B =   1024.74963  C =    876.95266 [MHz]
  Nuclear repulsion =  239.734208237273663

  Charge       = 0
  Multiplicity = 1
  Electrons    = 52
  Nalpha       = 26
  Nbeta        = 26

  ==> Algorithm <==

  SCF Algorithm Type is DF.
  DIIS enabled.
  MOM disabled.
  Fractional occupation disabled.
  Guess Type is SAD.
  Energy threshold   = 1.00e-08
  Density threshold  = 1.00e-08
  Integral threshold = 0.00e+00

  ==> Primary Basis <==

  Basis Set: JUN-CC-PVTZ
    Blend: JUN-CC-PVTZ
    Number of shells: 174
    Number of basis function: 458
    Number of Cartesian functions: 510
    Spherical Harmonics?: true
    Max angular momentum: 3

   => Loading Basis Set <=

    Name: (JUN-CC-PVTZ AUX)
    Role: JKFIT
    Keyword: DF_BASIS_SCF
    atoms 1-3, 12-14  entry C          line   152 file /home/r08543048/miniconda3/share/psi4/basis/jun-cc-pvtz-jkfit.gbs 
    atoms 4-11, 15-22 entry H          line    70 file /home/r08543048/miniconda3/share/psi4/basis/jun-cc-pvtz-jkfit.gbs 

  ==> Pre-Iterations <==

   -------------------------------------------------------
    Irrep   Nso     Nmo     Nalpha   Nbeta   Ndocc  Nsocc
   -------------------------------------------------------
     A        458     458       0       0       0       0
   -------------------------------------------------------
    Total     458     458      26      26      26       0
   -------------------------------------------------------

  ==> Integral Setup <==

  ==> DiskDFJK: Density-Fitted J/K Matrices <==

    J tasked:                  Yes
    K tasked:                  Yes
    wK tasked:                  No
    OpenMP threads:              1
    Integrals threads:           1
    Memory [MiB]:            15735
    Algorithm:                Core
    Integral Cache:           SAVE
    Schwarz Cutoff:          1E-12
    Fitting Condition:       1E-10

   => Auxiliary Basis Set <=

  Basis Set: (JUN-CC-PVTZ AUX)
    Blend: JUN-CC-PVTZ-JKFIT
    Number of shells: 334
    Number of basis function: 1050
    Number of Cartesian functions: 1256
    Spherical Harmonics?: true
    Max angular momentum: 4

  Minimum eigenvalue in the overlap matrix is 9.4308630760E-05.
  Using Symmetric Orthogonalization.

  SCF Guess: Superposition of Atomic Densities via on-the-fly atomic UHF.

  ==> Iterations <==

                           Total Energy        Delta E     RMS |[F,P]|

   @DF-RHF iter SAD:  -235.48299574832714   -2.35483e+02   0.00000e+00 
   @DF-RHF iter   1:  -236.29304150903766   -8.10046e-01   1.58834e-03 DIIS
   @DF-RHF iter   2:  -236.55133446238321   -2.58293e-01   7.51387e-04 DIIS
   @DF-RHF iter   3:  -236.61200913416985   -6.06747e-02   1.27076e-04 DIIS
   @DF-RHF iter   4:  -236.61572491719198   -3.71578e-03   2.50912e-05 DIIS
   @DF-RHF iter   5:  -236.61584186914411   -1.16952e-04   7.06626e-06 DIIS
   @DF-RHF iter   6:  -236.61585111627642   -9.24713e-06   1.24687e-06 DIIS
   @DF-RHF iter   7:  -236.61585145555009   -3.39274e-07   2.28811e-07 DIIS
   @DF-RHF iter   8:  -236.61585146942895   -1.38789e-08   3.98281e-08 DIIS
   @DF-RHF iter   9:  -236.61585146984152   -4.12570e-10   8.47911e-09 DIIS
  Energy and wave function converged.


  ==> Post-Iterations <==

    Orbital Energies [Eh]
    ---------------------

    Doubly Occupied:                                                      

       1A    -11.216014     2A    -11.216014     3A    -11.208214  
       4A    -11.208213     5A    -11.208093     6A    -11.208092  
       7A     -1.054997     8A     -1.053941     9A     -0.925518  
      10A     -0.924843    11A     -0.800595    12A     -0.799925  
      13A     -0.629390    14A     -0.621122    15A     -0.598826  
      16A     -0.598417    17A     -0.550194    18A     -0.549330  
      19A     -0.532031    20A     -0.529104    21A     -0.477240  
      22A     -0.475535    23A     -0.475065    24A     -0.474661  
      25A     -0.470546    26A     -0.466324  

    Virtual:                                                              

      27A      0.052691    28A      0.054453    29A      0.055376  
      30A      0.062687    31A      0.069696    32A      0.073173  
      33A      0.085470    34A      0.091722    35A      0.093943  
      36A      0.108688    37A      0.112329    38A      0.115659  
      39A      0.116602    40A      0.116771    41A      0.132410  
      42A      0.138801    43A      0.144358    44A      0.151665  
      45A      0.152484    46A      0.167528    47A      0.186667  
      48A      0.200338    49A      0.208651    50A      0.209263  
      51A      0.240213    52A      0.253984    53A      0.258453  
      54A      0.264250    55A      0.270489    56A      0.276507  
      57A      0.289125    58A      0.294749    59A      0.302116  
      60A      0.305825    61A      0.316239    62A      0.317666  
      63A      0.317683    64A      0.326981    65A      0.329846  
      66A      0.331030    67A      0.338306    68A      0.345219  
      69A      0.348538    70A      0.354068    71A      0.357177  
      72A      0.358870    73A      0.368187    74A      0.372028  
      75A      0.389885    76A      0.389958    77A      0.397380  
      78A      0.403792    79A      0.405111    80A      0.415293  
      81A      0.422930    82A      0.434761    83A      0.438033  
      84A      0.439036    85A      0.460272    86A      0.471017  
      87A      0.472524    88A      0.490876    89A      0.503549  
      90A      0.509796    91A      0.514835    92A      0.531645  
      93A      0.531940    94A      0.543594    95A      0.544365  
      96A      0.554490    97A      0.557976    98A      0.564112  
      99A      0.574093   100A      0.591036   101A      0.636318  
     102A      0.648118   103A      0.652622   104A      0.664753  
     105A      0.674470   106A      0.682713   107A      0.697599  
     108A      0.703742   109A      0.728602   110A      0.733100  
     111A      0.757566   112A      0.769736   113A      0.772919  
     114A      0.773895   115A      0.777260   116A      0.794700  
     117A      0.799097   118A      0.804651   119A      0.806543  
     120A      0.809306   121A      0.815357   122A      0.815953  
     123A      0.824767   124A      0.825326   125A      0.849772  
     126A      0.861609   127A      0.864908   128A      0.880707  
     129A      0.889688   130A      0.896744   131A      0.901205  
     132A      0.909353   133A      0.917791   134A      0.934556  
     135A      0.954114   136A      0.961325   137A      0.972700  
     138A      0.985780   139A      0.988762   140A      0.994417  
     141A      0.999619   142A      1.026895   143A      1.033546  
     144A      1.080028   145A      1.111333   146A      1.130634  
     147A      1.138496   148A      1.160842   149A      1.165796  
     150A      1.179926   151A      1.183492   152A      1.201806  
     153A      1.205893   154A      1.235580   155A      1.259800  
     156A      1.294313   157A      1.313863   158A      1.321266  
     159A      1.326249   160A      1.331118   161A      1.338826  
     162A      1.341192   163A      1.347218   164A      1.352156  
     165A      1.361025   166A      1.364963   167A      1.384540  
     168A      1.402789   169A      1.403879   170A      1.408938  
     171A      1.409176   172A      1.426901   173A      1.435123  
     174A      1.446408   175A      1.458461   176A      1.458541  
     177A      1.487030   178A      1.514702   179A      1.523688  
     180A      1.530143   181A      1.536408   182A      1.547383  
     183A      1.555301   184A      1.576097   185A      1.579941  
     186A      1.600748   187A      1.602090   188A      1.604755  
     189A      1.625861   190A      1.643604   191A      1.648703  
     192A      1.660387   193A      1.668184   194A      1.670624  
     195A      1.681200   196A      1.687098   197A      1.717783  
     198A      1.718240   199A      1.723168   200A      1.757931  
     201A      1.792990   202A      1.812315   203A      1.814733  
     204A      1.821299   205A      1.836655   206A      1.838581  
     207A      1.867533   208A      1.883790   209A      1.893761  
     210A      1.929183   211A      1.949332   212A      1.951380  
     213A      1.955194   214A      1.970551   215A      1.971960  
     216A      1.989705   217A      2.057097   218A      2.114763  
     219A      2.720250   220A      2.726010   221A      2.737729  
     222A      2.740270   223A      2.743148   224A      2.772424  
     225A      2.783314   226A      2.795555   227A      2.800582  
     228A      2.818117   229A      2.844105   230A      2.855349  
     231A      2.885533   232A      2.896423   233A      2.910510  
     234A      2.918216   235A      2.923072   236A      2.930344  
     237A      2.941535   238A      2.944195   239A      2.952324  
     240A      2.976077   241A      3.011900   242A      3.025501  
     243A      3.061473   244A      3.086869   245A      3.089344  
     246A      3.105460   247A      3.122118   248A      3.123983  
     249A      3.138679   250A      3.145432   251A      3.151725  
     252A      3.155460   253A      3.176856   254A      3.211093  
     255A      3.232635   256A      3.237084   257A      3.254234  
     258A      3.275365   259A      3.277004   260A      3.288971  
     261A      3.292320   262A      3.311883   263A      3.315194  
     264A      3.325179   265A      3.361743   266A      3.364464  
     267A      3.369177   268A      3.378775   269A      3.382104  
     270A      3.389171   271A      3.413166   272A      3.418755  
     273A      3.420614   274A      3.429451   275A      3.434070  
     276A      3.465832   277A      3.471085   278A      3.475106  
     279A      3.482914   280A      3.482975   281A      3.495756  
     282A      3.504812   283A      3.505417   284A      3.515997  
     285A      3.526679   286A      3.527658   287A      3.539962  
     288A      3.541104   289A      3.546839   290A      3.576461  
     291A      3.585951   292A      3.594103   293A      3.616018  
     294A      3.625896   295A      3.636662   296A      3.638568  
     297A      3.702099   298A      3.709634   299A      3.714866  
     300A      3.720864   301A      3.734451   302A      3.770939  
     303A      3.771773   304A      3.782262   305A      3.793374  
     306A      3.810778   307A      3.816009   308A      3.822525  
     309A      3.833097   310A      3.846701   311A      3.862762  
     312A      3.867147   313A      3.924029   314A      3.926996  
     315A      3.933016   316A      3.939944   317A      3.943738  
     318A      3.951357   319A      3.966074   320A      3.966794  
     321A      3.967659   322A      3.968493   323A      4.074634  
     324A      4.078755   325A      4.106289   326A      4.118717  
     327A      4.181709   328A      4.181970   329A      4.189886  
     330A      4.191093   331A      4.198163   332A      4.213990  
     333A      4.216033   334A      4.217482   335A      4.227159  
     336A      4.236028   337A      4.291254   338A      4.300951  
     339A      4.304091   340A      4.315761   341A      4.321959  
     342A      4.330671   343A      4.347667   344A      4.352314  
     345A      4.352350   346A      4.356524   347A      4.366510  
     348A      4.366937   349A      4.384982   350A      4.404470  
     351A      4.412085   352A      4.416017   353A      4.437528  
     354A      4.453473   355A      4.477501   356A      4.483955  
     357A      4.496834   358A      4.503628   359A      4.506244  
     360A      4.516892   361A      4.531388   362A      4.534655  
     363A      4.542366   364A      4.551856   365A      4.553102  
     366A      4.559997   367A      4.599691   368A      4.603019  
     369A      4.634379   370A      4.639981   371A      4.675652  
     372A      4.688994   373A      4.694046   374A      4.697168  
     375A      4.704110   376A      4.734254   377A      4.779048  
     378A      4.784826   379A      4.795987   380A      4.802030  
     381A      4.808916   382A      4.830565   383A      4.863018  
     384A      4.869614   385A      4.977330   386A      4.977346  
     387A      4.985179   388A      4.989599   389A      5.018683  
     390A      5.022568   391A      5.126494   392A      5.132375  
     393A      5.157398   394A      5.161549   395A      5.195656  
     396A      5.200884   397A      5.248689   398A      5.249788  
     399A      5.271605   400A      5.273928   401A      5.274918  
     402A      5.275987   403A      5.289068   404A      5.298681  
     405A      5.316437   406A      5.330127   407A      5.392772  
     408A      5.398493   409A      5.400214   410A      5.404654  
     411A      5.463730   412A      5.471386   413A      5.509117  
     414A      5.512284   415A      5.578867   416A      5.579379  
     417A      5.600742   418A      5.602429   419A      5.717181  
     420A      5.719485   421A      5.738968   422A      5.747685  
     423A      5.751506   424A      5.753867   425A      5.769287  
     426A      5.773399   427A      5.778370   428A      5.781376  
     429A      5.790953   430A      5.805419   431A      5.813086  
     432A      5.814898   433A      5.918464   434A      5.921266  
     435A      5.921596   436A      5.925665   437A      5.944193  
     438A      5.944650   439A      5.970212   440A      5.984675  
     441A      6.084459   442A      6.086437   443A      6.460730  
     444A      6.465209   445A      6.469939   446A      6.502499  
     447A      6.511010   448A      6.529895   449A      6.546471  
     450A      6.547789   451A      6.568268   452A      6.578317  
     453A     13.745462   454A     13.852461   455A     14.322300  
     456A     14.417853   457A     14.584529   458A     14.612472  

    Final Occupation by Irrep:
              A 
    DOCC [    26 ]

  @DF-RHF Final Energy:  -236.61585146984152

   => Energetics <=

    Nuclear Repulsion Energy =            239.7342082372736627
    One-Electron Energy =                -792.1556330602926437
    Two-Electron Energy =                 315.8055733531774081
    Total Energy =                       -236.6158514698415161

Computation Completed


Properties will be evaluated at   0.000000,   0.000000,   0.000000 [a0]

Properties computed using the SCF density matrix

  Nuclear Dipole Moment: [e a0]
     X:    -0.0001      Y:     0.0782      Z:    -0.0000

  Electronic Dipole Moment: [e a0]
     X:     0.0001      Y:    -0.0820      Z:     0.0000

  Dipole Moment: [e a0]
     X:     0.0000      Y:    -0.0038      Z:     0.0000     Total:     0.0038

  Dipole Moment: [D]
     X:     0.0000      Y:    -0.0097      Z:     0.0000     Total:     0.0097


*** tstop() called on r282 at Wed Sep 15 07:16:09 2021
Module time:
	user time   =      36.72 seconds =       0.61 minutes
	system time =       1.00 seconds =       0.02 minutes
	total time  =         38 seconds =       0.63 minutes
Total time:
	user time   =      36.72 seconds =       0.61 minutes
	system time =       1.00 seconds =       0.02 minutes
	total time  =         38 seconds =       0.63 minutes

  //>>>>>>>>>>>>>>>>>>>>>>>>>>>>>>>>>>>//
  //            Monomer A HF           //
  //<<<<<<<<<<<<<<<<<<<<<<<<<<<<<<<<<<<//


*** tstart() called on r282
*** at Wed Sep 15 07:16:09 2021

   => Loading Basis Set <=

    Name: JUN-CC-PVTZ
    Role: ORBITAL
    Keyword: BASIS
    atoms 1-3, 12-14  entry C          line   217 file /home/r08543048/miniconda3/share/psi4/basis/jun-cc-pvtz.gbs 
    atoms 4-11, 15-22 entry H          line    36 file /home/r08543048/miniconda3/share/psi4/basis/jun-cc-pvtz.gbs 


         ---------------------------------------------------------
                                   SCF
               by Justin Turney, Rob Parrish, Andy Simmonett
                          and Daniel G. A. Smith
                              RHF Reference
                        1 Threads,  20980 MiB Core
         ---------------------------------------------------------

  ==> Geometry <==

    Molecular point group: c1
    Full point group: C1

    Geometry (in Angstrom), charge = 0, multiplicity = 1:

       Center              X                  Y                   Z               Mass       
    ------------   -----------------  -----------------  -----------------  -----------------
         C           -2.444567574928    -1.232824308463     0.194442738726    12.000000000000
         C           -2.133589574928    -0.049866308463    -0.714120261274    12.000000000000
         C           -2.234544574928     1.279368691537     0.023559738726    12.000000000000
         H           -1.754893574928    -1.264143308463     1.039408738726     1.007825032230
         H           -3.455754574928    -1.155270308463     0.596580738726     1.007825032230
         H           -2.365877574928    -2.180898308463    -0.337124261274     1.007825032230
         H           -2.820860574928    -0.050254308463    -1.562719261274     1.007825032230
         H           -1.130068574928    -0.162678308463    -1.129502261274     1.007825032230
         H           -2.008163574928     2.121694691537    -0.629916261274     1.007825032230
         H           -3.239791574928     1.423294691537     0.422428738726     1.007825032230
         H           -1.537732574928     1.310488691537     0.862641738726     1.007825032230
      Gh(C)           2.444265985072    -1.232986168463    -0.194447281274    12.000000000000
      Gh(C)           2.133729985072    -0.049945168463     0.714159718726    12.000000000000
      Gh(C)           2.234716985072     1.279244831537    -0.023593281274    12.000000000000
      Gh(H)           1.754351985072    -1.264256168463    -1.039225281274     1.007825032230
      Gh(H)           3.455351985072    -1.155595168463    -0.596869281274     1.007825032230
      Gh(H)           2.365569985072    -2.181023168463     0.337183718726     1.007825032230
      Gh(H)           2.821217985072    -0.050414168463     1.562582718726     1.007825032230
      Gh(H)           1.130292985072    -0.162569168463     1.129804718726     1.007825032230
      Gh(H)           2.008701985072     2.121628831537     0.629934718726     1.007825032230
      Gh(H)           3.239868985072     1.422973831537    -0.422773281274     1.007825032230
      Gh(H)           1.537652985072     1.310469831537    -0.862452281274     1.007825032230

  Running in c1 symmetry.

  Rotational constants: A =      0.12687  B =      0.03418  C =      0.02925 [cm^-1]
  Rotational constants: A =   3803.42445  B =   1024.74963  C =    876.95266 [MHz]
  Nuclear repulsion =   82.817219279052708

  Charge       = 0
  Multiplicity = 1
  Electrons    = 26
  Nalpha       = 13
  Nbeta        = 13

  ==> Algorithm <==

  SCF Algorithm Type is DF.
  DIIS enabled.
  MOM disabled.
  Fractional occupation disabled.
  Guess Type is SAD.
  Energy threshold   = 1.00e-08
  Density threshold  = 1.00e-08
  Integral threshold = 0.00e+00

  ==> Primary Basis <==

  Basis Set: JUN-CC-PVTZ
    Blend: JUN-CC-PVTZ
    Number of shells: 174
    Number of basis function: 458
    Number of Cartesian functions: 510
    Spherical Harmonics?: true
    Max angular momentum: 3

   => Loading Basis Set <=

    Name: (JUN-CC-PVTZ AUX)
    Role: JKFIT
    Keyword: DF_BASIS_SCF
    atoms 1-3, 12-14  entry C          line   152 file /home/r08543048/miniconda3/share/psi4/basis/jun-cc-pvtz-jkfit.gbs 
    atoms 4-11, 15-22 entry H          line    70 file /home/r08543048/miniconda3/share/psi4/basis/jun-cc-pvtz-jkfit.gbs 

  ==> Pre-Iterations <==

   -------------------------------------------------------
    Irrep   Nso     Nmo     Nalpha   Nbeta   Ndocc  Nsocc
   -------------------------------------------------------
     A        458     458       0       0       0       0
   -------------------------------------------------------
    Total     458     458      13      13      13       0
   -------------------------------------------------------

  ==> Integral Setup <==

  ==> DiskDFJK: Density-Fitted J/K Matrices <==

    J tasked:                  Yes
    K tasked:                  Yes
    wK tasked:                  No
    OpenMP threads:              1
    Integrals threads:           1
    Memory [MiB]:            15735
    Algorithm:                Core
    Integral Cache:           LOAD
    Schwarz Cutoff:          1E-12
    Fitting Condition:       1E-10

   => Auxiliary Basis Set <=

  Basis Set: (JUN-CC-PVTZ AUX)
    Blend: JUN-CC-PVTZ-JKFIT
    Number of shells: 334
    Number of basis function: 1050
    Number of Cartesian functions: 1256
    Spherical Harmonics?: true
    Max angular momentum: 4

  Minimum eigenvalue in the overlap matrix is 9.4308630760E-05.
  Using Symmetric Orthogonalization.

  SCF Guess: Superposition of Atomic Densities via on-the-fly atomic UHF.

  ==> Iterations <==

                           Total Energy        Delta E     RMS |[F,P]|

   @DF-RHF iter SAD:  -117.72589409681049   -1.17726e+02   0.00000e+00 
   @DF-RHF iter   1:  -118.14637942327739   -4.20485e-01   1.12528e-03 DIIS
   @DF-RHF iter   2:  -118.27576171286231   -1.29382e-01   5.32306e-04 DIIS
   @DF-RHF iter   3:  -118.30617195307336   -3.04102e-02   8.94482e-05 DIIS
   @DF-RHF iter   4:  -118.30802367154698   -1.85172e-03   1.76491e-05 DIIS
   @DF-RHF iter   5:  -118.30808200817849   -5.83366e-05   4.95980e-06 DIIS
   @DF-RHF iter   6:  -118.30808662636549   -4.61819e-06   8.90329e-07 DIIS
   @DF-RHF iter   7:  -118.30808679761090   -1.71245e-07   1.67891e-07 DIIS
   @DF-RHF iter   8:  -118.30808680510950   -7.49860e-09   2.94551e-08 DIIS
   @DF-RHF iter   9:  -118.30808680534400   -2.34508e-10   5.81200e-09 DIIS
  Energy and wave function converged.


  ==> Post-Iterations <==

    Orbital Energies [Eh]
    ---------------------

    Doubly Occupied:                                                      

       1A    -11.215581     2A    -11.207860     3A    -11.207815  
       4A     -1.054044     5A     -0.924838     6A     -0.799826  
       7A     -0.624737     8A     -0.598265     9A     -0.549394  
      10A     -0.530203    11A     -0.475536    12A     -0.474963  
      13A     -0.467988  

    Virtual:                                                              

      14A      0.033115    15A      0.046633    16A      0.051884  
      17A      0.058680    18A      0.066375    19A      0.071139  
      20A      0.079778    21A      0.087672    22A      0.091337  
      23A      0.103279    24A      0.106560    25A      0.108521  
      26A      0.114715    27A      0.114889    28A      0.118486  
      29A      0.132549    30A      0.141926    31A      0.148797  
      32A      0.151311    33A      0.154816    34A      0.161205  
      35A      0.172878    36A      0.193923    37A      0.201220  
      38A      0.222296    39A      0.231833    40A      0.259812  
      41A      0.264084    42A      0.266709    43A      0.271127  
      44A      0.280658    45A      0.286810    46A      0.290616  
      47A      0.294300    48A      0.308806    49A      0.316369  
      50A      0.320734    51A      0.327450    52A      0.328205  
      53A      0.331748    54A      0.339212    55A      0.348776  
      56A      0.350885    57A      0.356169    58A      0.360865  
      59A      0.370659    60A      0.371753    61A      0.376624  
      62A      0.383255    63A      0.384897    64A      0.396600  
      65A      0.401712    66A      0.418681    67A      0.427844  
      68A      0.431247    69A      0.436544    70A      0.444388  
      71A      0.452074    72A      0.460281    73A      0.472704  
      74A      0.475884    75A      0.501562    76A      0.507533  
      77A      0.518189    78A      0.522645    79A      0.528517  
      80A      0.531991    81A      0.537805    82A      0.553156  
      83A      0.556370    84A      0.566009    85A      0.573088  
      86A      0.580916    87A      0.597595    88A      0.608429  
      89A      0.616319    90A      0.625689    91A      0.638161  
      92A      0.650031    93A      0.661288    94A      0.674778  
      95A      0.678683    96A      0.682392    97A      0.690378  
      98A      0.703628    99A      0.728938   100A      0.752797  
     101A      0.762835   102A      0.765388   103A      0.780294  
     104A      0.786749   105A      0.797254   106A      0.804964  
     107A      0.811302   108A      0.817791   109A      0.826120  
     110A      0.879931   111A      0.880463   112A      0.884414  
     113A      0.901981   114A      0.908396   115A      0.962522  
     116A      0.976671   117A      0.980070   118A      0.993930  
     119A      1.007253   120A      1.017037   121A      1.050974  
     122A      1.060033   123A      1.079316   124A      1.092663  
     125A      1.100380   126A      1.113038   127A      1.119573  
     128A      1.138527   129A      1.158047   130A      1.166361  
     131A      1.178447   132A      1.183945   133A      1.193510  
     134A      1.202657   135A      1.220248   136A      1.227934  
     137A      1.241300   138A      1.249536   139A      1.262366  
     140A      1.269253   141A      1.272885   142A      1.288002  
     143A      1.290680   144A      1.303502   145A      1.325440  
     146A      1.336570   147A      1.341723   148A      1.344526  
     149A      1.352764   150A      1.367475   151A      1.376838  
     152A      1.384121   153A      1.387203   154A      1.394405  
     155A      1.401925   156A      1.419349   157A      1.422925  
     158A      1.429233   159A      1.436684   160A      1.449113  
     161A      1.460852   162A      1.474446   163A      1.496264  
     164A      1.497824   165A      1.522189   166A      1.526852  
     167A      1.535381   168A      1.554015   169A      1.556768  
     170A      1.564739   171A      1.578106   172A      1.580675  
     173A      1.592806   174A      1.597822   175A      1.605385  
     176A      1.628747   177A      1.637366   178A      1.641746  
     179A      1.663543   180A      1.677843   181A      1.685954  
     182A      1.702155   183A      1.709287   184A      1.710966  
     185A      1.745571   186A      1.767359   187A      1.804556  
     188A      1.816237   189A      1.823476   190A      1.832511  
     191A      1.859015   192A      1.871964   193A      1.887950  
     194A      1.909607   195A      1.933436   196A      1.941032  
     197A      1.946308   198A      1.971894   199A      1.998424  
     200A      2.027750   201A      2.065739   202A      2.077515  
     203A      2.124109   204A      2.156088   205A      2.177447  
     206A      2.197361   207A      2.330028   208A      2.365555  
     209A      2.375508   210A      2.402931   211A      2.450638  
     212A      2.480705   213A      2.552769   214A      2.592205  
     215A      2.598150   216A      2.737879   217A      2.743171  
     218A      2.759896   219A      2.793705   220A      2.826000  
     221A      2.833769   222A      2.896538   223A      2.923705  
     224A      2.930173   225A      2.943198   226A      2.953142  
     227A      3.021608   228A      3.078697   229A      3.089669  
     230A      3.124473   231A      3.146910   232A      3.150877  
     233A      3.191754   234A      3.243600   235A      3.263719  
     236A      3.278093   237A      3.300051   238A      3.318946  
     239A      3.365425   240A      3.369956   241A      3.384080  
     242A      3.416598   243A      3.426469   244A      3.436880  
     245A      3.450991   246A      3.470037   247A      3.476716  
     248A      3.485620   249A      3.503461   250A      3.514415  
     251A      3.524130   252A      3.529989   253A      3.532091  
     254A      3.549161   255A      3.561515   256A      3.566513  
     257A      3.584982   258A      3.586591   259A      3.597749  
     260A      3.602691   261A      3.610816   262A      3.620446  
     263A      3.626016   264A      3.653219   265A      3.699300  
     266A      3.714197   267A      3.718165   268A      3.727731  
     269A      3.744906   270A      3.753921   271A      3.776045  
     272A      3.781332   273A      3.790705   274A      3.810416  
     275A      3.812220   276A      3.819922   277A      3.824776  
     278A      3.861148   279A      3.864368   280A      3.885962  
     281A      3.893149   282A      3.907235   283A      3.925466  
     284A      3.936902   285A      3.940774   286A      3.945292  
     287A      3.954185   288A      3.962343   289A      3.968531  
     290A      4.011593   291A      4.052513   292A      4.075813  
     293A      4.078659   294A      4.109741   295A      4.125969  
     296A      4.157085   297A      4.169146   298A      4.185613  
     299A      4.191955   300A      4.199003   301A      4.209300  
     302A      4.214930   303A      4.224242   304A      4.230585  
     305A      4.295844   306A      4.302983   307A      4.310473  
     308A      4.323551   309A      4.344250   310A      4.345663  
     311A      4.352949   312A      4.358113   313A      4.368296  
     314A      4.373754   315A      4.390545   316A      4.397814  
     317A      4.429092   318A      4.431620   319A      4.445052  
     320A      4.460262   321A      4.475506   322A      4.494790  
     323A      4.500436   324A      4.503040   325A      4.507892  
     326A      4.518734   327A      4.522564   328A      4.541080  
     329A      4.545624   330A      4.548054   331A      4.560990  
     332A      4.590001   333A      4.599682   334A      4.604194  
     335A      4.618704   336A      4.637203   337A      4.648183  
     338A      4.668451   339A      4.684028   340A      4.687014  
     341A      4.691350   342A      4.706729   343A      4.714520  
     344A      4.737913   345A      4.745441   346A      4.782583  
     347A      4.785643   348A      4.799547   349A      4.805584  
     350A      4.809031   351A      4.811074   352A      4.818057  
     353A      4.824338   354A      4.838721   355A      4.844515  
     356A      4.855544   357A      4.886052   358A      4.894355  
     359A      4.895324   360A      4.908588   361A      4.922130  
     362A      4.935935   363A      4.959866   364A      4.970394  
     365A      4.980979   366A      4.983952   367A      4.990190  
     368A      5.014464   369A      5.021258   370A      5.028138  
     371A      5.043289   372A      5.121674   373A      5.124272  
     374A      5.126413   375A      5.149735   376A      5.157096  
     377A      5.169324   378A      5.198173   379A      5.212672  
     380A      5.251849   381A      5.264941   382A      5.273902  
     383A      5.278194   384A      5.292182   385A      5.324190  
     386A      5.362972   387A      5.388486   388A      5.397148  
     389A      5.408319   390A      5.455913   391A      5.470143  
     392A      5.511148   393A      5.574991   394A      5.579752  
     395A      5.599310   396A      5.609481   397A      5.615398  
     398A      5.621006   399A      5.622659   400A      5.719313  
     401A      5.746092   402A      5.752290   403A      5.772507  
     404A      5.779615   405A      5.799192   406A      5.813141  
     407A      5.825584   408A      5.894497   409A      5.919299  
     410A      5.923931   411A      5.944427   412A      5.955200  
     413A      5.975912   414A      6.012193   415A      6.032480  
     416A      6.086032   417A      6.174887   418A      6.183618  
     419A      6.252222   420A      6.333868   421A      6.335867  
     422A      6.366748   423A      6.412332   424A      6.421039  
     425A      6.461428   426A      6.465515   427A      6.494812  
     428A      6.508885   429A      6.512877   430A      6.548790  
     431A      6.571842   432A      6.604710   433A      6.756004  
     434A      6.897401   435A      6.980271   436A      7.297889  
     437A      7.474719   438A      7.547350   439A      7.588410  
     440A      7.613544   441A      7.674133   442A      7.689116  
     443A      7.796045   444A      7.823332   445A      7.855806  
     446A      7.903090   447A      8.029743   448A      8.184166  
     449A      8.470766   450A      9.547114   451A      9.849375  
     452A      9.882035   453A     13.801235   454A     14.369535  
     455A     14.598904   456A     44.201056   457A     45.218544  
     458A     45.675450  

    Final Occupation by Irrep:
              A 
    DOCC [    13 ]

  @DF-RHF Final Energy:  -118.30808680534400

   => Energetics <=

    Nuclear Repulsion Energy =             82.8172192790527077
    One-Electron Energy =                -321.9885151615135896
    Two-Electron Energy =                 120.8632090771168635
    Total Energy =                       -118.3080868053440042

Computation Completed


Properties will be evaluated at   0.000000,   0.000000,   0.000000 [a0]

Properties computed using the SCF density matrix

  Nuclear Dipole Moment: [e a0]
     X:  -111.8517      Y:     0.0421      Z:    -7.0202

  Electronic Dipole Moment: [e a0]
     X:   111.8597      Y:    -0.0449      Z:     6.9884

  Dipole Moment: [e a0]
     X:     0.0081      Y:    -0.0028      Z:    -0.0318     Total:     0.0329

  Dipole Moment: [D]
     X:     0.0205      Y:    -0.0071      Z:    -0.0807     Total:     0.0836


*** tstop() called on r282 at Wed Sep 15 07:16:29 2021
Module time:
	user time   =      19.12 seconds =       0.32 minutes
	system time =       0.48 seconds =       0.01 minutes
	total time  =         20 seconds =       0.33 minutes
Total time:
	user time   =      55.84 seconds =       0.93 minutes
	system time =       1.48 seconds =       0.02 minutes
	total time  =         58 seconds =       0.97 minutes

  //>>>>>>>>>>>>>>>>>>>>>>>>>>>>>>>>>>>//
  //            Monomer B HF           //
  //<<<<<<<<<<<<<<<<<<<<<<<<<<<<<<<<<<<//


*** tstart() called on r282
*** at Wed Sep 15 07:16:29 2021

   => Loading Basis Set <=

    Name: JUN-CC-PVTZ
    Role: ORBITAL
    Keyword: BASIS
    atoms 1-3, 12-14  entry C          line   217 file /home/r08543048/miniconda3/share/psi4/basis/jun-cc-pvtz.gbs 
    atoms 4-11, 15-22 entry H          line    36 file /home/r08543048/miniconda3/share/psi4/basis/jun-cc-pvtz.gbs 


         ---------------------------------------------------------
                                   SCF
               by Justin Turney, Rob Parrish, Andy Simmonett
                          and Daniel G. A. Smith
                              RHF Reference
                        1 Threads,  20980 MiB Core
         ---------------------------------------------------------

  ==> Geometry <==

    Molecular point group: c1
    Full point group: C1

    Geometry (in Angstrom), charge = 0, multiplicity = 1:

       Center              X                  Y                   Z               Mass       
    ------------   -----------------  -----------------  -----------------  -----------------
      Gh(C)          -2.444567574928    -1.232824308463     0.194442738726    12.000000000000
      Gh(C)          -2.133589574928    -0.049866308463    -0.714120261274    12.000000000000
      Gh(C)          -2.234544574928     1.279368691537     0.023559738726    12.000000000000
      Gh(H)          -1.754893574928    -1.264143308463     1.039408738726     1.007825032230
      Gh(H)          -3.455754574928    -1.155270308463     0.596580738726     1.007825032230
      Gh(H)          -2.365877574928    -2.180898308463    -0.337124261274     1.007825032230
      Gh(H)          -2.820860574928    -0.050254308463    -1.562719261274     1.007825032230
      Gh(H)          -1.130068574928    -0.162678308463    -1.129502261274     1.007825032230
      Gh(H)          -2.008163574928     2.121694691537    -0.629916261274     1.007825032230
      Gh(H)          -3.239791574928     1.423294691537     0.422428738726     1.007825032230
      Gh(H)          -1.537732574928     1.310488691537     0.862641738726     1.007825032230
         C            2.444265985072    -1.232986168463    -0.194447281274    12.000000000000
         C            2.133729985072    -0.049945168463     0.714159718726    12.000000000000
         C            2.234716985072     1.279244831537    -0.023593281274    12.000000000000
         H            1.754351985072    -1.264256168463    -1.039225281274     1.007825032230
         H            3.455351985072    -1.155595168463    -0.596869281274     1.007825032230
         H            2.365569985072    -2.181023168463     0.337183718726     1.007825032230
         H            2.821217985072    -0.050414168463     1.562582718726     1.007825032230
         H            1.130292985072    -0.162569168463     1.129804718726     1.007825032230
         H            2.008701985072     2.121628831537     0.629934718726     1.007825032230
         H            3.239868985072     1.422973831537    -0.422773281274     1.007825032230
         H            1.537652985072     1.310469831537    -0.862452281274     1.007825032230

  Running in c1 symmetry.

  Rotational constants: A =      0.12687  B =      0.03418  C =      0.02925 [cm^-1]
  Rotational constants: A =   3803.42445  B =   1024.74963  C =    876.95266 [MHz]
  Nuclear repulsion =   82.817242756398969

  Charge       = 0
  Multiplicity = 1
  Electrons    = 26
  Nalpha       = 13
  Nbeta        = 13

  ==> Algorithm <==

  SCF Algorithm Type is DF.
  DIIS enabled.
  MOM disabled.
  Fractional occupation disabled.
  Guess Type is SAD.
  Energy threshold   = 1.00e-08
  Density threshold  = 1.00e-08
  Integral threshold = 0.00e+00

  ==> Primary Basis <==

  Basis Set: JUN-CC-PVTZ
    Blend: JUN-CC-PVTZ
    Number of shells: 174
    Number of basis function: 458
    Number of Cartesian functions: 510
    Spherical Harmonics?: true
    Max angular momentum: 3

   => Loading Basis Set <=

    Name: (JUN-CC-PVTZ AUX)
    Role: JKFIT
    Keyword: DF_BASIS_SCF
    atoms 1-3, 12-14  entry C          line   152 file /home/r08543048/miniconda3/share/psi4/basis/jun-cc-pvtz-jkfit.gbs 
    atoms 4-11, 15-22 entry H          line    70 file /home/r08543048/miniconda3/share/psi4/basis/jun-cc-pvtz-jkfit.gbs 

  ==> Pre-Iterations <==

   -------------------------------------------------------
    Irrep   Nso     Nmo     Nalpha   Nbeta   Ndocc  Nsocc
   -------------------------------------------------------
     A        458     458       0       0       0       0
   -------------------------------------------------------
    Total     458     458      13      13      13       0
   -------------------------------------------------------

  ==> Integral Setup <==

  ==> DiskDFJK: Density-Fitted J/K Matrices <==

    J tasked:                  Yes
    K tasked:                  Yes
    wK tasked:                  No
    OpenMP threads:              1
    Integrals threads:           1
    Memory [MiB]:            15735
    Algorithm:                Core
    Integral Cache:           LOAD
    Schwarz Cutoff:          1E-12
    Fitting Condition:       1E-10

   => Auxiliary Basis Set <=

  Basis Set: (JUN-CC-PVTZ AUX)
    Blend: JUN-CC-PVTZ-JKFIT
    Number of shells: 334
    Number of basis function: 1050
    Number of Cartesian functions: 1256
    Spherical Harmonics?: true
    Max angular momentum: 4

  Minimum eigenvalue in the overlap matrix is 9.4308630760E-05.
  Using Symmetric Orthogonalization.

  SCF Guess: Superposition of Atomic Densities via on-the-fly atomic UHF.

  ==> Iterations <==

                           Total Energy        Delta E     RMS |[F,P]|

   @DF-RHF iter SAD:  -117.72589600688610   -1.17726e+02   0.00000e+00 
   @DF-RHF iter   1:  -118.14637909696786   -4.20483e-01   1.12528e-03 DIIS
   @DF-RHF iter   2:  -118.27576159196215   -1.29382e-01   5.32307e-04 DIIS
   @DF-RHF iter   3:  -118.30617196635781   -3.04104e-02   8.94483e-05 DIIS
   @DF-RHF iter   4:  -118.30802368693109   -1.85172e-03   1.76491e-05 DIIS
   @DF-RHF iter   5:  -118.30808202362520   -5.83367e-05   4.95980e-06 DIIS
   @DF-RHF iter   6:  -118.30808664180118   -4.61818e-06   8.90331e-07 DIIS
   @DF-RHF iter   7:  -118.30808681304612   -1.71245e-07   1.67891e-07 DIIS
   @DF-RHF iter   8:  -118.30808682054638   -7.50026e-09   2.94550e-08 DIIS
   @DF-RHF iter   9:  -118.30808682078060   -2.34223e-10   5.81197e-09 DIIS
  Energy and wave function converged.


  ==> Post-Iterations <==

    Orbital Energies [Eh]
    ---------------------

    Doubly Occupied:                                                      

       1A    -11.215581     2A    -11.207860     3A    -11.207815  
       4A     -1.054044     5A     -0.924838     6A     -0.799825  
       7A     -0.624737     8A     -0.598264     9A     -0.549394  
      10A     -0.530204    11A     -0.475537    12A     -0.474961  
      13A     -0.467988  

    Virtual:                                                              

      14A      0.033115    15A      0.046633    16A      0.051884  
      17A      0.058679    18A      0.066375    19A      0.071138  
      20A      0.079778    21A      0.087672    22A      0.091337  
      23A      0.103277    24A      0.106560    25A      0.108521  
      26A      0.114715    27A      0.114891    28A      0.118486  
      29A      0.132549    30A      0.141926    31A      0.148793  
      32A      0.151312    33A      0.154820    34A      0.161207  
      35A      0.172881    36A      0.193922    37A      0.201221  
      38A      0.222291    39A      0.231832    40A      0.259819  
      41A      0.264086    42A      0.266710    43A      0.271124  
      44A      0.280653    45A      0.286801    46A      0.290617  
      47A      0.294297    48A      0.308811    49A      0.316375  
      50A      0.320739    51A      0.327449    52A      0.328204  
      53A      0.331748    54A      0.339202    55A      0.348780  
      56A      0.350881    57A      0.356172    58A      0.360872  
      59A      0.370646    60A      0.371753    61A      0.376624  
      62A      0.383250    63A      0.384893    64A      0.396601  
      65A      0.401714    66A      0.418685    67A      0.427849  
      68A      0.431245    69A      0.436554    70A      0.444390  
      71A      0.452074    72A      0.460268    73A      0.472692  
      74A      0.475887    75A      0.501567    76A      0.507539  
      77A      0.518206    78A      0.522636    79A      0.528508  
      80A      0.531987    81A      0.537812    82A      0.553171  
      83A      0.556369    84A      0.566013    85A      0.573083  
      86A      0.580931    87A      0.597599    88A      0.608435  
      89A      0.616313    90A      0.625685    91A      0.638154  
      92A      0.650044    93A      0.661287    94A      0.674783  
      95A      0.678685    96A      0.682389    97A      0.690375  
      98A      0.703619    99A      0.728931   100A      0.752799  
     101A      0.762817   102A      0.765388   103A      0.780302  
     104A      0.786741   105A      0.797255   106A      0.804970  
     107A      0.811292   108A      0.817773   109A      0.826106  
     110A      0.879932   111A      0.880467   112A      0.884409  
     113A      0.901992   114A      0.908387   115A      0.962525  
     116A      0.976668   117A      0.980081   118A      0.993922  
     119A      1.007258   120A      1.017032   121A      1.050995  
     122A      1.060033   123A      1.079314   124A      1.092657  
     125A      1.100396   126A      1.113038   127A      1.119582  
     128A      1.138531   129A      1.158053   130A      1.166346  
     131A      1.178470   132A      1.183954   133A      1.193518  
     134A      1.202661   135A      1.220231   136A      1.227934  
     137A      1.241288   138A      1.249551   139A      1.262373  
     140A      1.269250   141A      1.272883   142A      1.288004  
     143A      1.290665   144A      1.303489   145A      1.325442  
     146A      1.336567   147A      1.341704   148A      1.344526  
     149A      1.352758   150A      1.367476   151A      1.376830  
     152A      1.384152   153A      1.387198   154A      1.394405  
     155A      1.401921   156A      1.419347   157A      1.422938  
     158A      1.429230   159A      1.436663   160A      1.449126  
     161A      1.460843   162A      1.474471   163A      1.496264  
     164A      1.497834   165A      1.522189   166A      1.526852  
     167A      1.535374   168A      1.554005   169A      1.556756  
     170A      1.564741   171A      1.578113   172A      1.580681  
     173A      1.592815   174A      1.597824   175A      1.605392  
     176A      1.628745   177A      1.637351   178A      1.641790  
     179A      1.663541   180A      1.677818   181A      1.685959  
     182A      1.702151   183A      1.709300   184A      1.710964  
     185A      1.745536   186A      1.767355   187A      1.804543  
     188A      1.816235   189A      1.823492   190A      1.832518  
     191A      1.859025   192A      1.871959   193A      1.887928  
     194A      1.909596   195A      1.933435   196A      1.941032  
     197A      1.946313   198A      1.971891   199A      1.998424  
     200A      2.027751   201A      2.065732   202A      2.077512  
     203A      2.124108   204A      2.156090   205A      2.177445  
     206A      2.197365   207A      2.330031   208A      2.365551  
     209A      2.375514   210A      2.402927   211A      2.450642  
     212A      2.480702   213A      2.552791   214A      2.592203  
     215A      2.598150   216A      2.737887   217A      2.743171  
     218A      2.759884   219A      2.793721   220A      2.825996  
     221A      2.833757   222A      2.896541   223A      2.923708  
     224A      2.930166   225A      2.943199   226A      2.953128  
     227A      3.021612   228A      3.078689   229A      3.089666  
     230A      3.124475   231A      3.146920   232A      3.150877  
     233A      3.191767   234A      3.243603   235A      3.263717  
     236A      3.278089   237A      3.300045   238A      3.318945  
     239A      3.365430   240A      3.369956   241A      3.384078  
     242A      3.416601   243A      3.426453   244A      3.436881  
     245A      3.451010   246A      3.470043   247A      3.476715  
     248A      3.485618   249A      3.503456   250A      3.514417  
     251A      3.524131   252A      3.529994   253A      3.532092  
     254A      3.549158   255A      3.561524   256A      3.566515  
     257A      3.584984   258A      3.586586   259A      3.597756  
     260A      3.602684   261A      3.610815   262A      3.620448  
     263A      3.626016   264A      3.653228   265A      3.699297  
     266A      3.714200   267A      3.718169   268A      3.727731  
     269A      3.744901   270A      3.753918   271A      3.776044  
     272A      3.781331   273A      3.790703   274A      3.810425  
     275A      3.812222   276A      3.819931   277A      3.824772  
     278A      3.861156   279A      3.864367   280A      3.885965  
     281A      3.893147   282A      3.907235   283A      3.925469  
     284A      3.936896   285A      3.940771   286A      3.945290  
     287A      3.954185   288A      3.962340   289A      3.968528  
     290A      4.011593   291A      4.052510   292A      4.075807  
     293A      4.078670   294A      4.109736   295A      4.125971  
     296A      4.157078   297A      4.169152   298A      4.185611  
     299A      4.191960   300A      4.199000   301A      4.209283  
     302A      4.214938   303A      4.224244   304A      4.230577  
     305A      4.295838   306A      4.302988   307A      4.310473  
     308A      4.323551   309A      4.344240   310A      4.345664  
     311A      4.352944   312A      4.358110   313A      4.368296  
     314A      4.373742   315A      4.390543   316A      4.397812  
     317A      4.429089   318A      4.431614   319A      4.445055  
     320A      4.460254   321A      4.475495   322A      4.494787  
     323A      4.500436   324A      4.503038   325A      4.507892  
     326A      4.518720   327A      4.522573   328A      4.541089  
     329A      4.545629   330A      4.548054   331A      4.560978  
     332A      4.589997   333A      4.599677   334A      4.604198  
     335A      4.618707   336A      4.637201   337A      4.648180  
     338A      4.668460   339A      4.684028   340A      4.687019  
     341A      4.691351   342A      4.706723   343A      4.714516  
     344A      4.737923   345A      4.745442   346A      4.782581  
     347A      4.785651   348A      4.799549   349A      4.805591  
     350A      4.809040   351A      4.811060   352A      4.818060  
     353A      4.824337   354A      4.838733   355A      4.844507  
     356A      4.855547   357A      4.886052   358A      4.894366  
     359A      4.895328   360A      4.908575   361A      4.922131  
     362A      4.935935   363A      4.959871   364A      4.970401  
     365A      4.980981   366A      4.983939   367A      4.990197  
     368A      5.014463   369A      5.021248   370A      5.028147  
     371A      5.043297   372A      5.121673   373A      5.124276  
     374A      5.126420   375A      5.149738   376A      5.157098  
     377A      5.169329   378A      5.198179   379A      5.212680  
     380A      5.251844   381A      5.264933   382A      5.273891  
     383A      5.278190   384A      5.292180   385A      5.324189  
     386A      5.362970   387A      5.388479   388A      5.397153  
     389A      5.408321   390A      5.455914   391A      5.470142  
     392A      5.511154   393A      5.574995   394A      5.579759  
     395A      5.599313   396A      5.609482   397A      5.615395  
     398A      5.621006   399A      5.622655   400A      5.719315  
     401A      5.746096   402A      5.752279   403A      5.772509  
     404A      5.779619   405A      5.799196   406A      5.813143  
     407A      5.825599   408A      5.894503   409A      5.919289  
     410A      5.923929   411A      5.944431   412A      5.955203  
     413A      5.975909   414A      6.012190   415A      6.032474  
     416A      6.086032   417A      6.174881   418A      6.183616  
     419A      6.252203   420A      6.333867   421A      6.335870  
     422A      6.366745   423A      6.412332   424A      6.421038  
     425A      6.461431   426A      6.465522   427A      6.494812  
     428A      6.508885   429A      6.512887   430A      6.548793  
     431A      6.571836   432A      6.604701   433A      6.756007  
     434A      6.897401   435A      6.980291   436A      7.297883  
     437A      7.474719   438A      7.547357   439A      7.588410  
     440A      7.613542   441A      7.674128   442A      7.689113  
     443A      7.796053   444A      7.823328   445A      7.855805  
     446A      7.903085   447A      8.029743   448A      8.184170  
     449A      8.470764   450A      9.547136   451A      9.849394  
     452A      9.882022   453A     13.801129   454A     14.369516  
     455A     14.598943   456A     44.201269   457A     45.218553  
     458A     45.675380  

    Final Occupation by Irrep:
              A 
    DOCC [    13 ]

  @DF-RHF Final Energy:  -118.30808682078060

   => Energetics <=

    Nuclear Repulsion Energy =             82.8172427563989686
    One-Electron Energy =                -321.9885628361558929
    Two-Electron Energy =                 120.8632332589763223
    Total Energy =                       -118.3080868207806020

Computation Completed


Properties will be evaluated at   0.000000,   0.000000,   0.000000 [a0]

Properties computed using the SCF density matrix

  Nuclear Dipole Moment: [e a0]
     X:   111.8515      Y:     0.0361      Z:     7.0201

  Electronic Dipole Moment: [e a0]
     X:  -111.8596      Y:    -0.0389      Z:    -6.9884

  Dipole Moment: [e a0]
     X:    -0.0081      Y:    -0.0028      Z:     0.0318     Total:     0.0329

  Dipole Moment: [D]
     X:    -0.0205      Y:    -0.0071      Z:     0.0807     Total:     0.0836


*** tstop() called on r282 at Wed Sep 15 07:16:50 2021
Module time:
	user time   =      20.22 seconds =       0.34 minutes
	system time =       0.44 seconds =       0.01 minutes
	total time  =         21 seconds =       0.35 minutes
Total time:
	user time   =      76.06 seconds =       1.27 minutes
	system time =       1.92 seconds =       0.03 minutes
	total time  =         79 seconds =       1.32 minutes
  Constructing Basis Sets for SAPT...

   => Loading Basis Set <=

    Name: (JUN-CC-PVTZ AUX)
    Role: RIFIT
    Keyword: DF_BASIS_SAPT
    atoms 1-3, 12-14  entry C          line   132 file /home/r08543048/miniconda3/share/psi4/basis/jun-cc-pvtz-ri.gbs 
    atoms 4-11, 15-22 entry H          line    30 file /home/r08543048/miniconda3/share/psi4/basis/jun-cc-pvtz-ri.gbs 


  //>>>>>>>>>>>>>>>>>>>>>>>>>>>>>>>>>>>//
  //               SAPT0               //
  //<<<<<<<<<<<<<<<<<<<<<<<<<<<<<<<<<<<//


*** tstart() called on r282
*** at Wed Sep 15 07:16:50 2021

        SAPT0  
    Ed Hohenstein
     6 June 2009

      Orbital Information
  --------------------------
    NSO        =       458
    NMO        =       458
    NRI        =      1062
    NOCC A     =        13
    NOCC B     =        13
    FOCC A     =         0
    FOCC B     =         0
    NVIR A     =       445
    NVIR B     =       445

    Elst10,r            =    -0.000100301434 [Eh]
    Exch10              =     0.000463317494 [Eh]
    Exch10 (S^2)        =     0.000463226987 [Eh]

    Iter     Energy [mEh]          dE [mEh]         Residual      Time [s]
       1      -0.02236787       0.022367873       0.522642821             0
       2      -0.02658933       0.004221453       0.091128591             1
       3      -0.02652496      -0.000064366       0.028628331             2
       4      -0.02648327      -0.000041687       0.005627898             3
       5      -0.02649167       0.000008396       0.001559641             3
       6      -0.02649242       0.000000752       0.000322319             4
       7      -0.02649203      -0.000000391       0.000065207             5
       8      -0.02649205       0.000000017       0.000018870             6
       9      -0.02649206       0.000000011       0.000004520             6
      10      -0.02649206      -0.000000000       0.000000953             7

    CHF Iterations converged


    Iter     Energy [mEh]          dE [mEh]         Residual      Time [s]
       1      -0.02236072       0.022360716       0.522530753             1
       2      -0.02658014       0.004219423       0.091100158             2
       3      -0.02651589      -0.000064252       0.028615104             2
       4      -0.02647421      -0.000041681       0.005626300             3
       5      -0.02648259       0.000008386       0.001560353             4
       6      -0.02648335       0.000000754       0.000322325             5
       7      -0.02648296      -0.000000391       0.000065296             6
       8      -0.02648297       0.000000016       0.000018933             6
       9      -0.02648298       0.000000011       0.000004525             7
      10      -0.02648298      -0.000000000       0.000000954             8

    CHF Iterations converged

    Ind20,r (A<-B)      =    -0.000026492057 [Eh]
    Ind20,r (B<-A)      =    -0.000026482982 [Eh]
    Ind20,r             =    -0.000052975039 [Eh]
    Exch-Ind20,r (A<-B) =     0.000021301844 [Eh]
    Exch-Ind20,r (B<-A) =     0.000021292308 [Eh]
    Exch-Ind20,r        =     0.000042594152 [Eh]
    Disp20              =    -0.002174784598 [Eh]
    Disp20 (SS)         =    -0.001087392299 [Eh]
    Disp20 (OS)         =    -0.001087392299 [Eh]
    Exch-Disp20         =     0.000061218206 [Eh]
    Exch-Disp20 (SS)    =     0.000041788642 [Eh]
    Exch-Disp20 (OS)    =     0.000019429564 [Eh]

    SAPT Results 
  --------------------------------------------------------------------------------------------------------
    Electrostatics                 -0.10030143 [mEh]      -0.06294010 [kcal/mol]      -0.26334138 [kJ/mol]
      Elst10,r                     -0.10030143 [mEh]      -0.06294010 [kcal/mol]      -0.26334138 [kJ/mol]

    Exchange                        0.46331749 [mEh]       0.29073612 [kcal/mol]       1.21643991 [kJ/mol]
      Exch10                        0.46331749 [mEh]       0.29073612 [kcal/mol]       1.21643991 [kJ/mol]
      Exch10(S^2)                   0.46322699 [mEh]       0.29067932 [kcal/mol]       1.21620229 [kJ/mol]

    Induction                      -0.04085978 [mEh]      -0.02563990 [kcal/mol]      -0.10727733 [kJ/mol]
      Ind20,r                      -0.05297504 [mEh]      -0.03324234 [kcal/mol]      -0.13908595 [kJ/mol]
      Exch-Ind20,r                  0.04259415 [mEh]       0.02672823 [kcal/mol]       0.11183093 [kJ/mol]
      delta HF,r (2)               -0.03047889 [mEh]      -0.01912579 [kcal/mol]      -0.08002232 [kJ/mol]

    Dispersion                     -2.11356639 [mEh]      -1.32628293 [kcal/mol]      -5.54916780 [kJ/mol]
      Disp20                       -2.17478460 [mEh]      -1.36469794 [kcal/mol]      -5.70989618 [kJ/mol]
      Exch-Disp20                   0.06121821 [mEh]       0.03841500 [kcal/mol]       0.16072838 [kJ/mol]
      Disp20 (SS)                  -1.08739230 [mEh]      -0.68234897 [kcal/mol]      -2.85494809 [kJ/mol]
      Disp20 (OS)                  -1.08739230 [mEh]      -0.68234897 [kcal/mol]      -2.85494809 [kJ/mol]
      Exch-Disp20 (SS)              0.04178864 [mEh]       0.02622277 [kcal/mol]       0.10971607 [kJ/mol]
      Exch-Disp20 (OS)              0.01942956 [mEh]       0.01219224 [kcal/mol]       0.05101231 [kJ/mol]

  Total HF                          0.32215628 [mEh]       0.20215612 [kcal/mol]       0.84582120 [kJ/mol]
  Total SAPT0                      -1.79141011 [mEh]      -1.12412681 [kcal/mol]      -4.70334659 [kJ/mol]

  Special recipe for scaled SAPT0 (see Manual):
    Electrostatics sSAPT0          -0.10030143 [mEh]      -0.06294010 [kcal/mol]      -0.26334138 [kJ/mol]
    Exchange sSAPT0                 0.46331749 [mEh]       0.29073612 [kcal/mol]       1.21643991 [kJ/mol]
    Induction sSAPT0               -0.04083481 [mEh]      -0.02562423 [kcal/mol]      -0.10721177 [kJ/mol]
    Dispersion sSAPT0              -2.11353050 [mEh]      -1.32626041 [kcal/mol]      -5.54907357 [kJ/mol]
  Total sSAPT0                     -1.79134925 [mEh]      -1.12408862 [kcal/mol]      -4.70318680 [kJ/mol]
  --------------------------------------------------------------------------------------------------------

*** tstop() called on r282 at Wed Sep 15 07:18:08 2021
Module time:
	user time   =      66.46 seconds =       1.11 minutes
	system time =      11.47 seconds =       0.19 minutes
	total time  =         78 seconds =       1.30 minutes
Total time:
	user time   =     142.66 seconds =       2.38 minutes
	system time =      13.39 seconds =       0.22 minutes
	total time  =        157 seconds =       2.62 minutes

    Psi4 stopped on: Wednesday, 15 September 2021 07:18AM
    Psi4 wall time for execution: 0:02:36.94

*** Psi4 exiting successfully. Buy a developer a beer!
