
    -----------------------------------------------------------------------
          Psi4: An Open-Source Ab Initio Electronic Structure Package
                               Psi4 1.3.2 release

                         Git: Rev {HEAD} ecbda83 


    R. M. Parrish, L. A. Burns, D. G. A. Smith, A. C. Simmonett,
    A. E. DePrince III, E. G. Hohenstein, U. Bozkaya, A. Yu. Sokolov,
    R. Di Remigio, R. M. Richard, J. F. Gonthier, A. M. James,
    H. R. McAlexander, A. Kumar, M. Saitow, X. Wang, B. P. Pritchard,
    P. Verma, H. F. Schaefer III, K. Patkowski, R. A. King, E. F. Valeev,
    F. A. Evangelista, J. M. Turney, T. D. Crawford, and C. D. Sherrill,
    J. Chem. Theory Comput. 13(7) pp 3185--3197 (2017).
    (doi: 10.1021/acs.jctc.7b00174)


                         Additional Contributions by
    P. Kraus, H. Kruse, M. H. Lechner, M. C. Schieber, R. A. Shaw,
    A. Alenaizan, R. Galvelis, Z. L. Glick, S. Lehtola, and J. P. Misiewicz

    -----------------------------------------------------------------------


    Psi4 started on: Wednesday, 15 September 2021 07:29AM

    Process ID: 5557
    Host:       r282
    PSIDATADIR: /home/r08543048/miniconda3/share/psi4
    Memory:     500.0 MiB
    Threads:    1
    
  ==> Input File <==

--------------------------------------------------------------------------
# Any line starting with the # character is a comment line
#! Sample  computation

memory 22 gb

molecule Dimer {

0 1
 C                 -1.97516113   -1.23362924    0.35155381
 C                 -1.66418313   -0.05067124   -0.55700919
 C                 -1.76513813    1.27856376    0.18067081
 H                 -1.28548713   -1.26494824    1.19651981
 H                 -2.98634813   -1.15607524    0.75369181
 H                 -1.89647113   -2.18170324   -0.18001319
 H                 -2.35145413   -0.05105924   -1.40560819
 H                 -0.66066213   -0.16348324   -0.97239119
 H                 -1.53875713    2.12088976   -0.47280519
 H                 -2.77038513    1.42248976    0.57953981
 H                 -1.06832613    1.30968376    1.01975281
--
0 1
 C                  1.97486213   -1.23377376   -0.35155781
 C                  1.66432613   -0.05073276    0.55704919
 C                  1.76531313    1.27845724   -0.18070381
 H                  1.28494813   -1.26504376   -1.19633581
 H                  2.98594813   -1.15638276   -0.75397981
 H                  1.89616613   -2.18181076    0.18007319
 H                  2.35181413   -0.05120176    1.40547219
 H                  0.66088913   -0.16335676    0.97269419
 H                  1.53929813    2.12084124    0.47282419
 H                  2.77046513    1.42218624   -0.57988381
 H                  1.06824913    1.30968224   -1.01956281

units angstrom
no_reorient
symmetry c1
}

set globals{
  basis jun-cc-pvtz
}

energy('sapt0')
--------------------------------------------------------------------------

  Memory set to  20.489 GiB by Python driver.

  //>>>>>>>>>>>>>>>>>>>>>>>>>>>>>>>>>>>//
  //              Dimer HF             //
  //<<<<<<<<<<<<<<<<<<<<<<<<<<<<<<<<<<<//


*** tstart() called on r282
*** at Wed Sep 15 07:29:27 2021

   => Loading Basis Set <=

    Name: JUN-CC-PVTZ
    Role: ORBITAL
    Keyword: BASIS
    atoms 1-3, 12-14  entry C          line   217 file /home/r08543048/miniconda3/share/psi4/basis/jun-cc-pvtz.gbs 
    atoms 4-11, 15-22 entry H          line    36 file /home/r08543048/miniconda3/share/psi4/basis/jun-cc-pvtz.gbs 


         ---------------------------------------------------------
                                   SCF
               by Justin Turney, Rob Parrish, Andy Simmonett
                          and Daniel G. A. Smith
                              RHF Reference
                        1 Threads,  20980 MiB Core
         ---------------------------------------------------------

  ==> Geometry <==

    Molecular point group: c1
    Full point group: C1

    Geometry (in Angstrom), charge = 0, multiplicity = 1:

       Center              X                  Y                   Z               Mass       
    ------------   -----------------  -----------------  -----------------  -----------------
         C           -1.975162424928    -1.232832978463     0.351553538726    12.000000000000
         C           -1.664184424928    -0.049874978463    -0.557009461274    12.000000000000
         C           -1.765139424928     1.279360021537     0.180670538726    12.000000000000
         H           -1.285488424928    -1.264151978463     1.196519538726     1.007825032230
         H           -2.986349424928    -1.155278978463     0.753691538726     1.007825032230
         H           -1.896472424928    -2.180906978463    -0.180013461274     1.007825032230
         H           -2.351455424928    -0.050262978463    -1.405608461274     1.007825032230
         H           -0.660663424928    -0.162686978463    -0.972391461274     1.007825032230
         H           -1.538758424928     2.121686021537    -0.472805461274     1.007825032230
         H           -2.770386424928     1.423286021537     0.579539538726     1.007825032230
         H           -1.068327424928     1.310480021537     1.019752538726     1.007825032230
         C            1.974860835072    -1.232977498463    -0.351558081274    12.000000000000
         C            1.664324835072    -0.049936498463     0.557048918726    12.000000000000
         C            1.765311835072     1.279253501537    -0.180704081274    12.000000000000
         H            1.284946835072    -1.264247498463    -1.196336081274     1.007825032230
         H            2.985946835072    -1.155586498463    -0.753980081274     1.007825032230
         H            1.896164835072    -2.181014498463     0.180072918726     1.007825032230
         H            2.351812835072    -0.050405498463     1.405471918726     1.007825032230
         H            0.660887835072    -0.162560498463     0.972693918726     1.007825032230
         H            1.539296835072     2.121637501537     0.472823918726     1.007825032230
         H            2.770463835072     1.422982501537    -0.579884081274     1.007825032230
         H            1.068247835072     1.310478501537    -1.019563081274     1.007825032230

  Running in c1 symmetry.

  Rotational constants: A =      0.12741  B =      0.05229  C =      0.04151 [cm^-1]
  Rotational constants: A =   3819.71200  B =   1567.53877  C =   1244.51147 [MHz]
  Nuclear repulsion =  256.632509697570015

  Charge       = 0
  Multiplicity = 1
  Electrons    = 52
  Nalpha       = 26
  Nbeta        = 26

  ==> Algorithm <==

  SCF Algorithm Type is DF.
  DIIS enabled.
  MOM disabled.
  Fractional occupation disabled.
  Guess Type is SAD.
  Energy threshold   = 1.00e-08
  Density threshold  = 1.00e-08
  Integral threshold = 0.00e+00

  ==> Primary Basis <==

  Basis Set: JUN-CC-PVTZ
    Blend: JUN-CC-PVTZ
    Number of shells: 174
    Number of basis function: 458
    Number of Cartesian functions: 510
    Spherical Harmonics?: true
    Max angular momentum: 3

   => Loading Basis Set <=

    Name: (JUN-CC-PVTZ AUX)
    Role: JKFIT
    Keyword: DF_BASIS_SCF
    atoms 1-3, 12-14  entry C          line   152 file /home/r08543048/miniconda3/share/psi4/basis/jun-cc-pvtz-jkfit.gbs 
    atoms 4-11, 15-22 entry H          line    70 file /home/r08543048/miniconda3/share/psi4/basis/jun-cc-pvtz-jkfit.gbs 

  ==> Pre-Iterations <==

   -------------------------------------------------------
    Irrep   Nso     Nmo     Nalpha   Nbeta   Ndocc  Nsocc
   -------------------------------------------------------
     A        458     458       0       0       0       0
   -------------------------------------------------------
    Total     458     458      26      26      26       0
   -------------------------------------------------------

  ==> Integral Setup <==

  ==> DiskDFJK: Density-Fitted J/K Matrices <==

    J tasked:                  Yes
    K tasked:                  Yes
    wK tasked:                  No
    OpenMP threads:              1
    Integrals threads:           1
    Memory [MiB]:            15735
    Algorithm:                Core
    Integral Cache:           SAVE
    Schwarz Cutoff:          1E-12
    Fitting Condition:       1E-10

   => Auxiliary Basis Set <=

  Basis Set: (JUN-CC-PVTZ AUX)
    Blend: JUN-CC-PVTZ-JKFIT
    Number of shells: 334
    Number of basis function: 1050
    Number of Cartesian functions: 1256
    Spherical Harmonics?: true
    Max angular momentum: 4

  Minimum eigenvalue in the overlap matrix is 8.7260212053E-05.
  Using Symmetric Orthogonalization.

  SCF Guess: Superposition of Atomic Densities via on-the-fly atomic UHF.

  ==> Iterations <==

                           Total Energy        Delta E     RMS |[F,P]|

   @DF-RHF iter SAD:  -235.69917439869727   -2.35699e+02   0.00000e+00 
   @DF-RHF iter   1:  -236.28919026383610   -5.90016e-01   1.57491e-03 DIIS
   @DF-RHF iter   2:  -236.54676704801682   -2.57577e-01   7.40949e-04 DIIS
   @DF-RHF iter   3:  -236.60601326264396   -5.92462e-02   1.29277e-04 DIIS
   @DF-RHF iter   4:  -236.60976722358987   -3.75396e-03   2.54379e-05 DIIS
   @DF-RHF iter   5:  -236.60988501816993   -1.17795e-04   7.18603e-06 DIIS
   @DF-RHF iter   6:  -236.60989451326952   -9.49510e-06   1.24823e-06 DIIS
   @DF-RHF iter   7:  -236.60989485308011   -3.39811e-07   2.35214e-07 DIIS
   @DF-RHF iter   8:  -236.60989486705290   -1.39728e-08   4.44363e-08 DIIS
   @DF-RHF iter   9:  -236.60989486749284   -4.39940e-10   1.17975e-08 DIIS
   @DF-RHF iter  10:  -236.60989486752413   -3.12923e-11   2.56248e-09 DIIS
  Energy and wave function converged.


  ==> Post-Iterations <==

    Orbital Energies [Eh]
    ---------------------

    Doubly Occupied:                                                      

       1A    -11.214699     2A    -11.214696     3A    -11.207992  
       4A    -11.207991     5A    -11.207327     6A    -11.207325  
       7A     -1.059206     8A     -1.050140     9A     -0.927737  
      10A     -0.922646    11A     -0.802197    12A     -0.798822  
      13A     -0.645858    14A     -0.606866    15A     -0.598870  
      16A     -0.597599    17A     -0.552545    18A     -0.547991  
      19A     -0.535919    20A     -0.524737    21A     -0.479446  
      22A     -0.476784    23A     -0.476299    24A     -0.473154  
      25A     -0.470620    26A     -0.460465  

    Virtual:                                                              

      27A      0.052274    28A      0.053259    29A      0.056059  
      30A      0.062600    31A      0.071959    32A      0.075631  
      33A      0.088770    34A      0.092776    35A      0.094028  
      36A      0.112922    37A      0.118386    38A      0.120469  
      39A      0.121039    40A      0.123022    41A      0.132827  
      42A      0.149624    43A      0.153936    44A      0.157720  
      45A      0.158585    46A      0.170459    47A      0.191173  
      48A      0.206097    49A      0.210380    50A      0.211233  
      51A      0.258334    52A      0.263389    53A      0.267513  
      54A      0.273304    55A      0.280104    56A      0.281103  
      57A      0.292832    58A      0.301533    59A      0.309068  
      60A      0.311935    61A      0.312993    62A      0.324406  
      63A      0.332509    64A      0.334381    65A      0.339112  
      66A      0.344122    67A      0.346515    68A      0.354428  
      69A      0.357969    70A      0.359620    71A      0.364444  
      72A      0.372998    73A      0.374316    74A      0.382471  
      75A      0.392270    76A      0.406233    77A      0.408847  
      78A      0.417187    79A      0.421892    80A      0.429372  
      81A      0.430674    82A      0.450497    83A      0.468124  
      84A      0.475311    85A      0.478752    86A      0.497826  
      87A      0.506280    88A      0.509517    89A      0.518024  
      90A      0.530756    91A      0.531002    92A      0.546553  
      93A      0.547717    94A      0.559994    95A      0.570610  
      96A      0.577784    97A      0.580986    98A      0.587501  
      99A      0.610555   100A      0.620379   101A      0.644658  
     102A      0.655722   103A      0.678926   104A      0.683201  
     105A      0.686764   106A      0.699853   107A      0.716976  
     108A      0.717251   109A      0.737583   110A      0.761038  
     111A      0.761725   112A      0.767603   113A      0.774986  
     114A      0.779156   115A      0.792293   116A      0.797405  
     117A      0.800484   118A      0.809407   119A      0.810507  
     120A      0.831874   121A      0.832618   122A      0.844769  
     123A      0.853315   124A      0.858026   125A      0.863573  
     126A      0.881449   127A      0.882882   128A      0.895261  
     129A      0.902053   130A      0.911793   131A      0.923246  
     132A      0.939093   133A      0.940102   134A      0.943147  
     135A      0.971030   136A      0.984357   137A      0.984768  
     138A      0.996378   139A      1.003980   140A      1.025891  
     141A      1.033011   142A      1.080096   143A      1.099470  
     144A      1.109854   145A      1.126202   146A      1.131862  
     147A      1.144291   148A      1.158303   149A      1.178961  
     150A      1.179795   151A      1.222201   152A      1.250466  
     153A      1.256245   154A      1.259439   155A      1.270136  
     156A      1.293567   157A      1.314635   158A      1.321514  
     159A      1.338619   160A      1.356703   161A      1.358242  
     162A      1.365194   163A      1.379005   164A      1.388712  
     165A      1.394742   166A      1.413634   167A      1.419503  
     168A      1.430428   169A      1.457239   170A      1.459116  
     171A      1.469305   172A      1.472668   173A      1.499792  
     174A      1.505298   175A      1.513482   176A      1.521633  
     177A      1.529398   178A      1.560859   179A      1.562407  
     180A      1.576763   181A      1.577532   182A      1.580008  
     183A      1.585520   184A      1.597846   185A      1.600205  
     186A      1.600661   187A      1.624773   188A      1.628880  
     189A      1.657235   190A      1.660598   191A      1.677601  
     192A      1.694276   193A      1.698855   194A      1.704915  
     195A      1.725389   196A      1.733126   197A      1.736630  
     198A      1.754979   199A      1.787618   200A      1.799831  
     201A      1.802461   202A      1.835972   203A      1.836899  
     204A      1.858596   205A      1.870106   206A      1.891062  
     207A      1.913119   208A      1.931199   209A      1.943479  
     210A      1.954492   211A      1.964490   212A      1.965918  
     213A      1.975064   214A      1.981323   215A      1.992202  
     216A      2.039681   217A      2.082761   218A      2.164137  
     219A      2.734883   220A      2.754609   221A      2.757468  
     222A      2.760664   223A      2.770737   224A      2.776296  
     225A      2.795630   226A      2.798172   227A      2.813338  
     228A      2.865171   229A      2.884729   230A      2.900754  
     231A      2.901187   232A      2.927312   233A      2.929596  
     234A      2.934436   235A      2.953632   236A      2.972572  
     237A      3.001596   238A      3.011153   239A      3.019581  
     240A      3.027289   241A      3.031987   242A      3.065032  
     243A      3.084313   244A      3.101141   245A      3.121287  
     246A      3.123616   247A      3.140938   248A      3.155362  
     249A      3.165122   250A      3.177883   251A      3.182170  
     252A      3.190037   253A      3.214825   254A      3.224126  
     255A      3.244144   256A      3.256414   257A      3.260780  
     258A      3.289496   259A      3.290888   260A      3.315141  
     261A      3.318380   262A      3.349889   263A      3.356306  
     264A      3.361839   265A      3.368614   266A      3.375213  
     267A      3.382353   268A      3.391778   269A      3.397727  
     270A      3.412468   271A      3.415777   272A      3.435978  
     273A      3.445252   274A      3.465441   275A      3.480344  
     276A      3.481113   277A      3.488512   278A      3.490413  
     279A      3.501873   280A      3.507402   281A      3.511177  
     282A      3.520052   283A      3.533775   284A      3.538232  
     285A      3.541492   286A      3.549413   287A      3.566093  
     288A      3.575637   289A      3.589693   290A      3.613814  
     291A      3.614353   292A      3.641438   293A      3.662430  
     294A      3.672620   295A      3.697671   296A      3.706256  
     297A      3.710855   298A      3.729968   299A      3.758993  
     300A      3.759759   301A      3.768094   302A      3.785401  
     303A      3.791703   304A      3.802862   305A      3.806914  
     306A      3.831935   307A      3.835632   308A      3.836448  
     309A      3.868671   310A      3.888935   311A      3.890220  
     312A      3.911098   313A      3.926844   314A      3.937371  
     315A      3.941660   316A      3.957451   317A      3.962826  
     318A      3.964181   319A      3.970158   320A      3.986361  
     321A      4.023381   322A      4.040267   323A      4.085694  
     324A      4.115914   325A      4.122485   326A      4.169483  
     327A      4.183075   328A      4.191703   329A      4.195563  
     330A      4.213488   331A      4.223151   332A      4.241666  
     333A      4.242157   334A      4.263975   335A      4.275687  
     336A      4.279901   337A      4.314957   338A      4.316576  
     339A      4.331544   340A      4.332097   341A      4.339110  
     342A      4.344805   343A      4.362268   344A      4.365463  
     345A      4.373669   346A      4.379748   347A      4.395729  
     348A      4.400118   349A      4.432044   350A      4.440379  
     351A      4.456063   352A      4.477717   353A      4.494402  
     354A      4.503161   355A      4.504092   356A      4.510326  
     357A      4.513237   358A      4.535356   359A      4.542958  
     360A      4.547884   361A      4.553512   362A      4.570886  
     363A      4.576047   364A      4.581242   365A      4.594242  
     366A      4.601608   367A      4.636816   368A      4.646043  
     369A      4.653314   370A      4.692650   371A      4.698392  
     372A      4.719247   373A      4.729644   374A      4.741140  
     375A      4.759195   376A      4.774998   377A      4.802999  
     378A      4.813353   379A      4.843137   380A      4.846072  
     381A      4.868713   382A      4.899245   383A      4.906999  
     384A      4.915205   385A      4.987385   386A      4.997461  
     387A      5.021187   388A      5.037512   389A      5.039103  
     390A      5.086940   391A      5.130605   392A      5.152320  
     393A      5.176574   394A      5.180873   395A      5.193759  
     396A      5.218153   397A      5.261701   398A      5.267381  
     399A      5.276120   400A      5.284964   401A      5.290907  
     402A      5.293927   403A      5.298152   404A      5.335291  
     405A      5.339892   406A      5.346477   407A      5.398397  
     408A      5.403432   409A      5.419092   410A      5.465548  
     411A      5.484077   412A      5.498294   413A      5.507632  
     414A      5.526464   415A      5.581186   416A      5.591367  
     417A      5.605672   418A      5.609470   419A      5.722812  
     420A      5.725387   421A      5.750388   422A      5.757274  
     423A      5.759948   424A      5.771835   425A      5.774224  
     426A      5.778340   427A      5.787630   428A      5.812553  
     429A      5.815720   430A      5.816300   431A      5.825016  
     432A      5.838997   433A      5.910686   434A      5.919845  
     435A      5.943538   436A      5.950041   437A      5.958140  
     438A      5.966159   439A      5.985891   440A      6.045205  
     441A      6.119777   442A      6.145969   443A      6.458762  
     444A      6.480954   445A      6.514756   446A      6.528715  
     447A      6.541583   448A      6.551044   449A      6.560851  
     450A      6.575498   451A      6.626453   452A      6.639408  
     453A     13.904958   454A     14.048726   455A     14.436552  
     456A     14.596523   457A     14.670237   458A     14.763810  

    Final Occupation by Irrep:
              A 
    DOCC [    26 ]

  @DF-RHF Final Energy:  -236.60989486752413

   => Energetics <=

    Nuclear Repulsion Energy =            256.6325096975700149
    One-Electron Energy =                -825.9489444263729183
    Two-Electron Energy =                 332.7065398612788272
    Total Energy =                       -236.6098948675241331

Computation Completed


Properties will be evaluated at   0.000000,   0.000000,   0.000000 [a0]

Properties computed using the SCF density matrix

  Nuclear Dipole Moment: [e a0]
     X:    -0.0001      Y:     0.0782      Z:    -0.0000

  Electronic Dipole Moment: [e a0]
     X:     0.0001      Y:    -0.0820      Z:     0.0000

  Dipole Moment: [e a0]
     X:     0.0000      Y:    -0.0038      Z:    -0.0000     Total:     0.0038

  Dipole Moment: [D]
     X:     0.0000      Y:    -0.0097      Z:    -0.0000     Total:     0.0097


*** tstop() called on r282 at Wed Sep 15 07:30:10 2021
Module time:
	user time   =      42.72 seconds =       0.71 minutes
	system time =       1.06 seconds =       0.02 minutes
	total time  =         43 seconds =       0.72 minutes
Total time:
	user time   =      42.72 seconds =       0.71 minutes
	system time =       1.06 seconds =       0.02 minutes
	total time  =         43 seconds =       0.72 minutes

  //>>>>>>>>>>>>>>>>>>>>>>>>>>>>>>>>>>>//
  //            Monomer A HF           //
  //<<<<<<<<<<<<<<<<<<<<<<<<<<<<<<<<<<<//


*** tstart() called on r282
*** at Wed Sep 15 07:30:10 2021

   => Loading Basis Set <=

    Name: JUN-CC-PVTZ
    Role: ORBITAL
    Keyword: BASIS
    atoms 1-3, 12-14  entry C          line   217 file /home/r08543048/miniconda3/share/psi4/basis/jun-cc-pvtz.gbs 
    atoms 4-11, 15-22 entry H          line    36 file /home/r08543048/miniconda3/share/psi4/basis/jun-cc-pvtz.gbs 


         ---------------------------------------------------------
                                   SCF
               by Justin Turney, Rob Parrish, Andy Simmonett
                          and Daniel G. A. Smith
                              RHF Reference
                        1 Threads,  20980 MiB Core
         ---------------------------------------------------------

  ==> Geometry <==

    Molecular point group: c1
    Full point group: C1

    Geometry (in Angstrom), charge = 0, multiplicity = 1:

       Center              X                  Y                   Z               Mass       
    ------------   -----------------  -----------------  -----------------  -----------------
         C           -1.975162424928    -1.232832978463     0.351553538726    12.000000000000
         C           -1.664184424928    -0.049874978463    -0.557009461274    12.000000000000
         C           -1.765139424928     1.279360021537     0.180670538726    12.000000000000
         H           -1.285488424928    -1.264151978463     1.196519538726     1.007825032230
         H           -2.986349424928    -1.155278978463     0.753691538726     1.007825032230
         H           -1.896472424928    -2.180906978463    -0.180013461274     1.007825032230
         H           -2.351455424928    -0.050262978463    -1.405608461274     1.007825032230
         H           -0.660663424928    -0.162686978463    -0.972391461274     1.007825032230
         H           -1.538758424928     2.121686021537    -0.472805461274     1.007825032230
         H           -2.770386424928     1.423286021537     0.579539538726     1.007825032230
         H           -1.068327424928     1.310480021537     1.019752538726     1.007825032230
      Gh(C)           1.974860835072    -1.232977498463    -0.351558081274    12.000000000000
      Gh(C)           1.664324835072    -0.049936498463     0.557048918726    12.000000000000
      Gh(C)           1.765311835072     1.279253501537    -0.180704081274    12.000000000000
      Gh(H)           1.284946835072    -1.264247498463    -1.196336081274     1.007825032230
      Gh(H)           2.985946835072    -1.155586498463    -0.753980081274     1.007825032230
      Gh(H)           1.896164835072    -2.181014498463     0.180072918726     1.007825032230
      Gh(H)           2.351812835072    -0.050405498463     1.405471918726     1.007825032230
      Gh(H)           0.660887835072    -0.162560498463     0.972693918726     1.007825032230
      Gh(H)           1.539296835072     2.121637501537     0.472823918726     1.007825032230
      Gh(H)           2.770463835072     1.422982501537    -0.579884081274     1.007825032230
      Gh(H)           1.068247835072     1.310478501537    -1.019563081274     1.007825032230

  Running in c1 symmetry.

  Rotational constants: A =      0.12741  B =      0.05229  C =      0.04151 [cm^-1]
  Rotational constants: A =   3819.71200  B =   1567.53877  C =   1244.51147 [MHz]
  Nuclear repulsion =   82.817219279052694

  Charge       = 0
  Multiplicity = 1
  Electrons    = 26
  Nalpha       = 13
  Nbeta        = 13

  ==> Algorithm <==

  SCF Algorithm Type is DF.
  DIIS enabled.
  MOM disabled.
  Fractional occupation disabled.
  Guess Type is SAD.
  Energy threshold   = 1.00e-08
  Density threshold  = 1.00e-08
  Integral threshold = 0.00e+00

  ==> Primary Basis <==

  Basis Set: JUN-CC-PVTZ
    Blend: JUN-CC-PVTZ
    Number of shells: 174
    Number of basis function: 458
    Number of Cartesian functions: 510
    Spherical Harmonics?: true
    Max angular momentum: 3

   => Loading Basis Set <=

    Name: (JUN-CC-PVTZ AUX)
    Role: JKFIT
    Keyword: DF_BASIS_SCF
    atoms 1-3, 12-14  entry C          line   152 file /home/r08543048/miniconda3/share/psi4/basis/jun-cc-pvtz-jkfit.gbs 
    atoms 4-11, 15-22 entry H          line    70 file /home/r08543048/miniconda3/share/psi4/basis/jun-cc-pvtz-jkfit.gbs 

  ==> Pre-Iterations <==

   -------------------------------------------------------
    Irrep   Nso     Nmo     Nalpha   Nbeta   Ndocc  Nsocc
   -------------------------------------------------------
     A        458     458       0       0       0       0
   -------------------------------------------------------
    Total     458     458      13      13      13       0
   -------------------------------------------------------

  ==> Integral Setup <==

  ==> DiskDFJK: Density-Fitted J/K Matrices <==

    J tasked:                  Yes
    K tasked:                  Yes
    wK tasked:                  No
    OpenMP threads:              1
    Integrals threads:           1
    Memory [MiB]:            15735
    Algorithm:                Core
    Integral Cache:           LOAD
    Schwarz Cutoff:          1E-12
    Fitting Condition:       1E-10

   => Auxiliary Basis Set <=

  Basis Set: (JUN-CC-PVTZ AUX)
    Blend: JUN-CC-PVTZ-JKFIT
    Number of shells: 334
    Number of basis function: 1050
    Number of Cartesian functions: 1256
    Spherical Harmonics?: true
    Max angular momentum: 4

  Minimum eigenvalue in the overlap matrix is 8.7260212053E-05.
  Using Symmetric Orthogonalization.

  SCF Guess: Superposition of Atomic Densities via on-the-fly atomic UHF.

  ==> Iterations <==

                           Total Energy        Delta E     RMS |[F,P]|

   @DF-RHF iter SAD:  -117.72589574845991   -1.17726e+02   0.00000e+00 
   @DF-RHF iter   1:  -118.14639284492426   -4.20497e-01   1.12532e-03 DIIS
   @DF-RHF iter   2:  -118.27578025395050   -1.29387e-01   5.32336e-04 DIIS
   @DF-RHF iter   3:  -118.30619387986368   -3.04136e-02   8.94572e-05 DIIS
   @DF-RHF iter   4:  -118.30804606988241   -1.85219e-03   1.76534e-05 DIIS
   @DF-RHF iter   5:  -118.30810444861972   -5.83787e-05   4.96165e-06 DIIS
   @DF-RHF iter   6:  -118.30810907006891   -4.62145e-06   8.90789e-07 DIIS
   @DF-RHF iter   7:  -118.30810924146525   -1.71396e-07   1.67996e-07 DIIS
   @DF-RHF iter   8:  -118.30810924897770   -7.51245e-09   2.94778e-08 DIIS
   @DF-RHF iter   9:  -118.30810924921352   -2.35815e-10   5.81131e-09 DIIS
  Energy and wave function converged.


  ==> Post-Iterations <==

    Orbital Energies [Eh]
    ---------------------

    Doubly Occupied:                                                      

       1A    -11.215579     2A    -11.207860     3A    -11.207814  
       4A     -1.054040     5A     -0.924835     6A     -0.799823  
       7A     -0.624734     8A     -0.598260     9A     -0.549391  
      10A     -0.530201    11A     -0.475535    12A     -0.474961  
      13A     -0.467985  

    Virtual:                                                              

      14A      0.034121    15A      0.047432    16A      0.052593  
      17A      0.058482    18A      0.068786    19A      0.073707  
      20A      0.085414    21A      0.089146    22A      0.091377  
      23A      0.107475    24A      0.111021    25A      0.115503  
      26A      0.118921    27A      0.120975    28A      0.123503  
      29A      0.132951    30A      0.146243    31A      0.153966  
      32A      0.154272    33A      0.159060    34A      0.165928  
      35A      0.177872    36A      0.202045    37A      0.205570  
      38A      0.230014    39A      0.240669    40A      0.259734  
      41A      0.260972    42A      0.273052    43A      0.281087  
      44A      0.282522    45A      0.293854    46A      0.302876  
      47A      0.305714    48A      0.316593    49A      0.318804  
      50A      0.324705    51A      0.331443    52A      0.337276  
      53A      0.344287    54A      0.346627    55A      0.352911  
      56A      0.361371    57A      0.372958    58A      0.379786  
      59A      0.382970    60A      0.388172    61A      0.390187  
      62A      0.395658    63A      0.403920    64A      0.405817  
      65A      0.424208    66A      0.426745    67A      0.439266  
      68A      0.443588    69A      0.460529    70A      0.467082  
      71A      0.478767    72A      0.483114    73A      0.491299  
      74A      0.511295    75A      0.522910    76A      0.526637  
      77A      0.530823    78A      0.542354    79A      0.552437  
      80A      0.561064    81A      0.573827    82A      0.578774  
      83A      0.582950    84A      0.586849    85A      0.597545  
      86A      0.605322    87A      0.612839    88A      0.624095  
      89A      0.633672    90A      0.636345    91A      0.652826  
      92A      0.666474    93A      0.669794    94A      0.681335  
      95A      0.693895    96A      0.703155    97A      0.719578  
      98A      0.749780    99A      0.756416   100A      0.764753  
     101A      0.781488   102A      0.788037   103A      0.792020  
     104A      0.800754   105A      0.809310   106A      0.820588  
     107A      0.825730   108A      0.838387   109A      0.859317  
     110A      0.871749   111A      0.884655   112A      0.897945  
     113A      0.914502   114A      0.935879   115A      0.958279  
     116A      0.984954   117A      0.992563   118A      1.009590  
     119A      1.040393   120A      1.053133   121A      1.063806  
     122A      1.081744   123A      1.108951   124A      1.110858  
     125A      1.122174   126A      1.134703   127A      1.142534  
     128A      1.146632   129A      1.162777   130A      1.176065  
     131A      1.179817   132A      1.200083   133A      1.211519  
     134A      1.213708   135A      1.239863   136A      1.248036  
     137A      1.253250   138A      1.271303   139A      1.282023  
     140A      1.295140   141A      1.304509   142A      1.308519  
     143A      1.318309   144A      1.330569   145A      1.334745  
     146A      1.346938   147A      1.354405   148A      1.366701  
     149A      1.385051   150A      1.393277   151A      1.399421  
     152A      1.418178   153A      1.422263   154A      1.432179  
     155A      1.444944   156A      1.455253   157A      1.465532  
     158A      1.469221   159A      1.482874   160A      1.498526  
     161A      1.511767   162A      1.520166   163A      1.537395  
     164A      1.543946   165A      1.555329   166A      1.570995  
     167A      1.575855   168A      1.578358   169A      1.586679  
     170A      1.599209   171A      1.616175   172A      1.626208  
     173A      1.636400   174A      1.640125   175A      1.650478  
     176A      1.675854   177A      1.680639   178A      1.687596  
     179A      1.711769   180A      1.721951   181A      1.741781  
     182A      1.755477   183A      1.765266   184A      1.772349  
     185A      1.794597   186A      1.805804   187A      1.828777  
     188A      1.844816   189A      1.869118   190A      1.875298  
     191A      1.894056   192A      1.898269   193A      1.920175  
     194A      1.938204   195A      1.965312   196A      1.986948  
     197A      1.990702   198A      2.004089   199A      2.039978  
     200A      2.054048   201A      2.077497   202A      2.132917  
     203A      2.144263   204A      2.192450   205A      2.200379  
     206A      2.213557   207A      2.338064   208A      2.393338  
     209A      2.410332   210A      2.415906   211A      2.455717  
     212A      2.493464   213A      2.578350   214A      2.602604  
     215A      2.614390   216A      2.756789   217A      2.771638  
     218A      2.821241   219A      2.840912   220A      2.858443  
     221A      2.895269   222A      2.930124   223A      2.939306  
     224A      2.984496   225A      3.002365   226A      3.033829  
     227A      3.044803   228A      3.102663   229A      3.112613  
     230A      3.137899   231A      3.172975   232A      3.176881  
     233A      3.218466   234A      3.261484   235A      3.288499  
     236A      3.297695   237A      3.324832   238A      3.332577  
     239A      3.371013   240A      3.379173   241A      3.389921  
     242A      3.423616   243A      3.447651   244A      3.461353  
     245A      3.482189   246A      3.484420   247A      3.496394  
     248A      3.502735   249A      3.519096   250A      3.524078  
     251A      3.532504   252A      3.539662   253A      3.543568  
     254A      3.579291   255A      3.582579   256A      3.596012  
     257A      3.598277   258A      3.602305   259A      3.616327  
     260A      3.635700   261A      3.640577   262A      3.645495  
     263A      3.665686   264A      3.705113   265A      3.720309  
     266A      3.733259   267A      3.739730   268A      3.757040  
     269A      3.771015   270A      3.791594   271A      3.796662  
     272A      3.801023   273A      3.827618   274A      3.838382  
     275A      3.846037   276A      3.859488   277A      3.863826  
     278A      3.875035   279A      3.889073   280A      3.904328  
     281A      3.922648   282A      3.928885   283A      3.933767  
     284A      3.947029   285A      3.949738   286A      3.966137  
     287A      3.979201   288A      3.988446   289A      3.997516  
     290A      4.050305   291A      4.072291   292A      4.103884  
     293A      4.133960   294A      4.142307   295A      4.147093  
     296A      4.159095   297A      4.180134   298A      4.201323  
     299A      4.215016   300A      4.226509   301A      4.236770  
     302A      4.241583   303A      4.250572   304A      4.259975  
     305A      4.307445   306A      4.311060   307A      4.330803  
     308A      4.340825   309A      4.360800   310A      4.365598  
     311A      4.372947   312A      4.381386   313A      4.395800  
     314A      4.409881   315A      4.424781   316A      4.432031  
     317A      4.463738   318A      4.479247   319A      4.484228  
     320A      4.491496   321A      4.497205   322A      4.505243  
     323A      4.514627   324A      4.521257   325A      4.538760  
     326A      4.542433   327A      4.550740   328A      4.561871  
     329A      4.584503   330A      4.588329   331A      4.606689  
     332A      4.611549   333A      4.622105   334A      4.637435  
     335A      4.661069   336A      4.671332   337A      4.688863  
     338A      4.697818   339A      4.701156   340A      4.718285  
     341A      4.732674   342A      4.738069   343A      4.743579  
     344A      4.769082   345A      4.795145   346A      4.808113  
     347A      4.812124   348A      4.818860   349A      4.830197  
     350A      4.834078   351A      4.839169   352A      4.854201  
     353A      4.873546   354A      4.883306   355A      4.902858  
     356A      4.906662   357A      4.917608   358A      4.930658  
     359A      4.944826   360A      4.962437   361A      4.965548  
     362A      4.977345   363A      4.987204   364A      4.997310  
     365A      5.019873   366A      5.024354   367A      5.034154  
     368A      5.060652   369A      5.073373   370A      5.083292  
     371A      5.101426   372A      5.137823   373A      5.143650  
     374A      5.157291   375A      5.176907   376A      5.187556  
     377A      5.205435   378A      5.235488   379A      5.247865  
     380A      5.266014   381A      5.283415   382A      5.291202  
     383A      5.311227   384A      5.332584   385A      5.350942  
     386A      5.387952   387A      5.402977   388A      5.424755  
     389A      5.453239   390A      5.488059   391A      5.502527  
     392A      5.520956   393A      5.587823   394A      5.607240  
     395A      5.615269   396A      5.625332   397A      5.631565  
     398A      5.634875   399A      5.659567   400A      5.725559  
     401A      5.754251   402A      5.772073   403A      5.779920  
     404A      5.799674   405A      5.820754   406A      5.825470  
     407A      5.838237   408A      5.907801   409A      5.931466  
     410A      5.938074   411A      5.959512   412A      5.977184  
     413A      5.998590   414A      6.025055   415A      6.076388  
     416A      6.129212   417A      6.194488   418A      6.205101  
     419A      6.258249   420A      6.352821   421A      6.357431  
     422A      6.388806   423A      6.422983   424A      6.441271  
     425A      6.477788   426A      6.496365   427A      6.509855  
     428A      6.533718   429A      6.553911   430A      6.566276  
     431A      6.617739   432A      6.631736   433A      6.765768  
     434A      6.904284   435A      7.013042   436A      7.301889  
     437A      7.493214   438A      7.575103   439A      7.598680  
     440A      7.645164   441A      7.693937   442A      7.705282  
     443A      7.814830   444A      7.829347   445A      7.869134  
     446A      7.912708   447A      8.060447   448A      8.236445  
     449A      8.507039   450A      9.620715   451A      9.906418  
     452A      9.947414   453A     13.981411   454A     14.523101  
     455A     14.712311   456A     44.484165   457A     45.475566  
     458A     45.853134  

    Final Occupation by Irrep:
              A 
    DOCC [    13 ]

  @DF-RHF Final Energy:  -118.30810924921352

   => Energetics <=

    Nuclear Repulsion Energy =             82.8172192790526935
    One-Electron Energy =                -321.9886177178698290
    Two-Electron Energy =                 120.8632891896036199
    Total Energy =                       -118.3081092492135156

Computation Completed


Properties will be evaluated at   0.000000,   0.000000,   0.000000 [a0]

Properties computed using the SCF density matrix

  Nuclear Dipole Moment: [e a0]
     X:   -88.7884      Y:     0.0417      Z:     0.6991

  Electronic Dipole Moment: [e a0]
     X:    88.7964      Y:    -0.0445      Z:    -0.7310

  Dipole Moment: [e a0]
     X:     0.0079      Y:    -0.0028      Z:    -0.0318     Total:     0.0329

  Dipole Moment: [D]
     X:     0.0202      Y:    -0.0071      Z:    -0.0809     Total:     0.0837


*** tstop() called on r282 at Wed Sep 15 07:30:33 2021
Module time:
	user time   =      21.70 seconds =       0.36 minutes
	system time =       0.45 seconds =       0.01 minutes
	total time  =         23 seconds =       0.38 minutes
Total time:
	user time   =      64.42 seconds =       1.07 minutes
	system time =       1.51 seconds =       0.03 minutes
	total time  =         66 seconds =       1.10 minutes

  //>>>>>>>>>>>>>>>>>>>>>>>>>>>>>>>>>>>//
  //            Monomer B HF           //
  //<<<<<<<<<<<<<<<<<<<<<<<<<<<<<<<<<<<//


*** tstart() called on r282
*** at Wed Sep 15 07:30:33 2021

   => Loading Basis Set <=

    Name: JUN-CC-PVTZ
    Role: ORBITAL
    Keyword: BASIS
    atoms 1-3, 12-14  entry C          line   217 file /home/r08543048/miniconda3/share/psi4/basis/jun-cc-pvtz.gbs 
    atoms 4-11, 15-22 entry H          line    36 file /home/r08543048/miniconda3/share/psi4/basis/jun-cc-pvtz.gbs 


         ---------------------------------------------------------
                                   SCF
               by Justin Turney, Rob Parrish, Andy Simmonett
                          and Daniel G. A. Smith
                              RHF Reference
                        1 Threads,  20980 MiB Core
         ---------------------------------------------------------

  ==> Geometry <==

    Molecular point group: c1
    Full point group: C1

    Geometry (in Angstrom), charge = 0, multiplicity = 1:

       Center              X                  Y                   Z               Mass       
    ------------   -----------------  -----------------  -----------------  -----------------
      Gh(C)          -1.975162424928    -1.232832978463     0.351553538726    12.000000000000
      Gh(C)          -1.664184424928    -0.049874978463    -0.557009461274    12.000000000000
      Gh(C)          -1.765139424928     1.279360021537     0.180670538726    12.000000000000
      Gh(H)          -1.285488424928    -1.264151978463     1.196519538726     1.007825032230
      Gh(H)          -2.986349424928    -1.155278978463     0.753691538726     1.007825032230
      Gh(H)          -1.896472424928    -2.180906978463    -0.180013461274     1.007825032230
      Gh(H)          -2.351455424928    -0.050262978463    -1.405608461274     1.007825032230
      Gh(H)          -0.660663424928    -0.162686978463    -0.972391461274     1.007825032230
      Gh(H)          -1.538758424928     2.121686021537    -0.472805461274     1.007825032230
      Gh(H)          -2.770386424928     1.423286021537     0.579539538726     1.007825032230
      Gh(H)          -1.068327424928     1.310480021537     1.019752538726     1.007825032230
         C            1.974860835072    -1.232977498463    -0.351558081274    12.000000000000
         C            1.664324835072    -0.049936498463     0.557048918726    12.000000000000
         C            1.765311835072     1.279253501537    -0.180704081274    12.000000000000
         H            1.284946835072    -1.264247498463    -1.196336081274     1.007825032230
         H            2.985946835072    -1.155586498463    -0.753980081274     1.007825032230
         H            1.896164835072    -2.181014498463     0.180072918726     1.007825032230
         H            2.351812835072    -0.050405498463     1.405471918726     1.007825032230
         H            0.660887835072    -0.162560498463     0.972693918726     1.007825032230
         H            1.539296835072     2.121637501537     0.472823918726     1.007825032230
         H            2.770463835072     1.422982501537    -0.579884081274     1.007825032230
         H            1.068247835072     1.310478501537    -1.019563081274     1.007825032230

  Running in c1 symmetry.

  Rotational constants: A =      0.12741  B =      0.05229  C =      0.04151 [cm^-1]
  Rotational constants: A =   3819.71200  B =   1567.53877  C =   1244.51147 [MHz]
  Nuclear repulsion =   82.817242756398954

  Charge       = 0
  Multiplicity = 1
  Electrons    = 26
  Nalpha       = 13
  Nbeta        = 13

  ==> Algorithm <==

  SCF Algorithm Type is DF.
  DIIS enabled.
  MOM disabled.
  Fractional occupation disabled.
  Guess Type is SAD.
  Energy threshold   = 1.00e-08
  Density threshold  = 1.00e-08
  Integral threshold = 0.00e+00

  ==> Primary Basis <==

  Basis Set: JUN-CC-PVTZ
    Blend: JUN-CC-PVTZ
    Number of shells: 174
    Number of basis function: 458
    Number of Cartesian functions: 510
    Spherical Harmonics?: true
    Max angular momentum: 3

   => Loading Basis Set <=

    Name: (JUN-CC-PVTZ AUX)
    Role: JKFIT
    Keyword: DF_BASIS_SCF
    atoms 1-3, 12-14  entry C          line   152 file /home/r08543048/miniconda3/share/psi4/basis/jun-cc-pvtz-jkfit.gbs 
    atoms 4-11, 15-22 entry H          line    70 file /home/r08543048/miniconda3/share/psi4/basis/jun-cc-pvtz-jkfit.gbs 

  ==> Pre-Iterations <==

   -------------------------------------------------------
    Irrep   Nso     Nmo     Nalpha   Nbeta   Ndocc  Nsocc
   -------------------------------------------------------
     A        458     458       0       0       0       0
   -------------------------------------------------------
    Total     458     458      13      13      13       0
   -------------------------------------------------------

  ==> Integral Setup <==

  ==> DiskDFJK: Density-Fitted J/K Matrices <==

    J tasked:                  Yes
    K tasked:                  Yes
    wK tasked:                  No
    OpenMP threads:              1
    Integrals threads:           1
    Memory [MiB]:            15735
    Algorithm:                Core
    Integral Cache:           LOAD
    Schwarz Cutoff:          1E-12
    Fitting Condition:       1E-10

   => Auxiliary Basis Set <=

  Basis Set: (JUN-CC-PVTZ AUX)
    Blend: JUN-CC-PVTZ-JKFIT
    Number of shells: 334
    Number of basis function: 1050
    Number of Cartesian functions: 1256
    Spherical Harmonics?: true
    Max angular momentum: 4

  Minimum eigenvalue in the overlap matrix is 8.7260212053E-05.
  Using Symmetric Orthogonalization.

  SCF Guess: Superposition of Atomic Densities via on-the-fly atomic UHF.

  ==> Iterations <==

                           Total Energy        Delta E     RMS |[F,P]|

   @DF-RHF iter SAD:  -117.72589765887405   -1.17726e+02   0.00000e+00 
   @DF-RHF iter   1:  -118.14639251747985   -4.20495e-01   1.12532e-03 DIIS
   @DF-RHF iter   2:  -118.27578013262168   -1.29388e-01   5.32337e-04 DIIS
   @DF-RHF iter   3:  -118.30619389207831   -3.04138e-02   8.94573e-05 DIIS
   @DF-RHF iter   4:  -118.30804608423253   -1.85219e-03   1.76534e-05 DIIS
   @DF-RHF iter   5:  -118.30810446302917   -5.83788e-05   4.96165e-06 DIIS
   @DF-RHF iter   6:  -118.30810908447194   -4.62144e-06   8.90791e-07 DIIS
   @DF-RHF iter   7:  -118.30810925586880   -1.71397e-07   1.67996e-07 DIIS
   @DF-RHF iter   8:  -118.30810926338090   -7.51210e-09   2.94777e-08 DIIS
   @DF-RHF iter   9:  -118.30810926361666   -2.35758e-10   5.81128e-09 DIIS
  Energy and wave function converged.


  ==> Post-Iterations <==

    Orbital Energies [Eh]
    ---------------------

    Doubly Occupied:                                                      

       1A    -11.215579     2A    -11.207859     3A    -11.207814  
       4A     -1.054041     5A     -0.924835     6A     -0.799823  
       7A     -0.624734     8A     -0.598260     9A     -0.549392  
      10A     -0.530201    11A     -0.475536    12A     -0.474959  
      13A     -0.467986  

    Virtual:                                                              

      14A      0.034121    15A      0.047432    16A      0.052593  
      17A      0.058482    18A      0.068786    19A      0.073707  
      20A      0.085414    21A      0.089146    22A      0.091377  
      23A      0.107472    24A      0.111022    25A      0.115504  
      26A      0.118921    27A      0.120978    28A      0.123504  
      29A      0.132951    30A      0.146243    31A      0.153965  
      32A      0.154270    33A      0.159062    34A      0.165931  
      35A      0.177877    36A      0.202046    37A      0.205565  
      38A      0.230015    39A      0.240661    40A      0.259732  
      41A      0.260967    42A      0.273058    43A      0.281092  
      44A      0.282526    45A      0.293851    46A      0.302872  
      47A      0.305703    48A      0.316602    49A      0.318802  
      50A      0.324705    51A      0.331442    52A      0.337281  
      53A      0.344289    54A      0.346626    55A      0.352918  
      56A      0.361374    57A      0.372957    58A      0.379781  
      59A      0.382969    60A      0.388164    61A      0.390190  
      62A      0.395674    63A      0.403912    64A      0.405812  
      65A      0.424204    66A      0.426739    67A      0.439277  
      68A      0.443593    69A      0.460546    70A      0.467077  
      71A      0.478746    72A      0.483121    73A      0.491304  
      74A      0.511293    75A      0.522914    76A      0.526636  
      77A      0.530797    78A      0.542353    79A      0.552435  
      80A      0.561059    81A      0.573846    82A      0.578782  
      83A      0.582941    84A      0.586853    85A      0.597542  
      86A      0.605310    87A      0.612840    88A      0.624087  
      89A      0.633673    90A      0.636349    91A      0.652821  
      92A      0.666485    93A      0.669805    94A      0.681338  
      95A      0.693907    96A      0.703155    97A      0.719586  
      98A      0.749782    99A      0.756405   100A      0.764757  
     101A      0.781488   102A      0.788049   103A      0.792019  
     104A      0.800748   105A      0.809307   106A      0.820598  
     107A      0.825733   108A      0.838365   109A      0.859283  
     110A      0.871761   111A      0.884652   112A      0.897928  
     113A      0.914510   114A      0.935869   115A      0.958261  
     116A      0.984932   117A      0.992560   118A      1.009578  
     119A      1.040381   120A      1.053124   121A      1.063815  
     122A      1.081800   123A      1.108963   124A      1.110866  
     125A      1.122184   126A      1.134717   127A      1.142545  
     128A      1.146640   129A      1.162764   130A      1.176068  
     131A      1.179818   132A      1.200104   133A      1.211554  
     134A      1.213719   135A      1.239851   136A      1.248055  
     137A      1.253243   138A      1.271322   139A      1.282007  
     140A      1.295146   141A      1.304519   142A      1.308476  
     143A      1.318311   144A      1.330544   145A      1.334755  
     146A      1.346911   147A      1.354401   148A      1.366717  
     149A      1.385053   150A      1.393280   151A      1.399426  
     152A      1.418169   153A      1.422284   154A      1.432173  
     155A      1.444957   156A      1.455264   157A      1.465548  
     158A      1.469212   159A      1.482883   160A      1.498503  
     161A      1.511752   162A      1.520180   163A      1.537392  
     164A      1.543977   165A      1.555337   166A      1.570994  
     167A      1.575830   168A      1.578374   169A      1.586655  
     170A      1.599202   171A      1.616160   172A      1.626243  
     173A      1.636412   174A      1.640122   175A      1.650482  
     176A      1.675876   177A      1.680627   178A      1.687541  
     179A      1.711758   180A      1.721937   181A      1.741761  
     182A      1.755491   183A      1.765267   184A      1.772316  
     185A      1.794621   186A      1.805790   187A      1.828767  
     188A      1.844828   189A      1.869121   190A      1.875295  
     191A      1.894083   192A      1.898287   193A      1.920167  
     194A      1.938235   195A      1.965314   196A      1.986897  
     197A      1.990691   198A      2.004114   199A      2.039967  
     200A      2.054020   201A      2.077493   202A      2.132873  
     203A      2.144258   204A      2.192455   205A      2.200362  
     206A      2.213547   207A      2.338068   208A      2.393359  
     209A      2.410326   210A      2.415921   211A      2.455738  
     212A      2.493468   213A      2.578367   214A      2.602607  
     215A      2.614402   216A      2.756785   217A      2.771642  
     218A      2.821240   219A      2.840935   220A      2.858441  
     221A      2.895244   222A      2.930105   223A      2.939304  
     224A      2.984476   225A      3.002304   226A      3.033893  
     227A      3.044809   228A      3.102667   229A      3.112590  
     230A      3.137912   231A      3.172995   232A      3.176901  
     233A      3.218499   234A      3.261474   235A      3.288500  
     236A      3.297694   237A      3.324862   238A      3.332544  
     239A      3.371018   240A      3.379162   241A      3.389912  
     242A      3.423621   243A      3.447671   244A      3.461361  
     245A      3.482207   246A      3.484429   247A      3.496394  
     248A      3.502736   249A      3.519126   250A      3.524068  
     251A      3.532511   252A      3.539667   253A      3.543563  
     254A      3.579298   255A      3.582576   256A      3.596002  
     257A      3.598287   258A      3.602323   259A      3.616312  
     260A      3.635715   261A      3.640561   262A      3.645482  
     263A      3.665731   264A      3.705110   265A      3.720319  
     266A      3.733262   267A      3.739749   268A      3.757055  
     269A      3.771033   270A      3.791583   271A      3.796634  
     272A      3.801029   273A      3.827599   274A      3.838351  
     275A      3.846032   276A      3.859490   277A      3.863828  
     278A      3.875041   279A      3.889078   280A      3.904309  
     281A      3.922643   282A      3.928878   283A      3.933761  
     284A      3.947031   285A      3.949720   286A      3.966129  
     287A      3.979171   288A      3.988447   289A      3.997504  
     290A      4.050319   291A      4.072265   292A      4.103866  
     293A      4.133966   294A      4.142288   295A      4.147095  
     296A      4.159123   297A      4.180128   298A      4.201343  
     299A      4.215033   300A      4.226516   301A      4.236786  
     302A      4.241562   303A      4.250550   304A      4.259967  
     305A      4.307435   306A      4.311071   307A      4.330809  
     308A      4.340821   309A      4.360804   310A      4.365568  
     311A      4.372922   312A      4.381397   313A      4.395749  
     314A      4.409900   315A      4.424779   316A      4.432045  
     317A      4.463729   318A      4.479218   319A      4.484206  
     320A      4.491511   321A      4.497209   322A      4.505223  
     323A      4.514609   324A      4.521247   325A      4.538762  
     326A      4.542415   327A      4.550741   328A      4.561892  
     329A      4.584528   330A      4.588325   331A      4.606676  
     332A      4.611565   333A      4.622113   334A      4.637440  
     335A      4.661069   336A      4.671340   337A      4.688853  
     338A      4.697821   339A      4.701154   340A      4.718289  
     341A      4.732701   342A      4.738072   343A      4.743574  
     344A      4.769083   345A      4.795146   346A      4.808125  
     347A      4.812134   348A      4.818857   349A      4.830197  
     350A      4.834054   351A      4.839178   352A      4.854185  
     353A      4.873545   354A      4.883351   355A      4.902878  
     356A      4.906656   357A      4.917624   358A      4.930625  
     359A      4.944786   360A      4.962441   361A      4.965554  
     362A      4.977341   363A      4.987160   364A      4.997314  
     365A      5.019905   366A      5.024369   367A      5.034149  
     368A      5.060650   369A      5.073370   370A      5.083302  
     371A      5.101375   372A      5.137817   373A      5.143620  
     374A      5.157303   375A      5.176917   376A      5.187544  
     377A      5.205431   378A      5.235512   379A      5.247909  
     380A      5.266019   381A      5.283407   382A      5.291206  
     383A      5.311216   384A      5.332591   385A      5.350933  
     386A      5.387927   387A      5.402989   388A      5.424785  
     389A      5.453216   390A      5.488045   391A      5.502524  
     392A      5.520964   393A      5.587828   394A      5.607242  
     395A      5.615283   396A      5.625342   397A      5.631571  
     398A      5.634872   399A      5.659620   400A      5.725560  
     401A      5.754250   402A      5.772062   403A      5.779937  
     404A      5.799692   405A      5.820737   406A      5.825468  
     407A      5.838247   408A      5.907801   409A      5.931452  
     410A      5.938067   411A      5.959515   412A      5.977190  
     413A      5.998571   414A      6.025038   415A      6.076380  
     416A      6.129246   417A      6.194498   418A      6.205106  
     419A      6.258237   420A      6.352826   421A      6.357427  
     422A      6.388789   423A      6.422992   424A      6.441273  
     425A      6.477796   426A      6.496380   427A      6.509861  
     428A      6.533721   429A      6.553958   430A      6.566273  
     431A      6.617741   432A      6.631680   433A      6.765768  
     434A      6.904277   435A      7.013097   436A      7.301884  
     437A      7.493205   438A      7.575101   439A      7.598674  
     440A      7.645167   441A      7.693931   442A      7.705284  
     443A      7.814842   444A      7.829343   445A      7.869139  
     446A      7.912706   447A      8.060449   448A      8.236457  
     449A      8.507052   450A      9.620749   451A      9.906451  
     452A      9.947447   453A     13.981182   454A     14.523030  
     455A     14.712298   456A     44.484607   457A     45.475629  
     458A     45.853137  

    Final Occupation by Irrep:
              A 
    DOCC [    13 ]

  @DF-RHF Final Energy:  -118.30810926361666

   => Energetics <=

    Nuclear Repulsion Energy =             82.8172427563989544
    One-Electron Energy =                -321.9886654597397069
    Two-Electron Energy =                 120.8633134397240809
    Total Energy =                       -118.3081092636166574

Computation Completed


Properties will be evaluated at   0.000000,   0.000000,   0.000000 [a0]

Properties computed using the SCF density matrix

  Nuclear Dipole Moment: [e a0]
     X:    88.7883      Y:     0.0365      Z:    -0.6992

  Electronic Dipole Moment: [e a0]
     X:   -88.7963      Y:    -0.0393      Z:     0.7310

  Dipole Moment: [e a0]
     X:    -0.0079      Y:    -0.0028      Z:     0.0318     Total:     0.0329

  Dipole Moment: [D]
     X:    -0.0202      Y:    -0.0071      Z:     0.0809     Total:     0.0837


*** tstop() called on r282 at Wed Sep 15 07:30:55 2021
Module time:
	user time   =      21.60 seconds =       0.36 minutes
	system time =       0.48 seconds =       0.01 minutes
	total time  =         22 seconds =       0.37 minutes
Total time:
	user time   =      86.02 seconds =       1.43 minutes
	system time =       1.99 seconds =       0.03 minutes
	total time  =         88 seconds =       1.47 minutes
  Constructing Basis Sets for SAPT...

   => Loading Basis Set <=

    Name: (JUN-CC-PVTZ AUX)
    Role: RIFIT
    Keyword: DF_BASIS_SAPT
    atoms 1-3, 12-14  entry C          line   132 file /home/r08543048/miniconda3/share/psi4/basis/jun-cc-pvtz-ri.gbs 
    atoms 4-11, 15-22 entry H          line    30 file /home/r08543048/miniconda3/share/psi4/basis/jun-cc-pvtz-ri.gbs 


  //>>>>>>>>>>>>>>>>>>>>>>>>>>>>>>>>>>>//
  //               SAPT0               //
  //<<<<<<<<<<<<<<<<<<<<<<<<<<<<<<<<<<<//


*** tstart() called on r282
*** at Wed Sep 15 07:30:55 2021

        SAPT0  
    Ed Hohenstein
     6 June 2009

      Orbital Information
  --------------------------
    NSO        =       458
    NMO        =       458
    NRI        =      1062
    NOCC A     =        13
    NOCC B     =        13
    FOCC A     =         0
    FOCC B     =         0
    NVIR A     =       445
    NVIR B     =       445

    Elst10,r            =    -0.003164590499 [Eh]
    Exch10              =     0.010425495592 [Eh]
    Exch10 (S^2)        =     0.010383288468 [Eh]

    Iter     Energy [mEh]          dE [mEh]         Residual      Time [s]
       1      -0.74574371       0.745743715       3.733117064             1
       2      -0.91937425       0.173630538       0.748557620             1
       3      -0.92011513       0.000740878       0.253901471             2
       4      -0.91725224      -0.002862888       0.056844761             3
       5      -0.91750386       0.000251618       0.013539538             4
       6      -0.91758165       0.000077787       0.002522947             4
       7      -0.91756835      -0.000013297       0.000600274             5
       8      -0.91756754      -0.000000813       0.000164684             6
       9      -0.91756823       0.000000694       0.000030956             6
      10      -0.91756822      -0.000000007       0.000007187             7
      11      -0.91756820      -0.000000021       0.000001672             8
      12      -0.91756820       0.000000001       0.000000470             8

    CHF Iterations converged


    Iter     Energy [mEh]          dE [mEh]         Residual      Time [s]
       1      -0.74542481       0.745424812       3.732023895             1
       2      -0.91895268       0.173527869       0.748007328             2
       3      -0.91969050       0.000737815       0.253690235             3
       4      -0.91683139      -0.002859108       0.056815896             3
       5      -0.91708246       0.000251067       0.013537883             4
       6      -0.91716029       0.000077834       0.002522770             5
       7      -0.91714701      -0.000013281       0.000600693             6
       8      -0.91714619      -0.000000819       0.000164699             6
       9      -0.91714688       0.000000694       0.000030949             7
      10      -0.91714688      -0.000000007       0.000007184             8
      11      -0.91714685      -0.000000021       0.000001671             8
      12      -0.91714686       0.000000001       0.000000469             9

    CHF Iterations converged

    Ind20,r (A<-B)      =    -0.000917568204 [Eh]
    Ind20,r (B<-A)      =    -0.000917146855 [Eh]
    Ind20,r             =    -0.001834715060 [Eh]
    Exch-Ind20,r (A<-B) =     0.000808936955 [Eh]
    Exch-Ind20,r (B<-A) =     0.000808462941 [Eh]
    Exch-Ind20,r        =     0.001617399896 [Eh]
    Disp20              =    -0.010119498039 [Eh]
    Disp20 (SS)         =    -0.005059749020 [Eh]
    Disp20 (OS)         =    -0.005059749020 [Eh]
    Exch-Disp20         =     0.001058220114 [Eh]
    Exch-Disp20 (SS)    =     0.000687083285 [Eh]
    Exch-Disp20 (OS)    =     0.000371136830 [Eh]

    SAPT Results 
  --------------------------------------------------------------------------------------------------------
    Electrostatics                 -3.16459050 [mEh]      -1.98581052 [kcal/mol]      -8.30863121 [kJ/mol]
      Elst10,r                     -3.16459050 [mEh]      -1.98581052 [kcal/mol]      -8.30863121 [kJ/mol]

    Exchange                       10.42549559 [mEh]       6.54209725 [kcal/mol]      27.37213490 [kJ/mol]
      Exch10                       10.42549559 [mEh]       6.54209725 [kcal/mol]      27.37213490 [kJ/mol]
      Exch10(S^2)                  10.38328847 [mEh]       6.51561188 [kcal/mol]      27.26132012 [kJ/mol]

    Induction                      -0.93725979 [mEh]      -0.58813940 [kcal/mol]      -2.46077523 [kJ/mol]
      Ind20,r                      -1.83471506 [mEh]      -1.15130108 [kcal/mol]      -4.81704373 [kJ/mol]
      Exch-Ind20,r                  1.61739990 [mEh]       1.01493376 [kcal/mol]       4.24648284 [kJ/mol]
      delta HF,r (2)               -0.71994462 [mEh]      -0.45177207 [kcal/mol]      -1.89021435 [kJ/mol]

    Dispersion                     -9.06127793 [mEh]      -5.68603774 [kcal/mol]     -23.79038192 [kJ/mol]
      Disp20                      -10.11949804 [mEh]      -6.35008089 [kcal/mol]     -26.56873844 [kJ/mol]
      Exch-Disp20                   1.05822011 [mEh]       0.66404315 [kcal/mol]       2.77835653 [kJ/mol]
      Disp20 (SS)                  -5.05974902 [mEh]      -3.17504044 [kcal/mol]     -13.28436922 [kJ/mol]
      Disp20 (OS)                  -5.05974902 [mEh]      -3.17504044 [kcal/mol]     -13.28436922 [kJ/mol]
      Exch-Disp20 (SS)              0.68708328 [mEh]       0.43115127 [kcal/mol]       1.80393692 [kJ/mol]
      Exch-Disp20 (OS)              0.37113683 [mEh]       0.23289188 [kcal/mol]       0.97441961 [kJ/mol]

  Total HF                          6.32364531 [mEh]       3.96814734 [kcal/mol]      16.60272846 [kJ/mol]
  Total SAPT0                      -2.73763262 [mEh]      -1.71789040 [kcal/mol]      -7.18765345 [kJ/mol]

  Special recipe for scaled SAPT0 (see Manual):
    Electrostatics sSAPT0          -3.16459050 [mEh]      -1.98581052 [kcal/mol]      -8.30863121 [kJ/mol]
    Exchange sSAPT0                10.42549559 [mEh]       6.54209725 [kcal/mol]      27.37213490 [kJ/mol]
    Induction sSAPT0               -0.91745575 [mEh]      -0.57571218 [kcal/mol]      -2.40877974 [kJ/mol]
    Dispersion sSAPT0              -9.04832069 [mEh]      -5.67790696 [kcal/mol]     -23.75636270 [kJ/mol]
  Total sSAPT0                     -2.70487135 [mEh]      -1.69733240 [kcal/mol]      -7.10163875 [kJ/mol]
  --------------------------------------------------------------------------------------------------------

*** tstop() called on r282 at Wed Sep 15 07:32:14 2021
Module time:
	user time   =      66.39 seconds =       1.11 minutes
	system time =      11.55 seconds =       0.19 minutes
	total time  =         79 seconds =       1.32 minutes
Total time:
	user time   =     152.55 seconds =       2.54 minutes
	system time =      13.54 seconds =       0.23 minutes
	total time  =        167 seconds =       2.78 minutes

    Psi4 stopped on: Wednesday, 15 September 2021 07:32AM
    Psi4 wall time for execution: 0:02:47.45

*** Psi4 exiting successfully. Buy a developer a beer!
