
    -----------------------------------------------------------------------
          Psi4: An Open-Source Ab Initio Electronic Structure Package
                               Psi4 1.3.2 release

                         Git: Rev {HEAD} ecbda83 


    R. M. Parrish, L. A. Burns, D. G. A. Smith, A. C. Simmonett,
    A. E. DePrince III, E. G. Hohenstein, U. Bozkaya, A. Yu. Sokolov,
    R. Di Remigio, R. M. Richard, J. F. Gonthier, A. M. James,
    H. R. McAlexander, A. Kumar, M. Saitow, X. Wang, B. P. Pritchard,
    P. Verma, H. F. Schaefer III, K. Patkowski, R. A. King, E. F. Valeev,
    F. A. Evangelista, J. M. Turney, T. D. Crawford, and C. D. Sherrill,
    J. Chem. Theory Comput. 13(7) pp 3185--3197 (2017).
    (doi: 10.1021/acs.jctc.7b00174)


                         Additional Contributions by
    P. Kraus, H. Kruse, M. H. Lechner, M. C. Schieber, R. A. Shaw,
    A. Alenaizan, R. Galvelis, Z. L. Glick, S. Lehtola, and J. P. Misiewicz

    -----------------------------------------------------------------------


    Psi4 started on: Wednesday, 15 September 2021 07:01AM

    Process ID: 3767
    Host:       r282
    PSIDATADIR: /home/r08543048/miniconda3/share/psi4
    Memory:     500.0 MiB
    Threads:    1
    
  ==> Input File <==

--------------------------------------------------------------------------
# Any line starting with the # character is a comment line
#! Sample  computation

memory 22 gb

molecule Dimer {

0 1
 C                 -1.73603519    1.76536291   -0.34522292
 C                 -2.63329219    0.91567191    0.16181808
 C                 -2.74527819   -0.52341209   -0.22833592
 H                 -1.70151719    2.79940591   -0.03115192
 H                 -1.01673019    1.43743691   -1.08510292
 H                 -3.33453019    1.27962091    0.90599408
 H                 -3.73304019   -0.73874009   -0.63897992
 H                 -1.99469219   -0.78433009   -0.97302892
 H                 -2.61165219   -1.17479309    0.63733808
--
0 1
 C                  1.73619919   -1.76537991    0.34574992
 C                  2.63285319   -0.91559691   -0.16220308
 C                  2.74547219    0.52337009    0.22817892
 H                  1.70120319   -2.79931791    0.03138892
 H                  1.01788719   -1.43765991    1.08668492
 H                  3.33308119   -1.27938891   -0.90741008
 H                  2.61072519    1.17499909   -0.63713908
 H                  1.99593719    0.78416909    0.97397392
 H                  3.73381619    0.73850209    0.63752492

units angstrom
no_reorient
symmetry c1
}

set globals{
  basis jun-cc-pvtz
}

energy('sapt0')
--------------------------------------------------------------------------

  Memory set to  20.489 GiB by Python driver.

  //>>>>>>>>>>>>>>>>>>>>>>>>>>>>>>>>>>>//
  //              Dimer HF             //
  //<<<<<<<<<<<<<<<<<<<<<<<<<<<<<<<<<<<//


*** tstart() called on r282
*** at Wed Sep 15 07:01:49 2021

   => Loading Basis Set <=

    Name: JUN-CC-PVTZ
    Role: ORBITAL
    Keyword: BASIS
    atoms 1-3, 10-12 entry C          line   217 file /home/r08543048/miniconda3/share/psi4/basis/jun-cc-pvtz.gbs 
    atoms 4-9, 13-18 entry H          line    36 file /home/r08543048/miniconda3/share/psi4/basis/jun-cc-pvtz.gbs 


         ---------------------------------------------------------
                                   SCF
               by Justin Turney, Rob Parrish, Andy Simmonett
                          and Daniel G. A. Smith
                              RHF Reference
                        1 Threads,  20980 MiB Core
         ---------------------------------------------------------

  ==> Geometry <==

    Molecular point group: c1
    Full point group: C1

    Geometry (in Angstrom), charge = 0, multiplicity = 1:

       Center              X                  Y                   Z               Mass       
    ------------   -----------------  -----------------  -----------------  -----------------
         C           -1.736029479938     1.765361777352    -0.345221882111    12.000000000000
         C           -2.633286479938     0.915670777352     0.161819117889    12.000000000000
         C           -2.745272479938    -0.523413222648    -0.228334882111    12.000000000000
         H           -1.701511479938     2.799404777352    -0.031150882111     1.007825032230
         H           -1.016724479938     1.437435777352    -1.085101882111     1.007825032230
         H           -3.334524479938     1.279619777352     0.905995117889     1.007825032230
         H           -3.733034479938    -0.738741222648    -0.638978882111     1.007825032230
         H           -1.994686479938    -0.784331222648    -0.973027882111     1.007825032230
         H           -2.611646479938    -1.174794222648     0.637339117889     1.007825032230
         C            1.736204900062    -1.765381042648     0.345750957889    12.000000000000
         C            2.632858900062    -0.915598042648    -0.162202042111    12.000000000000
         C            2.745477900062     0.523368957352     0.228179957889    12.000000000000
         H            1.701208900062    -2.799319042648     0.031389957889     1.007825032230
         H            1.017892900062    -1.437661042648     1.086685957889     1.007825032230
         H            3.333086900062    -1.279390042648    -0.907409042111     1.007825032230
         H            2.610730900062     1.174997957352    -0.637138042111     1.007825032230
         H            1.995942900062     0.784167957352     0.973974957889     1.007825032230
         H            3.733821900062     0.738500957352     0.637525957889     1.007825032230

  Running in c1 symmetry.

  Rotational constants: A =      0.14734  B =      0.03128  C =      0.02673 [cm^-1]
  Rotational constants: A =   4417.05224  B =    937.80933  C =    801.27256 [MHz]
  Nuclear repulsion =  200.589400196884014

  Charge       = 0
  Multiplicity = 1
  Electrons    = 48
  Nalpha       = 24
  Nbeta        = 24

  ==> Algorithm <==

  SCF Algorithm Type is DF.
  DIIS enabled.
  MOM disabled.
  Fractional occupation disabled.
  Guess Type is SAD.
  Energy threshold   = 1.00e-08
  Density threshold  = 1.00e-08
  Integral threshold = 0.00e+00

  ==> Primary Basis <==

  Basis Set: JUN-CC-PVTZ
    Blend: JUN-CC-PVTZ
    Number of shells: 150
    Number of basis function: 402
    Number of Cartesian functions: 450
    Spherical Harmonics?: true
    Max angular momentum: 3

   => Loading Basis Set <=

    Name: (JUN-CC-PVTZ AUX)
    Role: JKFIT
    Keyword: DF_BASIS_SCF
    atoms 1-3, 10-12 entry C          line   152 file /home/r08543048/miniconda3/share/psi4/basis/jun-cc-pvtz-jkfit.gbs 
    atoms 4-9, 13-18 entry H          line    70 file /home/r08543048/miniconda3/share/psi4/basis/jun-cc-pvtz-jkfit.gbs 

  ==> Pre-Iterations <==

   -------------------------------------------------------
    Irrep   Nso     Nmo     Nalpha   Nbeta   Ndocc  Nsocc
   -------------------------------------------------------
     A        402     402       0       0       0       0
   -------------------------------------------------------
    Total     402     402      24      24      24       0
   -------------------------------------------------------

  ==> Integral Setup <==

  ==> DiskDFJK: Density-Fitted J/K Matrices <==

    J tasked:                  Yes
    K tasked:                  Yes
    wK tasked:                  No
    OpenMP threads:              1
    Integrals threads:           1
    Memory [MiB]:            15735
    Algorithm:                Core
    Integral Cache:           SAVE
    Schwarz Cutoff:          1E-12
    Fitting Condition:       1E-10

   => Auxiliary Basis Set <=

  Basis Set: (JUN-CC-PVTZ AUX)
    Blend: JUN-CC-PVTZ-JKFIT
    Number of shells: 294
    Number of basis function: 930
    Number of Cartesian functions: 1116
    Spherical Harmonics?: true
    Max angular momentum: 4

  Minimum eigenvalue in the overlap matrix is 4.0097590688E-05.
  Using Symmetric Orthogonalization.

  SCF Guess: Superposition of Atomic Densities via on-the-fly atomic UHF.

  ==> Iterations <==

                           Total Energy        Delta E     RMS |[F,P]|

   @DF-RHF iter SAD:  -232.67601413173236   -2.32676e+02   0.00000e+00 
   @DF-RHF iter   1:  -233.97577595428947   -1.29976e+00   1.61232e-03 DIIS
   @DF-RHF iter   2:  -234.19065253744074   -2.14877e-01   6.94223e-04 DIIS
   @DF-RHF iter   3:  -234.23105625853253   -4.04037e-02   1.24597e-04 DIIS
   @DF-RHF iter   4:  -234.23366206657693   -2.60581e-03   3.63084e-05 DIIS
   @DF-RHF iter   5:  -234.23380353737480   -1.41471e-04   1.01614e-05 DIIS
   @DF-RHF iter   6:  -234.23381590007327   -1.23627e-05   1.86518e-06 DIIS
   @DF-RHF iter   7:  -234.23381656464039   -6.64567e-07   6.85692e-07 DIIS
   @DF-RHF iter   8:  -234.23381665475739   -9.01170e-08   2.43458e-07 DIIS
   @DF-RHF iter   9:  -234.23381666805741   -1.33000e-08   9.12087e-08 DIIS
   @DF-RHF iter  10:  -234.23381667032203   -2.26461e-09   2.07942e-08 DIIS
   @DF-RHF iter  11:  -234.23381667042202   -9.99876e-11   4.44516e-09 DIIS
  Energy and wave function converged.


  ==> Post-Iterations <==

    Orbital Energies [Eh]
    ---------------------

    Doubly Occupied:                                                      

       1A    -11.233636     2A    -11.233630     3A    -11.219349  
       4A    -11.219341     5A    -11.216722     6A    -11.216717  
       7A     -1.064128     8A     -1.063839     9A     -0.931919  
      10A     -0.931500    11A     -0.757655    12A     -0.756727  
      13A     -0.639292    14A     -0.639096    15A     -0.582104  
      16A     -0.581007    17A     -0.567414    18A     -0.566870  
      19A     -0.522178    20A     -0.522036    21A     -0.492580  
      22A     -0.491669    23A     -0.357670    24A     -0.356941  

    Virtual:                                                              

      25A      0.051860    26A      0.055640    27A      0.058907  
      28A      0.067764    29A      0.068638    30A      0.070416  
      31A      0.092722    32A      0.095612    33A      0.101398  
      34A      0.103875    35A      0.109780    36A      0.115547  
      37A      0.121792    38A      0.122466    39A      0.127906  
      40A      0.140062    41A      0.145368    42A      0.151013  
      43A      0.160561    44A      0.172739    45A      0.179229  
      46A      0.194560    47A      0.197533    48A      0.199848  
      49A      0.203954    50A      0.220398    51A      0.247545  
      52A      0.250095    53A      0.250440    54A      0.264328  
      55A      0.279579    56A      0.286686    57A      0.286967  
      58A      0.298057    59A      0.313372    60A      0.314318  
      61A      0.326984    62A      0.337261    63A      0.341045  
      64A      0.342659    65A      0.349016    66A      0.353120  
      67A      0.355358    68A      0.358915    69A      0.374031  
      70A      0.378232    71A      0.380964    72A      0.384469  
      73A      0.394852    74A      0.400454    75A      0.410723  
      76A      0.411060    77A      0.413541    78A      0.415616  
      79A      0.447239    80A      0.447286    81A      0.460751  
      82A      0.468916    83A      0.472109    84A      0.474342  
      85A      0.495028    86A      0.504598    87A      0.513214  
      88A      0.516284    89A      0.530440    90A      0.537109  
      91A      0.538438    92A      0.545761    93A      0.552114  
      94A      0.574318    95A      0.596809    96A      0.608866  
      97A      0.671561    98A      0.683706    99A      0.684528  
     100A      0.692174   101A      0.699933   102A      0.701045  
     103A      0.720936   104A      0.731844   105A      0.737425  
     106A      0.739906   107A      0.749979   108A      0.764230  
     109A      0.772197   110A      0.773609   111A      0.779516  
     112A      0.782440   113A      0.808001   114A      0.810516  
     115A      0.835263   116A      0.841297   117A      0.847375  
     118A      0.849348   119A      0.864886   120A      0.867650  
     121A      0.880672   122A      0.882557   123A      0.897436  
     124A      0.922764   125A      0.942534   126A      0.943001  
     127A      0.951829   128A      0.969058   129A      0.986466  
     130A      0.995145   131A      1.023065   132A      1.057029  
     133A      1.063918   134A      1.067361   135A      1.078191  
     136A      1.098812   137A      1.103420   138A      1.109524  
     139A      1.122078   140A      1.135170   141A      1.142948  
     142A      1.149591   143A      1.152490   144A      1.153845  
     145A      1.206253   146A      1.212409   147A      1.217491  
     148A      1.233311   149A      1.267094   150A      1.270360  
     151A      1.276808   152A      1.288707   153A      1.337310  
     154A      1.346871   155A      1.348575   156A      1.362070  
     157A      1.384256   158A      1.384920   159A      1.402796  
     160A      1.405566   161A      1.423505   162A      1.426429  
     163A      1.440094   164A      1.452601   165A      1.484046  
     166A      1.484763   167A      1.506685   168A      1.512205  
     169A      1.516382   170A      1.527200   171A      1.561920  
     172A      1.565650   173A      1.608950   174A      1.613201  
     175A      1.621561   176A      1.624354   177A      1.639284  
     178A      1.641437   179A      1.652018   180A      1.653430  
     181A      1.724763   182A      1.727163   183A      1.730476  
     184A      1.738811   185A      1.777373   186A      1.785049  
     187A      1.827677   188A      1.855700   189A      1.874442  
     190A      1.877458   191A      1.897140   192A      1.898623  
     193A      2.017645   194A      2.019287   195A      2.053131  
     196A      2.053907   197A      2.195910   198A      2.202624  
     199A      2.558978   200A      2.609659   201A      2.671448  
     202A      2.697427   203A      2.729545   204A      2.736714  
     205A      2.764252   206A      2.764661   207A      2.767393  
     208A      2.777089   209A      2.804210   210A      2.813024  
     211A      2.835683   212A      2.837833   213A      2.857094  
     214A      2.863456   215A      2.898447   216A      2.912155  
     217A      2.933298   218A      2.965088   219A      2.991840  
     220A      2.995732   221A      3.036094   222A      3.042670  
     223A      3.049102   224A      3.050848   225A      3.073899  
     226A      3.074097   227A      3.077116   228A      3.086046  
     229A      3.142019   230A      3.147183   231A      3.169190  
     232A      3.169660   233A      3.173409   234A      3.180938  
     235A      3.192985   236A      3.208145   237A      3.228284  
     238A      3.239468   239A      3.249152   240A      3.250819  
     241A      3.286505   242A      3.288441   243A      3.298034  
     244A      3.305116   245A      3.313241   246A      3.322255  
     247A      3.326401   248A      3.345973   249A      3.370252  
     250A      3.380323   251A      3.385405   252A      3.400319  
     253A      3.424929   254A      3.425270   255A      3.433006  
     256A      3.444485   257A      3.481687   258A      3.485437  
     259A      3.494828   260A      3.499874   261A      3.502913  
     262A      3.506768   263A      3.511971   264A      3.516519  
     265A      3.581061   266A      3.582166   267A      3.584069  
     268A      3.588695   269A      3.631732   270A      3.644339  
     271A      3.655282   272A      3.662577   273A      3.663300  
     274A      3.665563   275A      3.728804   276A      3.732209  
     277A      3.755560   278A      3.757280   279A      3.782275  
     280A      3.786973   281A      3.791835   282A      3.792395  
     283A      3.796765   284A      3.810445   285A      3.840889  
     286A      3.850653   287A      3.895444   288A      3.901230  
     289A      3.962130   290A      3.968144   291A      3.986771  
     292A      3.995090   293A      4.041707   294A      4.045189  
     295A      4.045451   296A      4.050042   297A      4.083400  
     298A      4.086351   299A      4.123592   300A      4.125375  
     301A      4.136147   302A      4.153992   303A      4.199105  
     304A      4.205481   305A      4.232239   306A      4.251207  
     307A      4.283327   308A      4.283848   309A      4.287732  
     310A      4.300983   311A      4.319755   312A      4.325980  
     313A      4.351989   314A      4.362612   315A      4.369472  
     316A      4.377625   317A      4.387165   318A      4.389564  
     319A      4.403392   320A      4.405789   321A      4.429798  
     322A      4.436645   323A      4.436972   324A      4.445046  
     325A      4.498860   326A      4.501652   327A      4.512693  
     328A      4.519834   329A      4.583167   330A      4.592953  
     331A      4.619521   332A      4.620589   333A      4.628737  
     334A      4.632044   335A      4.678135   336A      4.679239  
     337A      4.768452   338A      4.775881   339A      4.799726  
     340A      4.803766   341A      4.826957   342A      4.828235  
     343A      4.890439   344A      4.897104   345A      4.906668  
     346A      4.910856   347A      5.027685   348A      5.033985  
     349A      5.060135   350A      5.067610   351A      5.173115  
     352A      5.175126   353A      5.190605   354A      5.197660  
     355A      5.207738   356A      5.224984   357A      5.294373  
     358A      5.297334   359A      5.315978   360A      5.322404  
     361A      5.356621   362A      5.356632   363A      5.383546  
     364A      5.390650   365A      5.420217   366A      5.423495  
     367A      5.470744   368A      5.472331   369A      5.564879  
     370A      5.566622   371A      5.620269   372A      5.620770  
     373A      5.670139   374A      5.676720   375A      5.681379  
     376A      5.681781   377A      5.750971   378A      5.751030  
     379A      5.777932   380A      5.781730   381A      5.844627  
     382A      5.848285   383A      5.949018   384A      5.955624  
     385A      6.070106   386A      6.080866   387A      6.361719  
     388A      6.371030   389A      6.437860   390A      6.442837  
     391A      6.446827   392A      6.450108   393A      6.507468  
     394A      6.515928   395A      6.698527   396A      6.699180  
     397A     12.058332   398A     12.062664   399A     14.454391  
     400A     14.519247   401A     15.234357   402A     15.261997  

    Final Occupation by Irrep:
              A 
    DOCC [    24 ]

  @DF-RHF Final Energy:  -234.23381667042202

   => Energetics <=

    Nuclear Repulsion Energy =            200.5894001968840143
    One-Electron Energy =                -711.3183906291526455
    Two-Electron Energy =                 276.4951737618466154
    Total Energy =                       -234.2338166704220157

Computation Completed


Properties will be evaluated at   0.000000,   0.000000,   0.000000 [a0]

Properties computed using the SCF density matrix

  Nuclear Dipole Moment: [e a0]
     X:     0.0005      Y:    -0.0001      Z:     0.0001

  Electronic Dipole Moment: [e a0]
     X:    -0.0005      Y:     0.0001      Z:    -0.0002

  Dipole Moment: [e a0]
     X:     0.0000      Y:    -0.0000      Z:    -0.0001     Total:     0.0001

  Dipole Moment: [D]
     X:     0.0001      Y:    -0.0001      Z:    -0.0001     Total:     0.0002


*** tstop() called on r282 at Wed Sep 15 07:02:15 2021
Module time:
	user time   =      25.62 seconds =       0.43 minutes
	system time =       0.69 seconds =       0.01 minutes
	total time  =         26 seconds =       0.43 minutes
Total time:
	user time   =      25.62 seconds =       0.43 minutes
	system time =       0.69 seconds =       0.01 minutes
	total time  =         26 seconds =       0.43 minutes

  //>>>>>>>>>>>>>>>>>>>>>>>>>>>>>>>>>>>//
  //            Monomer A HF           //
  //<<<<<<<<<<<<<<<<<<<<<<<<<<<<<<<<<<<//


*** tstart() called on r282
*** at Wed Sep 15 07:02:15 2021

   => Loading Basis Set <=

    Name: JUN-CC-PVTZ
    Role: ORBITAL
    Keyword: BASIS
    atoms 1-3, 10-12 entry C          line   217 file /home/r08543048/miniconda3/share/psi4/basis/jun-cc-pvtz.gbs 
    atoms 4-9, 13-18 entry H          line    36 file /home/r08543048/miniconda3/share/psi4/basis/jun-cc-pvtz.gbs 


         ---------------------------------------------------------
                                   SCF
               by Justin Turney, Rob Parrish, Andy Simmonett
                          and Daniel G. A. Smith
                              RHF Reference
                        1 Threads,  20980 MiB Core
         ---------------------------------------------------------

  ==> Geometry <==

    Molecular point group: c1
    Full point group: C1

    Geometry (in Angstrom), charge = 0, multiplicity = 1:

       Center              X                  Y                   Z               Mass       
    ------------   -----------------  -----------------  -----------------  -----------------
         C           -1.736029479938     1.765361777352    -0.345221882111    12.000000000000
         C           -2.633286479938     0.915670777352     0.161819117889    12.000000000000
         C           -2.745272479938    -0.523413222648    -0.228334882111    12.000000000000
         H           -1.701511479938     2.799404777352    -0.031150882111     1.007825032230
         H           -1.016724479938     1.437435777352    -1.085101882111     1.007825032230
         H           -3.334524479938     1.279619777352     0.905995117889     1.007825032230
         H           -3.733034479938    -0.738741222648    -0.638978882111     1.007825032230
         H           -1.994686479938    -0.784331222648    -0.973027882111     1.007825032230
         H           -2.611646479938    -1.174794222648     0.637339117889     1.007825032230
      Gh(C)           1.736204900062    -1.765381042648     0.345750957889    12.000000000000
      Gh(C)           2.632858900062    -0.915598042648    -0.162202042111    12.000000000000
      Gh(C)           2.745477900062     0.523368957352     0.228179957889    12.000000000000
      Gh(H)           1.701208900062    -2.799319042648     0.031389957889     1.007825032230
      Gh(H)           1.017892900062    -1.437661042648     1.086685957889     1.007825032230
      Gh(H)           3.333086900062    -1.279390042648    -0.907409042111     1.007825032230
      Gh(H)           2.610730900062     1.174997957352    -0.637138042111     1.007825032230
      Gh(H)           1.995942900062     0.784167957352     0.973974957889     1.007825032230
      Gh(H)           3.733821900062     0.738500957352     0.637525957889     1.007825032230

  Running in c1 symmetry.

  Rotational constants: A =      0.14734  B =      0.03128  C =      0.02673 [cm^-1]
  Rotational constants: A =   4417.05224  B =    937.80933  C =    801.27256 [MHz]
  Nuclear repulsion =   70.871491972997745

  Charge       = 0
  Multiplicity = 1
  Electrons    = 24
  Nalpha       = 12
  Nbeta        = 12

  ==> Algorithm <==

  SCF Algorithm Type is DF.
  DIIS enabled.
  MOM disabled.
  Fractional occupation disabled.
  Guess Type is SAD.
  Energy threshold   = 1.00e-08
  Density threshold  = 1.00e-08
  Integral threshold = 0.00e+00

  ==> Primary Basis <==

  Basis Set: JUN-CC-PVTZ
    Blend: JUN-CC-PVTZ
    Number of shells: 150
    Number of basis function: 402
    Number of Cartesian functions: 450
    Spherical Harmonics?: true
    Max angular momentum: 3

   => Loading Basis Set <=

    Name: (JUN-CC-PVTZ AUX)
    Role: JKFIT
    Keyword: DF_BASIS_SCF
    atoms 1-3, 10-12 entry C          line   152 file /home/r08543048/miniconda3/share/psi4/basis/jun-cc-pvtz-jkfit.gbs 
    atoms 4-9, 13-18 entry H          line    70 file /home/r08543048/miniconda3/share/psi4/basis/jun-cc-pvtz-jkfit.gbs 

  ==> Pre-Iterations <==

   -------------------------------------------------------
    Irrep   Nso     Nmo     Nalpha   Nbeta   Ndocc  Nsocc
   -------------------------------------------------------
     A        402     402       0       0       0       0
   -------------------------------------------------------
    Total     402     402      12      12      12       0
   -------------------------------------------------------

  ==> Integral Setup <==

  ==> DiskDFJK: Density-Fitted J/K Matrices <==

    J tasked:                  Yes
    K tasked:                  Yes
    wK tasked:                  No
    OpenMP threads:              1
    Integrals threads:           1
    Memory [MiB]:            15735
    Algorithm:                Core
    Integral Cache:           LOAD
    Schwarz Cutoff:          1E-12
    Fitting Condition:       1E-10

   => Auxiliary Basis Set <=

  Basis Set: (JUN-CC-PVTZ AUX)
    Blend: JUN-CC-PVTZ-JKFIT
    Number of shells: 294
    Number of basis function: 930
    Number of Cartesian functions: 1116
    Spherical Harmonics?: true
    Max angular momentum: 4

  Minimum eigenvalue in the overlap matrix is 4.0097590688E-05.
  Using Symmetric Orthogonalization.

  SCF Guess: Superposition of Atomic Densities via on-the-fly atomic UHF.

  ==> Iterations <==

                           Total Energy        Delta E     RMS |[F,P]|

   @DF-RHF iter SAD:  -116.33324412397832   -1.16333e+02   0.00000e+00 
   @DF-RHF iter   1:  -116.98771292537228   -6.54469e-01   1.14073e-03 DIIS
   @DF-RHF iter   2:  -117.09537195611694   -1.07659e-01   4.89935e-04 DIIS
   @DF-RHF iter   3:  -117.11548447050973   -2.01125e-02   8.80083e-05 DIIS
   @DF-RHF iter   4:  -117.11677855708486   -1.29409e-03   2.64932e-05 DIIS
   @DF-RHF iter   5:  -117.11685242955019   -7.38725e-05   7.12324e-06 DIIS
   @DF-RHF iter   6:  -117.11685863191789   -6.20237e-06   1.28334e-06 DIIS
   @DF-RHF iter   7:  -117.11685893940596   -3.07488e-07   4.71049e-07 DIIS
   @DF-RHF iter   8:  -117.11685897997710   -4.05711e-08   1.63046e-07 DIIS
   @DF-RHF iter   9:  -117.11685898578592   -5.80883e-09   5.93266e-08 DIIS
   @DF-RHF iter  10:  -117.11685898672538   -9.39451e-10   1.34639e-08 DIIS
   @DF-RHF iter  11:  -117.11685898676930   -4.39258e-11   2.37943e-09 DIIS
  Energy and wave function converged.


  ==> Post-Iterations <==

    Orbital Energies [Eh]
    ---------------------

    Doubly Occupied:                                                      

       1A    -11.234394     2A    -11.220819     3A    -11.217537  
       4A     -1.064937     5A     -0.932798     6A     -0.758099  
       7A     -0.640072     8A     -0.582624     9A     -0.568360  
      10A     -0.523410    11A     -0.493158    12A     -0.357998  

    Virtual:                                                              

      13A      0.035030    14A      0.046762    15A      0.056052  
      16A      0.061675    17A      0.066245    18A      0.067317  
      19A      0.087847    20A      0.090870    21A      0.094307  
      22A      0.100626    23A      0.105640    24A      0.112781  
      25A      0.116886    26A      0.123046    27A      0.129333  
      28A      0.136135    29A      0.138523    30A      0.145609  
      31A      0.154330    32A      0.161119    33A      0.166526  
      34A      0.171617    35A      0.187868    36A      0.200185  
      37A      0.209423    38A      0.231435    39A      0.242929  
      40A      0.250975    41A      0.261091    42A      0.271001  
      43A      0.274086    44A      0.283355    45A      0.291148  
      46A      0.296489    47A      0.313784    48A      0.320748  
      49A      0.324761    50A      0.331856    51A      0.339428  
      52A      0.343023    53A      0.348497    54A      0.352984  
      55A      0.356569    56A      0.359272    57A      0.367998  
      58A      0.377716    59A      0.384564    60A      0.387989  
      61A      0.402039    62A      0.405684    63A      0.409476  
      64A      0.419273    65A      0.422252    66A      0.428095  
      67A      0.437004    68A      0.448939    69A      0.458130  
      70A      0.463641    71A      0.477625    72A      0.481902  
      73A      0.502292    74A      0.507401    75A      0.517717  
      76A      0.522806    77A      0.533736    78A      0.538970  
      79A      0.544315    80A      0.549616    81A      0.562647  
      82A      0.570932    83A      0.595280    84A      0.605007  
      85A      0.615943    86A      0.643281    87A      0.649328  
      88A      0.659869    89A      0.687978    90A      0.696555  
      91A      0.699400    92A      0.701280    93A      0.708571  
      94A      0.736407    95A      0.740111    96A      0.745315  
      97A      0.758379    98A      0.772467    99A      0.781139  
     100A      0.808036   101A      0.812836   102A      0.825625  
     103A      0.842188   104A      0.853510   105A      0.861412  
     106A      0.880235   107A      0.890812   108A      0.943338  
     109A      0.959008   110A      0.982408   111A      0.991901  
     112A      1.011000   113A      1.053361   114A      1.065547  
     115A      1.078190   116A      1.083286   117A      1.100033  
     118A      1.109120   119A      1.115388   120A      1.127501  
     121A      1.135068   122A      1.139792   123A      1.145894  
     124A      1.159939   125A      1.164538   126A      1.181742  
     127A      1.211118   128A      1.217014   129A      1.230425  
     130A      1.243146   131A      1.249277   132A      1.261515  
     133A      1.267782   134A      1.283148   135A      1.286191  
     136A      1.300509   137A      1.313551   138A      1.321137  
     139A      1.336767   140A      1.341115   141A      1.350811  
     142A      1.368176   143A      1.372888   144A      1.388175  
     145A      1.399093   146A      1.408642   147A      1.415951  
     148A      1.435633   149A      1.440498   150A      1.447393  
     151A      1.476023   152A      1.486964   153A      1.498018  
     154A      1.501621   155A      1.511991   156A      1.521787  
     157A      1.547365   158A      1.553374   159A      1.565408  
     160A      1.577889   161A      1.600487   162A      1.611026  
     163A      1.618145   164A      1.626178   165A      1.632487  
     166A      1.648080   167A      1.655823   168A      1.659616  
     169A      1.668387   170A      1.725960   171A      1.734542  
     172A      1.752796   173A      1.780449   174A      1.794047  
     175A      1.839100   176A      1.855467   177A      1.884068  
     178A      1.892907   179A      1.966054   180A      1.992903  
     181A      2.018265   182A      2.050819   183A      2.052330  
     184A      2.070045   185A      2.087818   186A      2.199537  
     187A      2.221231   188A      2.228739   189A      2.334374  
     190A      2.353018   191A      2.435842   192A      2.514221  
     193A      2.534541   194A      2.587335   195A      2.667604  
     196A      2.687956   197A      2.734318   198A      2.766653  
     199A      2.773354   200A      2.806769   201A      2.836959  
     202A      2.861764   203A      2.890492   204A      2.901710  
     205A      2.945737   206A      2.993845   207A      3.038947  
     208A      3.051096   209A      3.072359   210A      3.080735  
     211A      3.147111   212A      3.165124   213A      3.177211  
     214A      3.196132   215A      3.230542   216A      3.248319  
     217A      3.285836   218A      3.303947   219A      3.320238  
     220A      3.329068   221A      3.373142   222A      3.381467  
     223A      3.403724   224A      3.422044   225A      3.431497  
     226A      3.435135   227A      3.483997   228A      3.489207  
     229A      3.496244   230A      3.503322   231A      3.517119  
     232A      3.536319   233A      3.545304   234A      3.577544  
     235A      3.582128   236A      3.585994   237A      3.621058  
     238A      3.632924   239A      3.643553   240A      3.656720  
     241A      3.661387   242A      3.681611   243A      3.690227  
     244A      3.698365   245A      3.728868   246A      3.755262  
     247A      3.756292   248A      3.779434   249A      3.785025  
     250A      3.789844   251A      3.800024   252A      3.828071  
     253A      3.843052   254A      3.859080   255A      3.878434  
     256A      3.897102   257A      3.921622   258A      3.960788  
     259A      3.973329   260A      3.990604   261A      3.993181  
     262A      4.034285   263A      4.040972   264A      4.045807  
     265A      4.064329   266A      4.071246   267A      4.082162  
     268A      4.094490   269A      4.119937   270A      4.135556  
     271A      4.142190   272A      4.159812   273A      4.174974  
     274A      4.188401   275A      4.202183   276A      4.241290  
     277A      4.254583   278A      4.263777   279A      4.282615  
     280A      4.290436   281A      4.304512   282A      4.316996  
     283A      4.344289   284A      4.362385   285A      4.366346  
     286A      4.379851   287A      4.384773   288A      4.403360  
     289A      4.419928   290A      4.433385   291A      4.436279  
     292A      4.445365   293A      4.452498   294A      4.499255  
     295A      4.506438   296A      4.509071   297A      4.515671  
     298A      4.529202   299A      4.563455   300A      4.580796  
     301A      4.594715   302A      4.604224   303A      4.618295  
     304A      4.628171   305A      4.649609   306A      4.656236  
     307A      4.677215   308A      4.708570   309A      4.714190  
     310A      4.749817   311A      4.755473   312A      4.767654  
     313A      4.774276   314A      4.788228   315A      4.797800  
     316A      4.803301   317A      4.823699   318A      4.826602  
     319A      4.832247   320A      4.879312   321A      4.892304  
     322A      4.893811   323A      4.903104   324A      4.913325  
     325A      4.946718   326A      4.959968   327A      4.990787  
     328A      5.023719   329A      5.030899   330A      5.031954  
     331A      5.060658   332A      5.064416   333A      5.140145  
     334A      5.164501   335A      5.173363   336A      5.193772  
     337A      5.213607   338A      5.221658   339A      5.294971  
     340A      5.304147   341A      5.319491   342A      5.355636  
     343A      5.385918   344A      5.396860   345A      5.420769  
     346A      5.462047   347A      5.470991   348A      5.501130  
     349A      5.528941   350A      5.554558   351A      5.564751  
     352A      5.619184   353A      5.671253   354A      5.674535  
     355A      5.679754   356A      5.749325   357A      5.777881  
     358A      5.788967   359A      5.824036   360A      5.845354  
     361A      5.882600   362A      5.951166   363A      5.987681  
     364A      6.030228   365A      6.073946   366A      6.126433  
     367A      6.134759   368A      6.191229   369A      6.238087  
     370A      6.304134   371A      6.363485   372A      6.369981  
     373A      6.379039   374A      6.439258   375A      6.447347  
     376A      6.510089   377A      6.602128   378A      6.697986  
     379A      6.712017   380A      6.731863   381A      6.836468  
     382A      7.080636   383A      7.375523   384A      7.415046  
     385A      7.526838   386A      7.595395   387A      7.641162  
     388A      7.808399   389A      7.909035   390A      7.977539  
     391A      8.092090   392A      8.284006   393A      8.710782  
     394A      9.344654   395A      9.821027   396A     10.187768  
     397A     12.059938   398A     14.486515   399A     15.246530  
     400A     40.434163   401A     45.645572   402A     47.004103  

    Final Occupation by Irrep:
              A 
    DOCC [    12 ]

  @DF-RHF Final Energy:  -117.11685898676930

   => Energetics <=

    Nuclear Repulsion Energy =             70.8714919729977453
    One-Electron Energy =                -296.7882900442028813
    Two-Electron Energy =                 108.7999390844358345
    Total Energy =                       -117.1168589867693015

Computation Completed


Properties will be evaluated at   0.000000,   0.000000,   0.000000 [a0]

Properties computed using the SCF density matrix

  Nuclear Dipole Moment: [e a0]
     X:  -107.8649      Y:    29.7902      Z:    -6.9076

  Electronic Dipole Moment: [e a0]
     X:   107.7823      Y:   -29.9325      Z:     6.9331

  Dipole Moment: [e a0]
     X:    -0.0826      Y:    -0.1423      Z:     0.0255     Total:     0.1665

  Dipole Moment: [D]
     X:    -0.2100      Y:    -0.3616      Z:     0.0647     Total:     0.4231


*** tstop() called on r282 at Wed Sep 15 07:02:29 2021
Module time:
	user time   =      13.33 seconds =       0.22 minutes
	system time =       0.35 seconds =       0.01 minutes
	total time  =         14 seconds =       0.23 minutes
Total time:
	user time   =      38.95 seconds =       0.65 minutes
	system time =       1.04 seconds =       0.02 minutes
	total time  =         40 seconds =       0.67 minutes

  //>>>>>>>>>>>>>>>>>>>>>>>>>>>>>>>>>>>//
  //            Monomer B HF           //
  //<<<<<<<<<<<<<<<<<<<<<<<<<<<<<<<<<<<//


*** tstart() called on r282
*** at Wed Sep 15 07:02:29 2021

   => Loading Basis Set <=

    Name: JUN-CC-PVTZ
    Role: ORBITAL
    Keyword: BASIS
    atoms 1-3, 10-12 entry C          line   217 file /home/r08543048/miniconda3/share/psi4/basis/jun-cc-pvtz.gbs 
    atoms 4-9, 13-18 entry H          line    36 file /home/r08543048/miniconda3/share/psi4/basis/jun-cc-pvtz.gbs 


         ---------------------------------------------------------
                                   SCF
               by Justin Turney, Rob Parrish, Andy Simmonett
                          and Daniel G. A. Smith
                              RHF Reference
                        1 Threads,  20980 MiB Core
         ---------------------------------------------------------

  ==> Geometry <==

    Molecular point group: c1
    Full point group: C1

    Geometry (in Angstrom), charge = 0, multiplicity = 1:

       Center              X                  Y                   Z               Mass       
    ------------   -----------------  -----------------  -----------------  -----------------
      Gh(C)          -1.736029479938     1.765361777352    -0.345221882111    12.000000000000
      Gh(C)          -2.633286479938     0.915670777352     0.161819117889    12.000000000000
      Gh(C)          -2.745272479938    -0.523413222648    -0.228334882111    12.000000000000
      Gh(H)          -1.701511479938     2.799404777352    -0.031150882111     1.007825032230
      Gh(H)          -1.016724479938     1.437435777352    -1.085101882111     1.007825032230
      Gh(H)          -3.334524479938     1.279619777352     0.905995117889     1.007825032230
      Gh(H)          -3.733034479938    -0.738741222648    -0.638978882111     1.007825032230
      Gh(H)          -1.994686479938    -0.784331222648    -0.973027882111     1.007825032230
      Gh(H)          -2.611646479938    -1.174794222648     0.637339117889     1.007825032230
         C            1.736204900062    -1.765381042648     0.345750957889    12.000000000000
         C            2.632858900062    -0.915598042648    -0.162202042111    12.000000000000
         C            2.745477900062     0.523368957352     0.228179957889    12.000000000000
         H            1.701208900062    -2.799319042648     0.031389957889     1.007825032230
         H            1.017892900062    -1.437661042648     1.086685957889     1.007825032230
         H            3.333086900062    -1.279390042648    -0.907409042111     1.007825032230
         H            2.610730900062     1.174997957352    -0.637138042111     1.007825032230
         H            1.995942900062     0.784167957352     0.973974957889     1.007825032230
         H            3.733821900062     0.738500957352     0.637525957889     1.007825032230

  Running in c1 symmetry.

  Rotational constants: A =      0.14734  B =      0.03128  C =      0.02673 [cm^-1]
  Rotational constants: A =   4417.05224  B =    937.80933  C =    801.27256 [MHz]
  Nuclear repulsion =   70.871383723929796

  Charge       = 0
  Multiplicity = 1
  Electrons    = 24
  Nalpha       = 12
  Nbeta        = 12

  ==> Algorithm <==

  SCF Algorithm Type is DF.
  DIIS enabled.
  MOM disabled.
  Fractional occupation disabled.
  Guess Type is SAD.
  Energy threshold   = 1.00e-08
  Density threshold  = 1.00e-08
  Integral threshold = 0.00e+00

  ==> Primary Basis <==

  Basis Set: JUN-CC-PVTZ
    Blend: JUN-CC-PVTZ
    Number of shells: 150
    Number of basis function: 402
    Number of Cartesian functions: 450
    Spherical Harmonics?: true
    Max angular momentum: 3

   => Loading Basis Set <=

    Name: (JUN-CC-PVTZ AUX)
    Role: JKFIT
    Keyword: DF_BASIS_SCF
    atoms 1-3, 10-12 entry C          line   152 file /home/r08543048/miniconda3/share/psi4/basis/jun-cc-pvtz-jkfit.gbs 
    atoms 4-9, 13-18 entry H          line    70 file /home/r08543048/miniconda3/share/psi4/basis/jun-cc-pvtz-jkfit.gbs 

  ==> Pre-Iterations <==

   -------------------------------------------------------
    Irrep   Nso     Nmo     Nalpha   Nbeta   Ndocc  Nsocc
   -------------------------------------------------------
     A        402     402       0       0       0       0
   -------------------------------------------------------
    Total     402     402      12      12      12       0
   -------------------------------------------------------

  ==> Integral Setup <==

  ==> DiskDFJK: Density-Fitted J/K Matrices <==

    J tasked:                  Yes
    K tasked:                  Yes
    wK tasked:                  No
    OpenMP threads:              1
    Integrals threads:           1
    Memory [MiB]:            15735
    Algorithm:                Core
    Integral Cache:           LOAD
    Schwarz Cutoff:          1E-12
    Fitting Condition:       1E-10

   => Auxiliary Basis Set <=

  Basis Set: (JUN-CC-PVTZ AUX)
    Blend: JUN-CC-PVTZ-JKFIT
    Number of shells: 294
    Number of basis function: 930
    Number of Cartesian functions: 1116
    Spherical Harmonics?: true
    Max angular momentum: 4

  Minimum eigenvalue in the overlap matrix is 4.0097590688E-05.
  Using Symmetric Orthogonalization.

  SCF Guess: Superposition of Atomic Densities via on-the-fly atomic UHF.

  ==> Iterations <==

                           Total Energy        Delta E     RMS |[F,P]|

   @DF-RHF iter SAD:  -116.33323979078735   -1.16333e+02   0.00000e+00 
   @DF-RHF iter   1:  -116.98771293623446   -6.54473e-01   1.14073e-03 DIIS
   @DF-RHF iter   2:  -117.09537210730483   -1.07659e-01   4.89935e-04 DIIS
   @DF-RHF iter   3:  -117.11548466100851   -2.01126e-02   8.80088e-05 DIIS
   @DF-RHF iter   4:  -117.11677875903585   -1.29410e-03   2.64939e-05 DIIS
   @DF-RHF iter   5:  -117.11685263540497   -7.38764e-05   7.12325e-06 DIIS
   @DF-RHF iter   6:  -117.11685883786778   -6.20246e-06   1.28336e-06 DIIS
   @DF-RHF iter   7:  -117.11685914536307   -3.07495e-07   4.71065e-07 DIIS
   @DF-RHF iter   8:  -117.11685918593690   -4.05738e-08   1.63052e-07 DIIS
   @DF-RHF iter   9:  -117.11685919174653   -5.80962e-09   5.93277e-08 DIIS
   @DF-RHF iter  10:  -117.11685919268729   -9.40759e-10   1.34639e-08 DIIS
   @DF-RHF iter  11:  -117.11685919273020   -4.29168e-11   2.37938e-09 DIIS
  Energy and wave function converged.


  ==> Post-Iterations <==

    Orbital Energies [Eh]
    ---------------------

    Doubly Occupied:                                                      

       1A    -11.234394     2A    -11.220820     3A    -11.217537  
       4A     -1.064937     5A     -0.932800     6A     -0.758098  
       7A     -0.640071     8A     -0.582627     9A     -0.568360  
      10A     -0.523410    11A     -0.493157    12A     -0.357998  

    Virtual:                                                              

      13A      0.035035    14A      0.046764    15A      0.056051  
      16A      0.061670    17A      0.066247    18A      0.067318  
      19A      0.087834    20A      0.090873    21A      0.094299  
      22A      0.100640    23A      0.105639    24A      0.112783  
      25A      0.116885    26A      0.123043    27A      0.129343  
      28A      0.136115    29A      0.138528    30A      0.145613  
      31A      0.154319    32A      0.161137    33A      0.166559  
      34A      0.171629    35A      0.187858    36A      0.200186  
      37A      0.209417    38A      0.231407    39A      0.242950  
      40A      0.250956    41A      0.261127    42A      0.270980  
      43A      0.274066    44A      0.283372    45A      0.291146  
      46A      0.296483    47A      0.313806    48A      0.320757  
      49A      0.324780    50A      0.331856    51A      0.339426  
      52A      0.343036    53A      0.348502    54A      0.352983  
      55A      0.356569    56A      0.359270    57A      0.367999  
      58A      0.377717    59A      0.384536    60A      0.388014  
      61A      0.402028    62A      0.405679    63A      0.409477  
      64A      0.419239    65A      0.422240    66A      0.428104  
      67A      0.437049    68A      0.448943    69A      0.458109  
      70A      0.463588    71A      0.477658    72A      0.481907  
      73A      0.502296    74A      0.507439    75A      0.517730  
      76A      0.522811    77A      0.533751    78A      0.538961  
      79A      0.544295    80A      0.549601    81A      0.562653  
      82A      0.570950    83A      0.595284    84A      0.605008  
      85A      0.615942    86A      0.643276    87A      0.649340  
      88A      0.659876    89A      0.687971    90A      0.696559  
      91A      0.699386    92A      0.701292    93A      0.708570  
      94A      0.736383    95A      0.740115    96A      0.745340  
      97A      0.758398    98A      0.772432    99A      0.781155  
     100A      0.808014   101A      0.812835   102A      0.825613  
     103A      0.842182   104A      0.853550   105A      0.861416  
     106A      0.880274   107A      0.890823   108A      0.943329  
     109A      0.959012   110A      0.982431   111A      0.991918  
     112A      1.011034   113A      1.053410   114A      1.065531  
     115A      1.078177   116A      1.083297   117A      1.100017  
     118A      1.109128   119A      1.115450   120A      1.127503  
     121A      1.135054   122A      1.139750   123A      1.145900  
     124A      1.159990   125A      1.164522   126A      1.181714  
     127A      1.211117   128A      1.216967   129A      1.230354  
     130A      1.243187   131A      1.249290   132A      1.261483  
     133A      1.267756   134A      1.283239   135A      1.286193  
     136A      1.300453   137A      1.313558   138A      1.321137  
     139A      1.336757   140A      1.341134   141A      1.350849  
     142A      1.368165   143A      1.372916   144A      1.388115  
     145A      1.399106   146A      1.408563   147A      1.415934  
     148A      1.435643   149A      1.440507   150A      1.447422  
     151A      1.476016   152A      1.487003   153A      1.498047  
     154A      1.501720   155A      1.512039   156A      1.521795  
     157A      1.547377   158A      1.553314   159A      1.565403  
     160A      1.577863   161A      1.600489   162A      1.611026  
     163A      1.618132   164A      1.626151   165A      1.632504  
     166A      1.648100   167A      1.655803   168A      1.659620  
     169A      1.668327   170A      1.725971   171A      1.734552  
     172A      1.752813   173A      1.780437   174A      1.794055  
     175A      1.839123   176A      1.855482   177A      1.884055  
     178A      1.892904   179A      1.966048   180A      1.992905  
     181A      2.018282   182A      2.050814   183A      2.052314  
     184A      2.070020   185A      2.087817   186A      2.199547  
     187A      2.221234   188A      2.228743   189A      2.334389  
     190A      2.353011   191A      2.435869   192A      2.514238  
     193A      2.534555   194A      2.587367   195A      2.667591  
     196A      2.687973   197A      2.734356   198A      2.766663  
     199A      2.773364   200A      2.806798   201A      2.836974  
     202A      2.861782   203A      2.890492   204A      2.901712  
     205A      2.945766   206A      2.993866   207A      3.038945  
     208A      3.051095   209A      3.072372   210A      3.080739  
     211A      3.147089   212A      3.165126   213A      3.177219  
     214A      3.196182   215A      3.230516   216A      3.248327  
     217A      3.285839   218A      3.303935   219A      3.320233  
     220A      3.329079   221A      3.373129   222A      3.381455  
     223A      3.403703   224A      3.422048   225A      3.431484  
     226A      3.435131   227A      3.483997   228A      3.489229  
     229A      3.496250   230A      3.503319   231A      3.517100  
     232A      3.536332   233A      3.545298   234A      3.577542  
     235A      3.582132   236A      3.585998   237A      3.621063  
     238A      3.632931   239A      3.643515   240A      3.656712  
     241A      3.661380   242A      3.681608   243A      3.690202  
     244A      3.698375   245A      3.728874   246A      3.755261  
     247A      3.756289   248A      3.779436   249A      3.785046  
     250A      3.789828   251A      3.800012   252A      3.828076  
     253A      3.843048   254A      3.859093   255A      3.878433  
     256A      3.897098   257A      3.921635   258A      3.960771  
     259A      3.973327   260A      3.990602   261A      3.993199  
     262A      4.034290   263A      4.040973   264A      4.045818  
     265A      4.064337   266A      4.071246   267A      4.082172  
     268A      4.094491   269A      4.119938   270A      4.135584  
     271A      4.142210   272A      4.159806   273A      4.174964  
     274A      4.188409   275A      4.202168   276A      4.241305  
     277A      4.254590   278A      4.263791   279A      4.282624  
     280A      4.290472   281A      4.304513   282A      4.317036  
     283A      4.344296   284A      4.362353   285A      4.366365  
     286A      4.379868   287A      4.384772   288A      4.403356  
     289A      4.419958   290A      4.433397   291A      4.436254  
     292A      4.445338   293A      4.452493   294A      4.499254  
     295A      4.506455   296A      4.509110   297A      4.515671  
     298A      4.529163   299A      4.563456   300A      4.580804  
     301A      4.594743   302A      4.604230   303A      4.618303  
     304A      4.628173   305A      4.649610   306A      4.656281  
     307A      4.677209   308A      4.708580   309A      4.714192  
     310A      4.749794   311A      4.755448   312A      4.767628  
     313A      4.774235   314A      4.788235   315A      4.797793  
     316A      4.803301   317A      4.823715   318A      4.826616  
     319A      4.832243   320A      4.879321   321A      4.892317  
     322A      4.893793   323A      4.903092   324A      4.913325  
     325A      4.946730   326A      4.959962   327A      4.990801  
     328A      5.023729   329A      5.030875   330A      5.031967  
     331A      5.060658   332A      5.064435   333A      5.140144  
     334A      5.164488   335A      5.173355   336A      5.193780  
     337A      5.213602   338A      5.221680   339A      5.294971  
     340A      5.304168   341A      5.319488   342A      5.355629  
     343A      5.385910   344A      5.396865   345A      5.420768  
     346A      5.462055   347A      5.470991   348A      5.501119  
     349A      5.528950   350A      5.554562   351A      5.564737  
     352A      5.619176   353A      5.671270   354A      5.674533  
     355A      5.679757   356A      5.749325   357A      5.777884  
     358A      5.788978   359A      5.824028   360A      5.845346  
     361A      5.882614   362A      5.951144   363A      5.987675  
     364A      6.030240   365A      6.073967   366A      6.126440  
     367A      6.134765   368A      6.191224   369A      6.238121  
     370A      6.304138   371A      6.363477   372A      6.369998  
     373A      6.379064   374A      6.439252   375A      6.447349  
     376A      6.510078   377A      6.602135   378A      6.697999  
     379A      6.712034   380A      6.731855   381A      6.836484  
     382A      7.080653   383A      7.375514   384A      7.415040  
     385A      7.526809   386A      7.595397   387A      7.641164  
     388A      7.808407   389A      7.909064   390A      7.977537  
     391A      8.092127   392A      8.284007   393A      8.710784  
     394A      9.344658   395A      9.821019   396A     10.187782  
     397A     12.059922   398A     14.486520   399A     15.246512  
     400A     40.434209   401A     45.645553   402A     47.004106  

    Final Occupation by Irrep:
              A 
    DOCC [    12 ]

  @DF-RHF Final Energy:  -117.11685919273020

   => Energetics <=

    Nuclear Repulsion Energy =             70.8713837239297959
    One-Electron Energy =                -296.7880699056794356
    Two-Electron Energy =                 108.7998269890194365
    Total Energy =                       -117.1168591927302032

Computation Completed


Properties will be evaluated at   0.000000,   0.000000,   0.000000 [a0]

Properties computed using the SCF density matrix

  Nuclear Dipole Moment: [e a0]
     X:   107.8654      Y:   -29.7903      Z:     6.9077

  Electronic Dipole Moment: [e a0]
     X:  -107.7828      Y:    29.9326      Z:    -6.9332

  Dipole Moment: [e a0]
     X:     0.0826      Y:     0.1423      Z:    -0.0255     Total:     0.1665

  Dipole Moment: [D]
     X:     0.2100      Y:     0.3616      Z:    -0.0649     Total:     0.4232


*** tstop() called on r282 at Wed Sep 15 07:02:43 2021
Module time:
	user time   =      13.37 seconds =       0.22 minutes
	system time =       0.31 seconds =       0.01 minutes
	total time  =         14 seconds =       0.23 minutes
Total time:
	user time   =      52.32 seconds =       0.87 minutes
	system time =       1.35 seconds =       0.02 minutes
	total time  =         54 seconds =       0.90 minutes
  Constructing Basis Sets for SAPT...

   => Loading Basis Set <=

    Name: (JUN-CC-PVTZ AUX)
    Role: RIFIT
    Keyword: DF_BASIS_SAPT
    atoms 1-3, 10-12 entry C          line   132 file /home/r08543048/miniconda3/share/psi4/basis/jun-cc-pvtz-ri.gbs 
    atoms 4-9, 13-18 entry H          line    30 file /home/r08543048/miniconda3/share/psi4/basis/jun-cc-pvtz-ri.gbs 


  //>>>>>>>>>>>>>>>>>>>>>>>>>>>>>>>>>>>//
  //               SAPT0               //
  //<<<<<<<<<<<<<<<<<<<<<<<<<<<<<<<<<<<//


*** tstart() called on r282
*** at Wed Sep 15 07:02:43 2021

        SAPT0  
    Ed Hohenstein
     6 June 2009

      Orbital Information
  --------------------------
    NSO        =       402
    NMO        =       402
    NRI        =       942
    NOCC A     =        12
    NOCC B     =        12
    FOCC A     =         0
    FOCC B     =         0
    NVIR A     =       390
    NVIR B     =       390

    Elst10,r            =    -0.000247542409 [Eh]
    Exch10              =     0.000180866078 [Eh]
    Exch10 (S^2)        =     0.000180846769 [Eh]

    Iter     Energy [mEh]          dE [mEh]         Residual      Time [s]
       1      -0.02198186       0.021981858       0.654857201             1
       2      -0.02579350       0.003811638       0.232903591             1
       3      -0.02632299       0.000529495       0.051059999             1
       4      -0.02624392      -0.000079069       0.021843613             2
       5      -0.02620697      -0.000036952       0.004659155             2
       6      -0.02621127       0.000004305       0.002241381             3
       7      -0.02621456       0.000003284       0.000573981             3
       8      -0.02621345      -0.000001107       0.000119241             4
       9      -0.02621354       0.000000086       0.000028675             4
      10      -0.02621355       0.000000013       0.000006427             5
      11      -0.02621354      -0.000000005       0.000001694             5
      12      -0.02621354      -0.000000000       0.000000445             6

    CHF Iterations converged


    Iter     Energy [mEh]          dE [mEh]         Residual      Time [s]
       1      -0.02198414       0.021984145       0.654522991             0
       2      -0.02579924       0.003815098       0.232767810             1
       3      -0.02632760       0.000528354       0.051094760             1
       4      -0.02624869      -0.000078907       0.021849009             1
       5      -0.02621167      -0.000037017       0.004656526             2
       6      -0.02621597       0.000004298       0.002235086             2
       7      -0.02621925       0.000003276       0.000573105             3
       8      -0.02621814      -0.000001105       0.000119260             3
       9      -0.02621823       0.000000086       0.000028721             4
      10      -0.02621824       0.000000013       0.000006434             4
      11      -0.02621824      -0.000000005       0.000001681             5
      12      -0.02621823      -0.000000000       0.000000436             5

    CHF Iterations converged

    Ind20,r (A<-B)      =    -0.000026213545 [Eh]
    Ind20,r (B<-A)      =    -0.000026218235 [Eh]
    Ind20,r             =    -0.000052431780 [Eh]
    Exch-Ind20,r (A<-B) =     0.000016434775 [Eh]
    Exch-Ind20,r (B<-A) =     0.000016460477 [Eh]
    Exch-Ind20,r        =     0.000032895252 [Eh]
    Disp20              =    -0.001212024359 [Eh]
    Disp20 (SS)         =    -0.000606012179 [Eh]
    Disp20 (OS)         =    -0.000606012179 [Eh]
    Exch-Disp20         =     0.000030152910 [Eh]
    Exch-Disp20 (SS)    =     0.000020882482 [Eh]
    Exch-Disp20 (OS)    =     0.000009270428 [Eh]

    SAPT Results 
  --------------------------------------------------------------------------------------------------------
    Electrostatics                 -0.24754241 [mEh]      -0.15533521 [kcal/mol]      -0.64992251 [kJ/mol]
      Elst10,r                     -0.24754241 [mEh]      -0.15533521 [kcal/mol]      -0.64992251 [kJ/mol]

    Exchange                        0.18086608 [mEh]       0.11349518 [kcal/mol]       0.47486382 [kJ/mol]
      Exch10                        0.18086608 [mEh]       0.11349518 [kcal/mol]       0.47486382 [kJ/mol]
      Exch10(S^2)                   0.18084677 [mEh]       0.11348306 [kcal/mol]       0.47481313 [kJ/mol]

    Induction                      -0.03181459 [mEh]      -0.01996396 [kcal/mol]      -0.08352920 [kJ/mol]
      Ind20,r                      -0.05243178 [mEh]      -0.03290144 [kcal/mol]      -0.13765962 [kJ/mol]
      Exch-Ind20,r                  0.03289525 [mEh]       0.02064208 [kcal/mol]       0.08636647 [kJ/mol]
      delta HF,r (2)               -0.01227806 [mEh]      -0.00770460 [kcal/mol]      -0.03223605 [kJ/mol]

    Dispersion                     -1.18187145 [mEh]      -0.74163553 [kcal/mol]      -3.10300306 [kJ/mol]
      Disp20                       -1.21202436 [mEh]      -0.76055677 [kcal/mol]      -3.18216952 [kJ/mol]
      Exch-Disp20                   0.03015291 [mEh]       0.01892124 [kcal/mol]       0.07916645 [kJ/mol]
      Disp20 (SS)                  -0.60601218 [mEh]      -0.38027838 [kcal/mol]      -1.59108476 [kJ/mol]
      Disp20 (OS)                  -0.60601218 [mEh]      -0.38027838 [kcal/mol]      -1.59108476 [kJ/mol]
      Exch-Disp20 (SS)              0.02088248 [mEh]       0.01310396 [kcal/mol]       0.05482695 [kJ/mol]
      Exch-Disp20 (OS)              0.00927043 [mEh]       0.00581728 [kcal/mol]       0.02433950 [kJ/mol]

  Total HF                         -0.09849092 [mEh]      -0.06180399 [kcal/mol]      -0.25858788 [kJ/mol]
  Total SAPT0                      -1.28036237 [mEh]      -0.80343952 [kcal/mol]      -3.36159094 [kJ/mol]

  Special recipe for scaled SAPT0 (see Manual):
    Electrostatics sSAPT0          -0.24754241 [mEh]      -0.15533521 [kcal/mol]      -0.64992251 [kJ/mol]
    Exchange sSAPT0                 0.18086608 [mEh]       0.11349518 [kcal/mol]       0.47486382 [kJ/mol]
    Induction sSAPT0               -0.03180405 [mEh]      -0.01995734 [kcal/mol]      -0.08350153 [kJ/mol]
    Dispersion sSAPT0              -1.18186179 [mEh]      -0.74162947 [kcal/mol]      -3.10297770 [kJ/mol]
  Total sSAPT0                     -1.28034217 [mEh]      -0.80342684 [kcal/mol]      -3.36153792 [kJ/mol]
  --------------------------------------------------------------------------------------------------------

*** tstop() called on r282 at Wed Sep 15 07:03:32 2021
Module time:
	user time   =      41.47 seconds =       0.69 minutes
	system time =       8.14 seconds =       0.14 minutes
	total time  =         49 seconds =       0.82 minutes
Total time:
	user time   =      93.91 seconds =       1.57 minutes
	system time =       9.49 seconds =       0.16 minutes
	total time  =        103 seconds =       1.72 minutes

    Psi4 stopped on: Wednesday, 15 September 2021 07:03AM
    Psi4 wall time for execution: 0:01:43.56

*** Psi4 exiting successfully. Buy a developer a beer!
