
    -----------------------------------------------------------------------
          Psi4: An Open-Source Ab Initio Electronic Structure Package
                               Psi4 1.3.2 release

                         Git: Rev {HEAD} ecbda83 


    R. M. Parrish, L. A. Burns, D. G. A. Smith, A. C. Simmonett,
    A. E. DePrince III, E. G. Hohenstein, U. Bozkaya, A. Yu. Sokolov,
    R. Di Remigio, R. M. Richard, J. F. Gonthier, A. M. James,
    H. R. McAlexander, A. Kumar, M. Saitow, X. Wang, B. P. Pritchard,
    P. Verma, H. F. Schaefer III, K. Patkowski, R. A. King, E. F. Valeev,
    F. A. Evangelista, J. M. Turney, T. D. Crawford, and C. D. Sherrill,
    J. Chem. Theory Comput. 13(7) pp 3185--3197 (2017).
    (doi: 10.1021/acs.jctc.7b00174)


                         Additional Contributions by
    P. Kraus, H. Kruse, M. H. Lechner, M. C. Schieber, R. A. Shaw,
    A. Alenaizan, R. Galvelis, Z. L. Glick, S. Lehtola, and J. P. Misiewicz

    -----------------------------------------------------------------------


    Psi4 started on: Wednesday, 15 September 2021 07:12AM

    Process ID: 4565
    Host:       r282
    PSIDATADIR: /home/r08543048/miniconda3/share/psi4
    Memory:     500.0 MiB
    Threads:    1
    
  ==> Input File <==

--------------------------------------------------------------------------
# Any line starting with the # character is a comment line
#! Sample  computation

memory 22 gb

molecule Dimer {

0 1
 C                 -2.20749297   -1.23362495    0.27379190
 C                 -1.89651497   -0.05066695   -0.63477110
 C                 -1.99746997    1.27856805    0.10290890
 H                 -1.51781897   -1.26494395    1.11875790
 H                 -3.21867997   -1.15607095    0.67592990
 H                 -2.12880297   -2.18169895   -0.25777510
 H                 -2.58378597   -0.05105495   -1.48337010
 H                 -0.89299397   -0.16347895   -1.05015310
 H                 -1.77108897    2.12089405   -0.55056710
 H                 -3.00271697    1.42249405    0.50177790
 H                 -1.30065797    1.30968805    0.94199090
--
0 1
 C                  2.20719397   -1.23377805   -0.27379590
 C                  1.89665797   -0.05073705    0.63481110
 C                  1.99764497    1.27845295   -0.10294190
 H                  1.51727997   -1.26504805   -1.11857390
 H                  3.21827997   -1.15638705   -0.67621790
 H                  2.12849797   -2.18181505    0.25783510
 H                  2.58414597   -0.05120605    1.48323410
 H                  0.89322097   -0.16336105    1.05045610
 H                  1.77162997    2.12083695    0.55058610
 H                  3.00279697    1.42218195   -0.50212190
 H                  1.30058097    1.30967795   -0.94180090

units angstrom
no_reorient
symmetry c1
}

set globals{
  basis jun-cc-pvtz
}

energy('sapt0')
--------------------------------------------------------------------------

  Memory set to  20.489 GiB by Python driver.

  //>>>>>>>>>>>>>>>>>>>>>>>>>>>>>>>>>>>//
  //              Dimer HF             //
  //<<<<<<<<<<<<<<<<<<<<<<<<<<<<<<<<<<<//


*** tstart() called on r282
*** at Wed Sep 15 07:12:45 2021

   => Loading Basis Set <=

    Name: JUN-CC-PVTZ
    Role: ORBITAL
    Keyword: BASIS
    atoms 1-3, 12-14  entry C          line   217 file /home/r08543048/miniconda3/share/psi4/basis/jun-cc-pvtz.gbs 
    atoms 4-11, 15-22 entry H          line    36 file /home/r08543048/miniconda3/share/psi4/basis/jun-cc-pvtz.gbs 


         ---------------------------------------------------------
                                   SCF
               by Justin Turney, Rob Parrish, Andy Simmonett
                          and Daniel G. A. Smith
                              RHF Reference
                        1 Threads,  20980 MiB Core
         ---------------------------------------------------------

  ==> Geometry <==

    Molecular point group: c1
    Full point group: C1

    Geometry (in Angstrom), charge = 0, multiplicity = 1:

       Center              X                  Y                   Z               Mass       
    ------------   -----------------  -----------------  -----------------  -----------------
         C           -2.207494264928    -1.232828688463     0.273791628726    12.000000000000
         C           -1.896516264928    -0.049870688463    -0.634771371274    12.000000000000
         C           -1.997471264928     1.279364311537     0.102908628726    12.000000000000
         H           -1.517820264928    -1.264147688463     1.118757628726     1.007825032230
         H           -3.218681264928    -1.155274688463     0.675929628726     1.007825032230
         H           -2.128804264928    -2.180902688463    -0.257775371274     1.007825032230
         H           -2.583787264928    -0.050258688463    -1.483370371274     1.007825032230
         H           -0.892995264928    -0.162682688463    -1.050153371274     1.007825032230
         H           -1.771090264928     2.121690311537    -0.550567371274     1.007825032230
         H           -3.002718264928     1.423290311537     0.501777628726     1.007825032230
         H           -1.300659264928     1.310484311537     0.941990628726     1.007825032230
         C            2.207192675072    -1.232981788463    -0.273796171274    12.000000000000
         C            1.896656675072    -0.049940788463     0.634810828726    12.000000000000
         C            1.997643675072     1.279249211537    -0.102942171274    12.000000000000
         H            1.517278675072    -1.264251788463    -1.118574171274     1.007825032230
         H            3.218278675072    -1.155590788463    -0.676218171274     1.007825032230
         H            2.128496675072    -2.181018788463     0.257834828726     1.007825032230
         H            2.584144675072    -0.050409788463     1.483233828726     1.007825032230
         H            0.893219675072    -0.162564788463     1.050455828726     1.007825032230
         H            1.771628675072     2.121633211537     0.550585828726     1.007825032230
         H            3.002795675072     1.422978211537    -0.502122171274     1.007825032230
         H            1.300579675072     1.310474211537    -0.941801171274     1.007825032230

  Running in c1 symmetry.

  Rotational constants: A =      0.12709  B =      0.04198  C =      0.03477 [cm^-1]
  Rotational constants: A =   3810.10239  B =   1258.63992  C =   1042.28171 [MHz]
  Nuclear repulsion =  247.484079810515055

  Charge       = 0
  Multiplicity = 1
  Electrons    = 52
  Nalpha       = 26
  Nbeta        = 26

  ==> Algorithm <==

  SCF Algorithm Type is DF.
  DIIS enabled.
  MOM disabled.
  Fractional occupation disabled.
  Guess Type is SAD.
  Energy threshold   = 1.00e-08
  Density threshold  = 1.00e-08
  Integral threshold = 0.00e+00

  ==> Primary Basis <==

  Basis Set: JUN-CC-PVTZ
    Blend: JUN-CC-PVTZ
    Number of shells: 174
    Number of basis function: 458
    Number of Cartesian functions: 510
    Spherical Harmonics?: true
    Max angular momentum: 3

   => Loading Basis Set <=

    Name: (JUN-CC-PVTZ AUX)
    Role: JKFIT
    Keyword: DF_BASIS_SCF
    atoms 1-3, 12-14  entry C          line   152 file /home/r08543048/miniconda3/share/psi4/basis/jun-cc-pvtz-jkfit.gbs 
    atoms 4-11, 15-22 entry H          line    70 file /home/r08543048/miniconda3/share/psi4/basis/jun-cc-pvtz-jkfit.gbs 

  ==> Pre-Iterations <==

   -------------------------------------------------------
    Irrep   Nso     Nmo     Nalpha   Nbeta   Ndocc  Nsocc
   -------------------------------------------------------
     A        458     458       0       0       0       0
   -------------------------------------------------------
    Total     458     458      26      26      26       0
   -------------------------------------------------------

  ==> Integral Setup <==

  ==> DiskDFJK: Density-Fitted J/K Matrices <==

    J tasked:                  Yes
    K tasked:                  Yes
    wK tasked:                  No
    OpenMP threads:              1
    Integrals threads:           1
    Memory [MiB]:            15735
    Algorithm:                Core
    Integral Cache:           SAVE
    Schwarz Cutoff:          1E-12
    Fitting Condition:       1E-10

   => Auxiliary Basis Set <=

  Basis Set: (JUN-CC-PVTZ AUX)
    Blend: JUN-CC-PVTZ-JKFIT
    Number of shells: 334
    Number of basis function: 1050
    Number of Cartesian functions: 1256
    Spherical Harmonics?: true
    Max angular momentum: 4

  Minimum eigenvalue in the overlap matrix is 9.2338773684E-05.
  Using Symmetric Orthogonalization.

  SCF Guess: Superposition of Atomic Densities via on-the-fly atomic UHF.

  ==> Iterations <==

                           Total Energy        Delta E     RMS |[F,P]|

   @DF-RHF iter SAD:  -235.54357118995128   -2.35544e+02   0.00000e+00 
   @DF-RHF iter   1:  -236.29291326898982   -7.49342e-01   1.58311e-03 DIIS
   @DF-RHF iter   2:  -236.55084458955633   -2.57931e-01   7.46869e-04 DIIS
   @DF-RHF iter   3:  -236.61088593814350   -6.00413e-02   1.27684e-04 DIIS
   @DF-RHF iter   4:  -236.61460871467148   -3.72278e-03   2.50853e-05 DIIS
   @DF-RHF iter   5:  -236.61472479380379   -1.16079e-04   7.08851e-06 DIIS
   @DF-RHF iter   6:  -236.61473405136428   -9.25756e-06   1.24292e-06 DIIS
   @DF-RHF iter   7:  -236.61473438903369   -3.37669e-07   2.28158e-07 DIIS
   @DF-RHF iter   8:  -236.61473440261446   -1.35808e-08   4.01338e-08 DIIS
   @DF-RHF iter   9:  -236.61473440301313   -3.98671e-10   9.47495e-09 DIIS
  Energy and wave function converged.


  ==> Post-Iterations <==

    Orbital Energies [Eh]
    ---------------------

    Doubly Occupied:                                                      

       1A    -11.215782     2A    -11.215781     3A    -11.208187  
       4A    -11.208186     5A    -11.207916     6A    -11.207915  
       7A     -1.056100     8A     -1.052923     9A     -0.926132  
      10A     -0.924227    11A     -0.801125    12A     -0.799523  
      13A     -0.634875    14A     -0.616081    15A     -0.599097  
      16A     -0.598136    17A     -0.550887    18A     -0.548757  
      19A     -0.533586    20A     -0.527580    21A     -0.478290  
      22A     -0.475891    23A     -0.474673    24A     -0.473866  
      25A     -0.472146    26A     -0.464168  

    Virtual:                                                              

      27A      0.053006    28A      0.053494    29A      0.055757  
      30A      0.062561    31A      0.070814    32A      0.074399  
      33A      0.087656    34A      0.092255    35A      0.093885  
      36A      0.110816    37A      0.115611    38A      0.118538  
      39A      0.118599    40A      0.119922    41A      0.132393  
      42A      0.146937    43A      0.149176    44A      0.153200  
      45A      0.155088    46A      0.168474    47A      0.189094  
      48A      0.205921    49A      0.207462    50A      0.210050  
      51A      0.253803    52A      0.256054    53A      0.259678  
      54A      0.265544    55A      0.274122    56A      0.280616  
      57A      0.286683    58A      0.299423    59A      0.305630  
      60A      0.305919    61A      0.315203    62A      0.324696  
      63A      0.328852    64A      0.330019    65A      0.333990  
      66A      0.335807    67A      0.340666    68A      0.349135  
      69A      0.352565    70A      0.354542    71A      0.358652  
      72A      0.365310    73A      0.369523    74A      0.377797  
      75A      0.392579    76A      0.401159    77A      0.402582  
      78A      0.411468    79A      0.412476    80A      0.422715  
      81A      0.424969    82A      0.443430    83A      0.450774  
      84A      0.453860    85A      0.475832    86A      0.481167  
      87A      0.495532    88A      0.497430    89A      0.515197  
      90A      0.516424    91A      0.531320    92A      0.534584  
      93A      0.537191    94A      0.550349    95A      0.561611  
      96A      0.567826    97A      0.569371    98A      0.578119  
      99A      0.587141   100A      0.603182   101A      0.639007  
     102A      0.655787   103A      0.668737   104A      0.669437  
     105A      0.680170   106A      0.683907   107A      0.706281  
     108A      0.708543   109A      0.730699   110A      0.749495  
     111A      0.763319   112A      0.764768   113A      0.771457  
     114A      0.779501   115A      0.784186   116A      0.800178  
     117A      0.803277   118A      0.809429   119A      0.809832  
     120A      0.821029   121A      0.829358   122A      0.830169  
     123A      0.836832   124A      0.855274   125A      0.859601  
     126A      0.866422   127A      0.876576   128A      0.882494  
     129A      0.884213   130A      0.908100   131A      0.911140  
     132A      0.919461   133A      0.928360   134A      0.950637  
     135A      0.955067   136A      0.966983   137A      0.983606  
     138A      0.986443   139A      1.003603   140A      1.005677  
     141A      1.023976   142A      1.052077   143A      1.053137  
     144A      1.107351   145A      1.118909   146A      1.124501  
     147A      1.149680   148A      1.162451   149A      1.166554  
     150A      1.176110   151A      1.213731   152A      1.223001  
     153A      1.226509   154A      1.245630   155A      1.256680  
     156A      1.284922   157A      1.296050   158A      1.324431  
     159A      1.338272   160A      1.346449   161A      1.346473  
     162A      1.353178   163A      1.360571   164A      1.361615  
     165A      1.373158   166A      1.399800   167A      1.415593  
     168A      1.418059   169A      1.418175   170A      1.428789  
     171A      1.428993   172A      1.441189   173A      1.461568  
     174A      1.475198   175A      1.489319   176A      1.491043  
     177A      1.504632   178A      1.525239   179A      1.537341  
     180A      1.558033   181A      1.559526   182A      1.569755  
     183A      1.569853   184A      1.577159   185A      1.589883  
     186A      1.600812   187A      1.609243   188A      1.609732  
     189A      1.636443   190A      1.642001   191A      1.664196  
     192A      1.666349   193A      1.672097   194A      1.695402  
     195A      1.698353   196A      1.701967   197A      1.709139  
     198A      1.718084   199A      1.752460   200A      1.795084  
     201A      1.809913   202A      1.811900   203A      1.823197  
     204A      1.848711   205A      1.849851   206A      1.855101  
     207A      1.875553   208A      1.884867   209A      1.918664  
     210A      1.934441   211A      1.945882   212A      1.961160  
     213A      1.969149   214A      1.982085   215A      1.995853  
     216A      2.010298   217A      2.093199   218A      2.129355  
     219A      2.718159   220A      2.737234   221A      2.741302  
     222A      2.747545   223A      2.758444   224A      2.776787  
     225A      2.784229   226A      2.785626   227A      2.823988  
     228A      2.841722   229A      2.869153   230A      2.878618  
     231A      2.902505   232A      2.910016   233A      2.924284  
     234A      2.925707   235A      2.930166   236A      2.931454  
     237A      2.954928   238A      2.965140   239A      2.968241  
     240A      2.995898   241A      3.013689   242A      3.029524  
     243A      3.073905   244A      3.093306   245A      3.093609  
     246A      3.120718   247A      3.125168   248A      3.131205  
     249A      3.146375   250A      3.148362   251A      3.175591  
     252A      3.184502   253A      3.201726   254A      3.205224  
     255A      3.230796   256A      3.241537   257A      3.264356  
     258A      3.269864   259A      3.280506   260A      3.298926  
     261A      3.313647   262A      3.319067   263A      3.328459  
     264A      3.328861   265A      3.364072   266A      3.376435  
     267A      3.382286   268A      3.386611   269A      3.388490  
     270A      3.395945   271A      3.406833   272A      3.426221  
     273A      3.439339   274A      3.439703   275A      3.467978  
     276A      3.473407   277A      3.476732   278A      3.483633  
     279A      3.487364   280A      3.497211   281A      3.502934  
     282A      3.506444   283A      3.515585   284A      3.522226  
     285A      3.532451   286A      3.535988   287A      3.538043  
     288A      3.542764   289A      3.548101   290A      3.585640  
     291A      3.599844   292A      3.610400   293A      3.622966  
     294A      3.643028   295A      3.658379   296A      3.691316  
     297A      3.713855   298A      3.720450   299A      3.723170  
     300A      3.734468   301A      3.750942   302A      3.776411  
     303A      3.791011   304A      3.791664   305A      3.795671  
     306A      3.821160   307A      3.828235   308A      3.832333  
     309A      3.845509   310A      3.860319   311A      3.863133  
     312A      3.873887   313A      3.923923   314A      3.925089  
     315A      3.931252   316A      3.945099   317A      3.950419  
     318A      3.959002   319A      3.969751   320A      3.971567  
     321A      3.984998   322A      4.007466   323A      4.084082  
     324A      4.097453   325A      4.110829   326A      4.123240  
     327A      4.171491   328A      4.175925   329A      4.197217  
     330A      4.205885   331A      4.208399   332A      4.226218  
     333A      4.237213   334A      4.238086   335A      4.241256  
     336A      4.260303   337A      4.287109   338A      4.309085  
     339A      4.309980   340A      4.317285   341A      4.328895  
     342A      4.332177   343A      4.350299   344A      4.352909  
     345A      4.363726   346A      4.369278   347A      4.380410  
     348A      4.390126   349A      4.410304   350A      4.415954  
     351A      4.423809   352A      4.443214   353A      4.455713  
     354A      4.476246   355A      4.487011   356A      4.497234  
     357A      4.499343   358A      4.504005   359A      4.520763  
     360A      4.539421   361A      4.540421   362A      4.547608  
     363A      4.552954   364A      4.556001   365A      4.569004  
     366A      4.573310   367A      4.604167   368A      4.620571  
     369A      4.634619   370A      4.675147   371A      4.682609  
     372A      4.691638   373A      4.703915   374A      4.712328  
     375A      4.736789   376A      4.742684   377A      4.786601  
     378A      4.794097   379A      4.811084   380A      4.813958  
     381A      4.850768   382A      4.861945   383A      4.880153  
     384A      4.886429   385A      4.970378   386A      4.971381  
     387A      5.007974   388A      5.014707   389A      5.018036  
     390A      5.044081   391A      5.130822   392A      5.140050  
     393A      5.156406   394A      5.175570   395A      5.199696  
     396A      5.202608   397A      5.248636   398A      5.259865  
     399A      5.272215   400A      5.275979   401A      5.277295  
     402A      5.280338   403A      5.300023   404A      5.301385  
     405A      5.332337   406A      5.334688   407A      5.390878  
     408A      5.396177   409A      5.400682   410A      5.435847  
     411A      5.471186   412A      5.478514   413A      5.510561  
     414A      5.512483   415A      5.578011   416A      5.583817  
     417A      5.603736   418A      5.604666   419A      5.718231  
     420A      5.721456   421A      5.745826   422A      5.747921  
     423A      5.752022   424A      5.763921   425A      5.771175  
     426A      5.777619   427A      5.782686   428A      5.787135  
     429A      5.796603   430A      5.813922   431A      5.816778  
     432A      5.822762   433A      5.924537   434A      5.925156  
     435A      5.927392   436A      5.927823   437A      5.950115  
     438A      5.951824   439A      5.976294   440A      6.001267  
     441A      6.093557   442A      6.101597   443A      6.461403  
     444A      6.466096   445A      6.499504   446A      6.500603  
     447A      6.533319   448A      6.536066   449A      6.553477  
     450A      6.555460   451A      6.577249   452A      6.613822  
     453A     13.771946   454A     13.955663   455A     14.365921  
     456A     14.484658   457A     14.582400   458A     14.690129  

    Final Occupation by Irrep:
              A 
    DOCC [    26 ]

  @DF-RHF Final Energy:  -236.61473440301313

   => Energetics <=

    Nuclear Repulsion Energy =            247.4840798105150554
    One-Electron Energy =                -807.6539720036699919
    Two-Electron Energy =                 323.5551577901418341
    Total Energy =                       -236.6147344030131308

Computation Completed


Properties will be evaluated at   0.000000,   0.000000,   0.000000 [a0]

Properties computed using the SCF density matrix

  Nuclear Dipole Moment: [e a0]
     X:    -0.0001      Y:     0.0782      Z:    -0.0000

  Electronic Dipole Moment: [e a0]
     X:     0.0001      Y:    -0.0816      Z:     0.0000

  Dipole Moment: [e a0]
     X:     0.0000      Y:    -0.0034      Z:     0.0000     Total:     0.0034

  Dipole Moment: [D]
     X:     0.0000      Y:    -0.0087      Z:     0.0000     Total:     0.0087


*** tstop() called on r282 at Wed Sep 15 07:13:26 2021
Module time:
	user time   =      39.97 seconds =       0.67 minutes
	system time =       1.02 seconds =       0.02 minutes
	total time  =         41 seconds =       0.68 minutes
Total time:
	user time   =      39.97 seconds =       0.67 minutes
	system time =       1.02 seconds =       0.02 minutes
	total time  =         41 seconds =       0.68 minutes

  //>>>>>>>>>>>>>>>>>>>>>>>>>>>>>>>>>>>//
  //            Monomer A HF           //
  //<<<<<<<<<<<<<<<<<<<<<<<<<<<<<<<<<<<//


*** tstart() called on r282
*** at Wed Sep 15 07:13:26 2021

   => Loading Basis Set <=

    Name: JUN-CC-PVTZ
    Role: ORBITAL
    Keyword: BASIS
    atoms 1-3, 12-14  entry C          line   217 file /home/r08543048/miniconda3/share/psi4/basis/jun-cc-pvtz.gbs 
    atoms 4-11, 15-22 entry H          line    36 file /home/r08543048/miniconda3/share/psi4/basis/jun-cc-pvtz.gbs 


         ---------------------------------------------------------
                                   SCF
               by Justin Turney, Rob Parrish, Andy Simmonett
                          and Daniel G. A. Smith
                              RHF Reference
                        1 Threads,  20980 MiB Core
         ---------------------------------------------------------

  ==> Geometry <==

    Molecular point group: c1
    Full point group: C1

    Geometry (in Angstrom), charge = 0, multiplicity = 1:

       Center              X                  Y                   Z               Mass       
    ------------   -----------------  -----------------  -----------------  -----------------
         C           -2.207494264928    -1.232828688463     0.273791628726    12.000000000000
         C           -1.896516264928    -0.049870688463    -0.634771371274    12.000000000000
         C           -1.997471264928     1.279364311537     0.102908628726    12.000000000000
         H           -1.517820264928    -1.264147688463     1.118757628726     1.007825032230
         H           -3.218681264928    -1.155274688463     0.675929628726     1.007825032230
         H           -2.128804264928    -2.180902688463    -0.257775371274     1.007825032230
         H           -2.583787264928    -0.050258688463    -1.483370371274     1.007825032230
         H           -0.892995264928    -0.162682688463    -1.050153371274     1.007825032230
         H           -1.771090264928     2.121690311537    -0.550567371274     1.007825032230
         H           -3.002718264928     1.423290311537     0.501777628726     1.007825032230
         H           -1.300659264928     1.310484311537     0.941990628726     1.007825032230
      Gh(C)           2.207192675072    -1.232981788463    -0.273796171274    12.000000000000
      Gh(C)           1.896656675072    -0.049940788463     0.634810828726    12.000000000000
      Gh(C)           1.997643675072     1.279249211537    -0.102942171274    12.000000000000
      Gh(H)           1.517278675072    -1.264251788463    -1.118574171274     1.007825032230
      Gh(H)           3.218278675072    -1.155590788463    -0.676218171274     1.007825032230
      Gh(H)           2.128496675072    -2.181018788463     0.257834828726     1.007825032230
      Gh(H)           2.584144675072    -0.050409788463     1.483233828726     1.007825032230
      Gh(H)           0.893219675072    -0.162564788463     1.050455828726     1.007825032230
      Gh(H)           1.771628675072     2.121633211537     0.550585828726     1.007825032230
      Gh(H)           3.002795675072     1.422978211537    -0.502122171274     1.007825032230
      Gh(H)           1.300579675072     1.310474211537    -0.941801171274     1.007825032230

  Running in c1 symmetry.

  Rotational constants: A =      0.12709  B =      0.04198  C =      0.03477 [cm^-1]
  Rotational constants: A =   3810.10239  B =   1258.63992  C =   1042.28171 [MHz]
  Nuclear repulsion =   82.817219279052722

  Charge       = 0
  Multiplicity = 1
  Electrons    = 26
  Nalpha       = 13
  Nbeta        = 13

  ==> Algorithm <==

  SCF Algorithm Type is DF.
  DIIS enabled.
  MOM disabled.
  Fractional occupation disabled.
  Guess Type is SAD.
  Energy threshold   = 1.00e-08
  Density threshold  = 1.00e-08
  Integral threshold = 0.00e+00

  ==> Primary Basis <==

  Basis Set: JUN-CC-PVTZ
    Blend: JUN-CC-PVTZ
    Number of shells: 174
    Number of basis function: 458
    Number of Cartesian functions: 510
    Spherical Harmonics?: true
    Max angular momentum: 3

   => Loading Basis Set <=

    Name: (JUN-CC-PVTZ AUX)
    Role: JKFIT
    Keyword: DF_BASIS_SCF
    atoms 1-3, 12-14  entry C          line   152 file /home/r08543048/miniconda3/share/psi4/basis/jun-cc-pvtz-jkfit.gbs 
    atoms 4-11, 15-22 entry H          line    70 file /home/r08543048/miniconda3/share/psi4/basis/jun-cc-pvtz-jkfit.gbs 

  ==> Pre-Iterations <==

   -------------------------------------------------------
    Irrep   Nso     Nmo     Nalpha   Nbeta   Ndocc  Nsocc
   -------------------------------------------------------
     A        458     458       0       0       0       0
   -------------------------------------------------------
    Total     458     458      13      13      13       0
   -------------------------------------------------------

  ==> Integral Setup <==

  ==> DiskDFJK: Density-Fitted J/K Matrices <==

    J tasked:                  Yes
    K tasked:                  Yes
    wK tasked:                  No
    OpenMP threads:              1
    Integrals threads:           1
    Memory [MiB]:            15735
    Algorithm:                Core
    Integral Cache:           LOAD
    Schwarz Cutoff:          1E-12
    Fitting Condition:       1E-10

   => Auxiliary Basis Set <=

  Basis Set: (JUN-CC-PVTZ AUX)
    Blend: JUN-CC-PVTZ-JKFIT
    Number of shells: 334
    Number of basis function: 1050
    Number of Cartesian functions: 1256
    Spherical Harmonics?: true
    Max angular momentum: 4

  Minimum eigenvalue in the overlap matrix is 9.2338773684E-05.
  Using Symmetric Orthogonalization.

  SCF Guess: Superposition of Atomic Densities via on-the-fly atomic UHF.

  ==> Iterations <==

                           Total Energy        Delta E     RMS |[F,P]|

   @DF-RHF iter SAD:  -117.72589475956474   -1.17726e+02   0.00000e+00 
   @DF-RHF iter   1:  -118.14638594456434   -4.20491e-01   1.12529e-03 DIIS
   @DF-RHF iter   2:  -118.27576982233001   -1.29384e-01   5.32318e-04 DIIS
   @DF-RHF iter   3:  -118.30618143736987   -3.04116e-02   8.94516e-05 DIIS
   @DF-RHF iter   4:  -118.30803333820555   -1.85190e-03   1.76508e-05 DIIS
   @DF-RHF iter   5:  -118.30809169319664   -5.83550e-05   4.96060e-06 DIIS
   @DF-RHF iter   6:  -118.30809631296752   -4.61977e-06   8.90531e-07 DIIS
   @DF-RHF iter   7:  -118.30809648427260   -1.71305e-07   1.67927e-07 DIIS
   @DF-RHF iter   8:  -118.30809649177678   -7.50418e-09   2.94680e-08 DIIS
   @DF-RHF iter   9:  -118.30809649201277   -2.35985e-10   5.81160e-09 DIIS
  Energy and wave function converged.


  ==> Post-Iterations <==

    Orbital Energies [Eh]
    ---------------------

    Doubly Occupied:                                                      

       1A    -11.215580     2A    -11.207860     3A    -11.207815  
       4A     -1.054043     5A     -0.924837     6A     -0.799825  
       7A     -0.624737     8A     -0.598263     9A     -0.549393  
      10A     -0.530203    11A     -0.475536    12A     -0.474962  
      13A     -0.467987  

    Virtual:                                                              

      14A      0.033578    15A      0.047001    16A      0.052235  
      17A      0.058579    18A      0.067575    19A      0.072441  
      20A      0.083037    21A      0.088318    22A      0.091226  
      23A      0.104819    24A      0.108806    25A      0.112051  
      26A      0.116866    27A      0.118120    28A      0.120949  
      29A      0.132433    30A      0.144162    31A      0.151720  
      32A      0.152788    33A      0.156471    34A      0.163769  
      35A      0.175444    36A      0.199054    37A      0.202709  
      38A      0.226388    39A      0.234641    40A      0.259437  
      41A      0.262718    42A      0.270868    43A      0.273702  
      44A      0.279992    45A      0.291017    46A      0.297156  
      47A      0.300254    48A      0.312448    49A      0.318106  
      50A      0.324827    51A      0.326990    52A      0.332962  
      53A      0.338330    54A      0.342749    55A      0.348546  
      56A      0.358435    57A      0.364508    58A      0.372075  
      59A      0.377181    60A      0.380086    61A      0.380855  
      62A      0.385630    63A      0.393406    64A      0.399556  
      65A      0.413257    66A      0.422708    67A      0.432528  
      68A      0.437779    69A      0.447443    70A      0.457218  
      71A      0.467279    72A      0.470710    73A      0.478721  
      74A      0.497320    75A      0.509712    76A      0.517657  
      77A      0.524446    78A      0.536511    79A      0.541614  
      80A      0.550407    81A      0.557097    82A      0.563519  
      83A      0.568751    84A      0.574782    85A      0.581917  
      86A      0.590590    87A      0.606119    88A      0.616896  
      89A      0.622219    90A      0.630545    91A      0.647008  
      92A      0.659886    93A      0.670096    94A      0.670650  
      95A      0.683029    96A      0.689721    97A      0.710474  
      98A      0.721742    99A      0.745776   100A      0.760628  
     101A      0.770281   102A      0.776225   103A      0.786431  
     104A      0.795235   105A      0.804502   106A      0.811386  
     107A      0.816502   108A      0.833745   109A      0.838608  
     110A      0.878600   111A      0.882199   112A      0.891180  
     113A      0.907341   114A      0.921343   115A      0.964902  
     116A      0.977545   117A      0.992628   118A      1.001698  
     119A      1.013449   120A      1.035880   121A      1.069004  
     122A      1.076611   123A      1.095230   124A      1.102446  
     125A      1.115139   126A      1.118545   127A      1.135608  
     128A      1.144036   129A      1.151046   130A      1.170860  
     131A      1.184671   132A      1.191099   133A      1.205109  
     134A      1.212118   135A      1.218023   136A      1.233046  
     137A      1.257622   138A      1.265250   139A      1.268828  
     140A      1.280439   141A      1.285347   142A      1.293738  
     143A      1.304907   144A      1.322147   145A      1.330321  
     146A      1.332285   147A      1.340971   148A      1.342661  
     149A      1.368929   150A      1.377736   151A      1.392065  
     152A      1.397434   153A      1.402347   154A      1.419869  
     155A      1.423664   156A      1.431211   157A      1.439414  
     158A      1.442250   159A      1.457344   160A      1.469355  
     161A      1.477693   162A      1.498814   163A      1.508723  
     164A      1.528039   165A      1.532405   166A      1.541576  
     167A      1.550934   168A      1.568502   169A      1.575268  
     170A      1.588700   171A      1.598330   172A      1.600383  
     173A      1.603876   174A      1.618321   175A      1.634000  
     176A      1.644177   177A      1.653819   178A      1.660414  
     179A      1.679801   180A      1.685808   181A      1.700039  
     182A      1.719270   183A      1.724765   184A      1.730557  
     185A      1.776070   186A      1.781610   187A      1.810233  
     188A      1.823836   189A      1.835179   190A      1.850149  
     191A      1.869490   192A      1.891916   193A      1.907408  
     194A      1.915980   195A      1.953154   196A      1.955691  
     197A      1.968686   198A      1.981573   199A      2.006587  
     200A      2.034951   201A      2.078797   202A      2.082599  
     203A      2.141541   204A      2.171490   205A      2.187691  
     206A      2.206571   207A      2.333398   208A      2.384701  
     209A      2.400994   210A      2.404228   211A      2.450674  
     212A      2.486589   213A      2.567050   214A      2.596639  
     215A      2.604022   216A      2.747132   217A      2.754044  
     218A      2.784060   219A      2.814424   220A      2.838994  
     221A      2.854281   222A      2.909581   223A      2.927549  
     224A      2.947416   225A      2.959382   226A      2.973270  
     227A      3.028125   228A      3.089340   229A      3.096764  
     230A      3.128526   231A      3.155315   232A      3.157273  
     233A      3.205489   234A      3.248621   235A      3.281423  
     236A      3.286825   237A      3.308593   238A      3.322978  
     239A      3.368315   240A      3.375853   241A      3.385885  
     242A      3.418140   243A      3.429659   244A      3.456309  
     245A      3.466770   246A      3.475139   247A      3.479901  
     248A      3.492320   249A      3.502039   250A      3.526440  
     251A      3.530801   252A      3.534966   253A      3.540771  
     254A      3.553823   255A      3.566866   256A      3.580817  
     257A      3.587861   258A      3.595318   259A      3.605152  
     260A      3.607052   261A      3.629359   262A      3.643640  
     263A      3.645820   264A      3.664826   265A      3.697763  
     266A      3.718340   267A      3.729663   268A      3.730490  
     269A      3.761512   270A      3.771715   271A      3.779782  
     272A      3.793579   273A      3.801735   274A      3.814307  
     275A      3.827077   276A      3.832721   277A      3.842680  
     278A      3.863890   279A      3.867031   280A      3.888590  
     281A      3.899881   282A      3.911310   283A      3.926573  
     284A      3.940810   285A      3.949643   286A      3.954322  
     287A      3.965729   288A      3.971983   289A      3.976855  
     290A      4.021631   291A      4.064249   292A      4.097710  
     293A      4.104463   294A      4.130292   295A      4.133664  
     296A      4.158112   297A      4.176741   298A      4.188841  
     299A      4.193452   300A      4.207737   301A      4.221238  
     302A      4.225228   303A      4.229941   304A      4.238256  
     305A      4.299462   306A      4.307151   307A      4.314726  
     308A      4.330794   309A      4.345145   310A      4.358689  
     311A      4.363548   312A      4.366261   313A      4.371665  
     314A      4.388423   315A      4.399695   316A      4.423315  
     317A      4.431799   318A      4.437699   319A      4.458743  
     320A      4.473633   321A      4.489298   322A      4.500540  
     323A      4.508048   324A      4.509268   325A      4.518601  
     326A      4.526413   327A      4.533865   328A      4.546073  
     329A      4.554617   330A      4.564623   331A      4.582975  
     332A      4.601380   333A      4.609971   334A      4.612263  
     335A      4.637367   336A      4.646473   337A      4.656357  
     338A      4.680623   339A      4.690967   340A      4.698528  
     341A      4.704308   342A      4.717953   343A      4.736940  
     344A      4.747739   345A      4.764675   346A      4.792609  
     347A      4.799282   348A      4.805751   349A      4.812810  
     350A      4.816093   351A      4.825497   352A      4.835924  
     353A      4.841743   354A      4.850895   355A      4.872267  
     356A      4.881998   357A      4.901975   358A      4.905259  
     359A      4.910827   360A      4.926792   361A      4.932577  
     362A      4.950727   363A      4.964053   364A      4.981502  
     365A      4.991697   366A      4.998460   367A      5.009497  
     368A      5.027627   369A      5.036927   370A      5.048144  
     371A      5.059949   372A      5.121553   373A      5.130918  
     374A      5.141731   375A      5.156574   376A      5.172056  
     377A      5.194788   378A      5.206775   379A      5.223639  
     380A      5.257033   381A      5.273846   382A      5.280613  
     383A      5.286057   384A      5.297309   385A      5.333714  
     386A      5.379057   387A      5.393428   388A      5.403218  
     389A      5.414921   390A      5.466757   391A      5.486316  
     392A      5.512233   393A      5.581159   394A      5.591711  
     395A      5.605805   396A      5.616804   397A      5.620433  
     398A      5.623842   399A      5.628219   400A      5.720985  
     401A      5.748861   402A      5.761439   403A      5.774309  
     404A      5.786402   405A      5.808584   406A      5.816905  
     407A      5.829051   408A      5.899549   409A      5.926371  
     410A      5.927946   411A      5.949689   412A      5.962246  
     413A      5.986663   414A      6.014848   415A      6.043602  
     416A      6.096589   417A      6.182854   418A      6.193712  
     419A      6.254063   420A      6.343421   421A      6.344869  
     422A      6.372871   423A      6.420784   424A      6.430609  
     425A      6.463661   426A      6.479255   427A      6.500577  
     428A      6.523780   429A      6.527635   430A      6.555288  
     431A      6.591630   432A      6.608627   433A      6.759183  
     434A      6.898512   435A      6.990196   436A      7.299133  
     437A      7.480295   438A      7.552978   439A      7.591118  
     440A      7.628955   441A      7.686540   442A      7.692705  
     443A      7.802511   444A      7.825194   445A      7.861491  
     446A      7.905785   447A      8.043311   448A      8.203691  
     449A      8.485540   450A      9.568089   451A      9.874408  
     452A      9.895576   453A     13.866006   454A     14.427733  
     455A     14.635049   456A     44.315782   457A     45.312214  
     458A     45.739849  

    Final Occupation by Irrep:
              A 
    DOCC [    13 ]

  @DF-RHF Final Energy:  -118.30809649201277

   => Energetics <=

    Nuclear Repulsion Energy =             82.8172192790527220
    One-Electron Energy =                -321.9885490920310076
    Two-Electron Energy =                 120.8632333209655201
    Total Energy =                       -118.3080964920127656

Computation Completed


Properties will be evaluated at   0.000000,   0.000000,   0.000000 [a0]

Properties computed using the SCF density matrix

  Nuclear Dipole Moment: [e a0]
     X:  -100.2036      Y:     0.0419      Z:    -3.1215

  Electronic Dipole Moment: [e a0]
     X:   100.2115      Y:    -0.0447      Z:     3.0897

  Dipole Moment: [e a0]
     X:     0.0080      Y:    -0.0028      Z:    -0.0318     Total:     0.0329

  Dipole Moment: [D]
     X:     0.0203      Y:    -0.0071      Z:    -0.0809     Total:     0.0837


*** tstop() called on r282 at Wed Sep 15 07:13:46 2021
Module time:
	user time   =      19.60 seconds =       0.33 minutes
	system time =       0.43 seconds =       0.01 minutes
	total time  =         20 seconds =       0.33 minutes
Total time:
	user time   =      59.58 seconds =       0.99 minutes
	system time =       1.45 seconds =       0.02 minutes
	total time  =         61 seconds =       1.02 minutes

  //>>>>>>>>>>>>>>>>>>>>>>>>>>>>>>>>>>>//
  //            Monomer B HF           //
  //<<<<<<<<<<<<<<<<<<<<<<<<<<<<<<<<<<<//


*** tstart() called on r282
*** at Wed Sep 15 07:13:46 2021

   => Loading Basis Set <=

    Name: JUN-CC-PVTZ
    Role: ORBITAL
    Keyword: BASIS
    atoms 1-3, 12-14  entry C          line   217 file /home/r08543048/miniconda3/share/psi4/basis/jun-cc-pvtz.gbs 
    atoms 4-11, 15-22 entry H          line    36 file /home/r08543048/miniconda3/share/psi4/basis/jun-cc-pvtz.gbs 


         ---------------------------------------------------------
                                   SCF
               by Justin Turney, Rob Parrish, Andy Simmonett
                          and Daniel G. A. Smith
                              RHF Reference
                        1 Threads,  20980 MiB Core
         ---------------------------------------------------------

  ==> Geometry <==

    Molecular point group: c1
    Full point group: C1

    Geometry (in Angstrom), charge = 0, multiplicity = 1:

       Center              X                  Y                   Z               Mass       
    ------------   -----------------  -----------------  -----------------  -----------------
      Gh(C)          -2.207494264928    -1.232828688463     0.273791628726    12.000000000000
      Gh(C)          -1.896516264928    -0.049870688463    -0.634771371274    12.000000000000
      Gh(C)          -1.997471264928     1.279364311537     0.102908628726    12.000000000000
      Gh(H)          -1.517820264928    -1.264147688463     1.118757628726     1.007825032230
      Gh(H)          -3.218681264928    -1.155274688463     0.675929628726     1.007825032230
      Gh(H)          -2.128804264928    -2.180902688463    -0.257775371274     1.007825032230
      Gh(H)          -2.583787264928    -0.050258688463    -1.483370371274     1.007825032230
      Gh(H)          -0.892995264928    -0.162682688463    -1.050153371274     1.007825032230
      Gh(H)          -1.771090264928     2.121690311537    -0.550567371274     1.007825032230
      Gh(H)          -3.002718264928     1.423290311537     0.501777628726     1.007825032230
      Gh(H)          -1.300659264928     1.310484311537     0.941990628726     1.007825032230
         C            2.207192675072    -1.232981788463    -0.273796171274    12.000000000000
         C            1.896656675072    -0.049940788463     0.634810828726    12.000000000000
         C            1.997643675072     1.279249211537    -0.102942171274    12.000000000000
         H            1.517278675072    -1.264251788463    -1.118574171274     1.007825032230
         H            3.218278675072    -1.155590788463    -0.676218171274     1.007825032230
         H            2.128496675072    -2.181018788463     0.257834828726     1.007825032230
         H            2.584144675072    -0.050409788463     1.483233828726     1.007825032230
         H            0.893219675072    -0.162564788463     1.050455828726     1.007825032230
         H            1.771628675072     2.121633211537     0.550585828726     1.007825032230
         H            3.002795675072     1.422978211537    -0.502122171274     1.007825032230
         H            1.300579675072     1.310474211537    -0.941801171274     1.007825032230

  Running in c1 symmetry.

  Rotational constants: A =      0.12709  B =      0.04198  C =      0.03477 [cm^-1]
  Rotational constants: A =   3810.10239  B =   1258.63992  C =   1042.28171 [MHz]
  Nuclear repulsion =   82.817242756398969

  Charge       = 0
  Multiplicity = 1
  Electrons    = 26
  Nalpha       = 13
  Nbeta        = 13

  ==> Algorithm <==

  SCF Algorithm Type is DF.
  DIIS enabled.
  MOM disabled.
  Fractional occupation disabled.
  Guess Type is SAD.
  Energy threshold   = 1.00e-08
  Density threshold  = 1.00e-08
  Integral threshold = 0.00e+00

  ==> Primary Basis <==

  Basis Set: JUN-CC-PVTZ
    Blend: JUN-CC-PVTZ
    Number of shells: 174
    Number of basis function: 458
    Number of Cartesian functions: 510
    Spherical Harmonics?: true
    Max angular momentum: 3

   => Loading Basis Set <=

    Name: (JUN-CC-PVTZ AUX)
    Role: JKFIT
    Keyword: DF_BASIS_SCF
    atoms 1-3, 12-14  entry C          line   152 file /home/r08543048/miniconda3/share/psi4/basis/jun-cc-pvtz-jkfit.gbs 
    atoms 4-11, 15-22 entry H          line    70 file /home/r08543048/miniconda3/share/psi4/basis/jun-cc-pvtz-jkfit.gbs 

  ==> Pre-Iterations <==

   -------------------------------------------------------
    Irrep   Nso     Nmo     Nalpha   Nbeta   Ndocc  Nsocc
   -------------------------------------------------------
     A        458     458       0       0       0       0
   -------------------------------------------------------
    Total     458     458      13      13      13       0
   -------------------------------------------------------

  ==> Integral Setup <==

  ==> DiskDFJK: Density-Fitted J/K Matrices <==

    J tasked:                  Yes
    K tasked:                  Yes
    wK tasked:                  No
    OpenMP threads:              1
    Integrals threads:           1
    Memory [MiB]:            15735
    Algorithm:                Core
    Integral Cache:           LOAD
    Schwarz Cutoff:          1E-12
    Fitting Condition:       1E-10

   => Auxiliary Basis Set <=

  Basis Set: (JUN-CC-PVTZ AUX)
    Blend: JUN-CC-PVTZ-JKFIT
    Number of shells: 334
    Number of basis function: 1050
    Number of Cartesian functions: 1256
    Spherical Harmonics?: true
    Max angular momentum: 4

  Minimum eigenvalue in the overlap matrix is 9.2338773684E-05.
  Using Symmetric Orthogonalization.

  SCF Guess: Superposition of Atomic Densities via on-the-fly atomic UHF.

  ==> Iterations <==

                           Total Energy        Delta E     RMS |[F,P]|

   @DF-RHF iter SAD:  -117.72589666960492   -1.17726e+02   0.00000e+00 
   @DF-RHF iter   1:  -118.14638562076152   -4.20489e-01   1.12529e-03 DIIS
   @DF-RHF iter   2:  -118.27576970383629   -1.29384e-01   5.32319e-04 DIIS
   @DF-RHF iter   3:  -118.30618145203162   -3.04117e-02   8.94516e-05 DIIS
   @DF-RHF iter   4:  -118.30803335495992   -1.85190e-03   1.76508e-05 DIIS
   @DF-RHF iter   5:  -118.30809171000971   -5.83550e-05   4.96060e-06 DIIS
   @DF-RHF iter   6:  -118.30809632977412   -4.61976e-06   8.90533e-07 DIIS
   @DF-RHF iter   7:  -118.30809650108127   -1.71307e-07   1.67927e-07 DIIS
   @DF-RHF iter   8:  -118.30809650858552   -7.50425e-09   2.94679e-08 DIIS
   @DF-RHF iter   9:  -118.30809650882078   -2.35261e-10   5.81157e-09 DIIS
  Energy and wave function converged.


  ==> Post-Iterations <==

    Orbital Energies [Eh]
    ---------------------

    Doubly Occupied:                                                      

       1A    -11.215581     2A    -11.207859     3A    -11.207815  
       4A     -1.054043     5A     -0.924837     6A     -0.799825  
       7A     -0.624737     8A     -0.598263     9A     -0.549394  
      10A     -0.530203    11A     -0.475536    12A     -0.474961  
      13A     -0.467987  

    Virtual:                                                              

      14A      0.033578    15A      0.047001    16A      0.052235  
      17A      0.058579    18A      0.067575    19A      0.072441  
      20A      0.083037    21A      0.088318    22A      0.091226  
      23A      0.104816    24A      0.108807    25A      0.112051  
      26A      0.116866    27A      0.118123    28A      0.120949  
      29A      0.132433    30A      0.144162    31A      0.151717  
      32A      0.152788    33A      0.156474    34A      0.163772  
      35A      0.175447    36A      0.199052    37A      0.202710  
      38A      0.226387    39A      0.234635    40A      0.259439  
      41A      0.262714    42A      0.270872    43A      0.273706  
      44A      0.279992    45A      0.291010    46A      0.297152  
      47A      0.300247    48A      0.312454    49A      0.318108  
      50A      0.324829    51A      0.326992    52A      0.332968  
      53A      0.338334    54A      0.342742    55A      0.348550  
      56A      0.358437    57A      0.364499    58A      0.372079  
      59A      0.377193    60A      0.380076    61A      0.380854  
      62A      0.385623    63A      0.393405    64A      0.399557  
      65A      0.413254    66A      0.422709    67A      0.432540  
      68A      0.437782    69A      0.447452    70A      0.457216  
      71A      0.467278    72A      0.470698    73A      0.478725  
      74A      0.497310    75A      0.509713    76A      0.517664  
      77A      0.524418    78A      0.536510    79A      0.541606  
      80A      0.550411    81A      0.557105    82A      0.563533  
      83A      0.568765    84A      0.574788    85A      0.581901  
      86A      0.590607    87A      0.606124    88A      0.616898  
      89A      0.622221    90A      0.630543    91A      0.647002  
      92A      0.659902    93A      0.670094    94A      0.670653  
      95A      0.683024    96A      0.689725    97A      0.710473  
      98A      0.721749    99A      0.745770   100A      0.760625  
     101A      0.770278   102A      0.776216   103A      0.786438  
     104A      0.795229   105A      0.804493   106A      0.811395  
     107A      0.816502   108A      0.833716   109A      0.838582  
     110A      0.878609   111A      0.882199   112A      0.891163  
     113A      0.907352   114A      0.921329   115A      0.964893  
     116A      0.977541   117A      0.992621   118A      1.001704  
     119A      1.013445   120A      1.035894   121A      1.069020  
     122A      1.076624   123A      1.095257   124A      1.102466  
     125A      1.115136   126A      1.118549   127A      1.135597  
     128A      1.144029   129A      1.151056   130A      1.170845  
     131A      1.184675   132A      1.191109   133A      1.205117  
     134A      1.212134   135A      1.218043   136A      1.233055  
     137A      1.257616   138A      1.265220   139A      1.268829  
     140A      1.280454   141A      1.285331   142A      1.293741  
     143A      1.304918   144A      1.322154   145A      1.330343  
     146A      1.332285   147A      1.340957   148A      1.342628  
     149A      1.368915   150A      1.377734   151A      1.392072  
     152A      1.397430   153A      1.402364   154A      1.419895  
     155A      1.423662   156A      1.431202   157A      1.439439  
     158A      1.442232   159A      1.457336   160A      1.469367  
     161A      1.477659   162A      1.498798   163A      1.508737  
     164A      1.528035   165A      1.532424   166A      1.541578  
     167A      1.550904   168A      1.568499   169A      1.575263  
     170A      1.588698   171A      1.598336   172A      1.600362  
     173A      1.603876   174A      1.618335   175A      1.634027  
     176A      1.644157   177A      1.653817   178A      1.660400  
     179A      1.679802   180A      1.685820   181A      1.700056  
     182A      1.719291   183A      1.724771   184A      1.730558  
     185A      1.776040   186A      1.781590   187A      1.810229  
     188A      1.823851   189A      1.835163   190A      1.850159  
     191A      1.869507   192A      1.891907   193A      1.907424  
     194A      1.915961   195A      1.953153   196A      1.955677  
     197A      1.968695   198A      1.981568   199A      2.006578  
     200A      2.034960   201A      2.078814   202A      2.082548  
     203A      2.141532   204A      2.171490   205A      2.187705  
     206A      2.206575   207A      2.333402   208A      2.384707  
     209A      2.400985   210A      2.404222   211A      2.450678  
     212A      2.486587   213A      2.567068   214A      2.596639  
     215A      2.604034   216A      2.747133   217A      2.754048  
     218A      2.784053   219A      2.814443   220A      2.838995  
     221A      2.854261   222A      2.909589   223A      2.927552  
     224A      2.947415   225A      2.959388   226A      2.973228  
     227A      3.028127   228A      3.089330   229A      3.096754  
     230A      3.128533   231A      3.155310   232A      3.157288  
     233A      3.205507   234A      3.248622   235A      3.281417  
     236A      3.286820   237A      3.308599   238A      3.322975  
     239A      3.368320   240A      3.375851   241A      3.385881  
     242A      3.418147   243A      3.429662   244A      3.456303  
     245A      3.466794   246A      3.475145   247A      3.479900  
     248A      3.492321   249A      3.502038   250A      3.526439  
     251A      3.530811   252A      3.534967   253A      3.540770  
     254A      3.553836   255A      3.566862   256A      3.580821  
     257A      3.587855   258A      3.595320   259A      3.605147  
     260A      3.607050   261A      3.629341   262A      3.643658  
     263A      3.645820   264A      3.664849   265A      3.697752  
     266A      3.718344   267A      3.729668   268A      3.730502  
     269A      3.761515   270A      3.771725   271A      3.779778  
     272A      3.793582   273A      3.801712   274A      3.814300  
     275A      3.827081   276A      3.832721   277A      3.842681  
     278A      3.863899   279A      3.867022   280A      3.888589  
     281A      3.899886   282A      3.911299   283A      3.926577  
     284A      3.940802   285A      3.949648   286A      3.954342  
     287A      3.965735   288A      3.971982   289A      3.976854  
     290A      4.021631   291A      4.064236   292A      4.097688  
     293A      4.104479   294A      4.130289   295A      4.133659  
     296A      4.158104   297A      4.176748   298A      4.188848  
     299A      4.193455   300A      4.207728   301A      4.221245  
     302A      4.225206   303A      4.229954   304A      4.238241  
     305A      4.299456   306A      4.307153   307A      4.314726  
     308A      4.330786   309A      4.345147   310A      4.358679  
     311A      4.363524   312A      4.366241   313A      4.371658  
     314A      4.388427   315A      4.399694   316A      4.423318  
     317A      4.431819   318A      4.437692   319A      4.458741  
     320A      4.473612   321A      4.489294   322A      4.500536  
     323A      4.508042   324A      4.509257   325A      4.518613  
     326A      4.526412   327A      4.533877   328A      4.546076  
     329A      4.554631   330A      4.564626   331A      4.582963  
     332A      4.601385   333A      4.609976   334A      4.612254  
     335A      4.637365   336A      4.646471   337A      4.656357  
     338A      4.680634   339A      4.690982   340A      4.698535  
     341A      4.704309   342A      4.717964   343A      4.736926  
     344A      4.747737   345A      4.764694   346A      4.792623  
     347A      4.799279   348A      4.805729   349A      4.812814  
     350A      4.816090   351A      4.825514   352A      4.835929  
     353A      4.841739   354A      4.850884   355A      4.872266  
     356A      4.881985   357A      4.901968   358A      4.905270  
     359A      4.910822   360A      4.926767   361A      4.932559  
     362A      4.950724   363A      4.964058   364A      4.981502  
     365A      4.991709   366A      4.998446   367A      5.009514  
     368A      5.027621   369A      5.036937   370A      5.048129  
     371A      5.059950   372A      5.121560   373A      5.130919  
     374A      5.141735   375A      5.156580   376A      5.172062  
     377A      5.194788   378A      5.206766   379A      5.223659  
     380A      5.257024   381A      5.273835   382A      5.280622  
     383A      5.286050   384A      5.297310   385A      5.333712  
     386A      5.379055   387A      5.393437   388A      5.403218  
     389A      5.414909   390A      5.466748   391A      5.486319  
     392A      5.512238   393A      5.581166   394A      5.591716  
     395A      5.605816   396A      5.616792   397A      5.620428  
     398A      5.623830   399A      5.628223   400A      5.720986  
     401A      5.748864   402A      5.761433   403A      5.774314  
     404A      5.786416   405A      5.808597   406A      5.816911  
     407A      5.829066   408A      5.899556   409A      5.926360  
     410A      5.927938   411A      5.949684   412A      5.962253  
     413A      5.986671   414A      6.014844   415A      6.043608  
     416A      6.096590   417A      6.182860   418A      6.193700  
     419A      6.254047   420A      6.343422   421A      6.344876  
     422A      6.372871   423A      6.420776   424A      6.430597  
     425A      6.463662   426A      6.479259   427A      6.500578  
     428A      6.523790   429A      6.527645   430A      6.555295  
     431A      6.591614   432A      6.608617   433A      6.759184  
     434A      6.898510   435A      6.990213   436A      7.299128  
     437A      7.480291   438A      7.552988   439A      7.591117  
     440A      7.628954   441A      7.686531   442A      7.692705  
     443A      7.802524   444A      7.825189   445A      7.861489  
     446A      7.905782   447A      8.043313   448A      8.203697  
     449A      8.485544   450A      9.568105   451A      9.874449  
     452A      9.895563   453A     13.865910   454A     14.427679  
     455A     14.635077   456A     44.315992   457A     45.312255  
     458A     45.739798  

    Final Occupation by Irrep:
              A 
    DOCC [    13 ]

  @DF-RHF Final Energy:  -118.30809650882078

   => Energetics <=

    Nuclear Repulsion Energy =             82.8172427563989686
    One-Electron Energy =                -321.9885968069244200
    Two-Electron Energy =                 120.8632575417046695
    Total Energy =                       -118.3080965088207819

Computation Completed


Properties will be evaluated at   0.000000,   0.000000,   0.000000 [a0]

Properties computed using the SCF density matrix

  Nuclear Dipole Moment: [e a0]
     X:   100.2034      Y:     0.0363      Z:     3.1215

  Electronic Dipole Moment: [e a0]
     X:  -100.2114      Y:    -0.0391      Z:    -3.0897

  Dipole Moment: [e a0]
     X:    -0.0080      Y:    -0.0028      Z:     0.0318     Total:     0.0329

  Dipole Moment: [D]
     X:    -0.0202      Y:    -0.0071      Z:     0.0809     Total:     0.0837


*** tstop() called on r282 at Wed Sep 15 07:14:08 2021
Module time:
	user time   =      21.18 seconds =       0.35 minutes
	system time =       0.47 seconds =       0.01 minutes
	total time  =         22 seconds =       0.37 minutes
Total time:
	user time   =      80.76 seconds =       1.35 minutes
	system time =       1.92 seconds =       0.03 minutes
	total time  =         83 seconds =       1.38 minutes
  Constructing Basis Sets for SAPT...

   => Loading Basis Set <=

    Name: (JUN-CC-PVTZ AUX)
    Role: RIFIT
    Keyword: DF_BASIS_SAPT
    atoms 1-3, 12-14  entry C          line   132 file /home/r08543048/miniconda3/share/psi4/basis/jun-cc-pvtz-ri.gbs 
    atoms 4-11, 15-22 entry H          line    30 file /home/r08543048/miniconda3/share/psi4/basis/jun-cc-pvtz-ri.gbs 


  //>>>>>>>>>>>>>>>>>>>>>>>>>>>>>>>>>>>//
  //               SAPT0               //
  //<<<<<<<<<<<<<<<<<<<<<<<<<<<<<<<<<<<//


*** tstart() called on r282
*** at Wed Sep 15 07:14:08 2021

        SAPT0  
    Ed Hohenstein
     6 June 2009

      Orbital Information
  --------------------------
    NSO        =       458
    NMO        =       458
    NRI        =      1062
    NOCC A     =        13
    NOCC B     =        13
    FOCC A     =         0
    FOCC B     =         0
    NVIR A     =       445
    NVIR B     =       445

    Elst10,r            =    -0.000638415009 [Eh]
    Exch10              =     0.002302466118 [Eh]
    Exch10 (S^2)        =     0.002300288993 [Eh]

    Iter     Energy [mEh]          dE [mEh]         Residual      Time [s]
       1      -0.13203112       0.132031124       1.391541515             1
       2      -0.15985746       0.027826338       0.226577639             2
       3      -0.15943216      -0.000425306       0.082505299             3
       4      -0.15916071      -0.000271444       0.019973046             3
       5      -0.15919962       0.000038905       0.005265176             4
       6      -0.15921272       0.000013098       0.000949580             5
       7      -0.15921037      -0.000002342       0.000220513             6
       8      -0.15921028      -0.000000094       0.000062369             6
       9      -0.15921040       0.000000117       0.000011709             7
      10      -0.15921039      -0.000000004       0.000002450             8
      11      -0.15921039      -0.000000003       0.000000531             9

    CHF Iterations converged


    Iter     Energy [mEh]          dE [mEh]         Residual      Time [s]
       1      -0.13198149       0.131981488       1.391196149             0
       2      -0.15979300       0.027811509       0.226450668             1
       3      -0.15936794      -0.000425056       0.082430655             2
       4      -0.15909685      -0.000271090       0.019959748             2
       5      -0.15913569       0.000038836       0.005263531             3
       6      -0.15914879       0.000013099       0.000949361             4
       7      -0.15914645      -0.000002340       0.000220609             5
       8      -0.15914635      -0.000000095       0.000062372             5
       9      -0.15914647       0.000000117       0.000011708             6
      10      -0.15914647      -0.000000004       0.000002450             7
      11      -0.15914646      -0.000000003       0.000000531             8

    CHF Iterations converged

    Ind20,r (A<-B)      =    -0.000159210389 [Eh]
    Ind20,r (B<-A)      =    -0.000159146462 [Eh]
    Ind20,r             =    -0.000318356851 [Eh]
    Exch-Ind20,r (A<-B) =     0.000135520015 [Eh]
    Exch-Ind20,r (B<-A) =     0.000135448700 [Eh]
    Exch-Ind20,r        =     0.000270968715 [Eh]
    Disp20              =    -0.004561334753 [Eh]
    Disp20 (SS)         =    -0.002280667376 [Eh]
    Disp20 (OS)         =    -0.002280667376 [Eh]
    Exch-Disp20         =     0.000267917883 [Eh]
    Exch-Disp20 (SS)    =     0.000177466147 [Eh]
    Exch-Disp20 (OS)    =     0.000090451736 [Eh]

    SAPT Results 
  --------------------------------------------------------------------------------------------------------
    Electrostatics                 -0.63841501 [mEh]      -0.40061147 [kcal/mol]      -1.67615838 [kJ/mol]
      Elst10,r                     -0.63841501 [mEh]      -0.40061147 [kcal/mol]      -1.67615838 [kJ/mol]

    Exchange                        2.30246612 [mEh]       1.44481930 [kcal/mol]       6.04512396 [kJ/mol]
      Exch10                        2.30246612 [mEh]       1.44481930 [kcal/mol]       6.04512396 [kJ/mol]
      Exch10(S^2)                   2.30028899 [mEh]       1.44345314 [kcal/mol]       6.03940792 [kJ/mol]

    Induction                      -0.20545329 [mEh]      -0.12892389 [kcal/mol]      -0.53941754 [kJ/mol]
      Ind20,r                      -0.31835685 [mEh]      -0.19977194 [kcal/mol]      -0.83584580 [kJ/mol]
      Exch-Ind20,r                  0.27096871 [mEh]       0.17003544 [kcal/mol]       0.71142826 [kJ/mol]
      delta HF,r (2)               -0.15806515 [mEh]      -0.09918738 [kcal/mol]      -0.41500000 [kJ/mol]

    Dispersion                     -4.29341687 [mEh]      -2.69415976 [kcal/mol]     -11.27236444 [kJ/mol]
      Disp20                       -4.56133475 [mEh]      -2.86228077 [kcal/mol]     -11.97578274 [kJ/mol]
      Exch-Disp20                   0.26791788 [mEh]       0.16812101 [kcal/mol]       0.70341830 [kJ/mol]
      Disp20 (SS)                  -2.28066738 [mEh]      -1.43114039 [kcal/mol]      -5.98789137 [kJ/mol]
      Disp20 (OS)                  -2.28066738 [mEh]      -1.43114039 [kcal/mol]      -5.98789137 [kJ/mol]
      Exch-Disp20 (SS)              0.17746615 [mEh]       0.11136169 [kcal/mol]       0.46593731 [kJ/mol]
      Exch-Disp20 (OS)              0.09045174 [mEh]       0.05675932 [kcal/mol]       0.23748100 [kJ/mol]

  Total HF                          1.45859782 [mEh]       0.91528395 [kcal/mol]       3.82954805 [kJ/mol]
  Total SAPT0                      -2.83481905 [mEh]      -1.77887581 [kcal/mol]      -7.44281639 [kJ/mol]

  Special recipe for scaled SAPT0 (see Manual):
    Electrostatics sSAPT0          -0.63841501 [mEh]      -0.40061147 [kcal/mol]      -1.67615838 [kJ/mol]
    Exchange sSAPT0                 2.30246612 [mEh]       1.44481930 [kcal/mol]       6.04512396 [kJ/mol]
    Induction sSAPT0               -0.20468318 [mEh]      -0.12844063 [kcal/mol]      -0.53739561 [kJ/mol]
    Dispersion sSAPT0              -4.29265543 [mEh]      -2.69368195 [kcal/mol]     -11.27036528 [kJ/mol]
  Total sSAPT0                     -2.83328750 [mEh]      -1.77791475 [kcal/mol]      -7.43879531 [kJ/mol]
  --------------------------------------------------------------------------------------------------------

*** tstop() called on r282 at Wed Sep 15 07:15:31 2021
Module time:
	user time   =      66.28 seconds =       1.10 minutes
	system time =      11.97 seconds =       0.20 minutes
	total time  =         83 seconds =       1.38 minutes
Total time:
	user time   =     147.18 seconds =       2.45 minutes
	system time =      13.89 seconds =       0.23 minutes
	total time  =        166 seconds =       2.77 minutes

    Psi4 stopped on: Wednesday, 15 September 2021 07:15AM
    Psi4 wall time for execution: 0:02:45.66

*** Psi4 exiting successfully. Buy a developer a beer!
