
    -----------------------------------------------------------------------
          Psi4: An Open-Source Ab Initio Electronic Structure Package
                               Psi4 1.3.2 release

                         Git: Rev {HEAD} ecbda83 


    R. M. Parrish, L. A. Burns, D. G. A. Smith, A. C. Simmonett,
    A. E. DePrince III, E. G. Hohenstein, U. Bozkaya, A. Yu. Sokolov,
    R. Di Remigio, R. M. Richard, J. F. Gonthier, A. M. James,
    H. R. McAlexander, A. Kumar, M. Saitow, X. Wang, B. P. Pritchard,
    P. Verma, H. F. Schaefer III, K. Patkowski, R. A. King, E. F. Valeev,
    F. A. Evangelista, J. M. Turney, T. D. Crawford, and C. D. Sherrill,
    J. Chem. Theory Comput. 13(7) pp 3185--3197 (2017).
    (doi: 10.1021/acs.jctc.7b00174)


                         Additional Contributions by
    P. Kraus, H. Kruse, M. H. Lechner, M. C. Schieber, R. A. Shaw,
    A. Alenaizan, R. Galvelis, Z. L. Glick, S. Lehtola, and J. P. Misiewicz

    -----------------------------------------------------------------------


    Psi4 started on: Wednesday, 15 September 2021 07:23AM

    Process ID: 5219
    Host:       r282
    PSIDATADIR: /home/r08543048/miniconda3/share/psi4
    Memory:     500.0 MiB
    Threads:    1
    
  ==> Input File <==

--------------------------------------------------------------------------
# Any line starting with the # character is a comment line
#! Sample  computation

memory 22 gb

molecule Dimer {

0 1
 C                 -1.04158831    1.05921435   -0.20702836
 C                 -1.93884531    0.20952335    0.30001264
 C                 -2.05083131   -1.22956065   -0.09014136
 H                 -1.00707031    2.09325735    0.10704264
 H                 -0.32228331    0.73128835   -0.94690836
 H                 -2.64008331    0.57347235    1.04418864
 H                 -3.03859331   -1.44488865   -0.50078536
 H                 -1.30024531   -1.49047865   -0.83483436
 H                 -1.91720531   -1.88094165    0.77553264
--
0 1
 C                  1.04175231   -1.05923135    0.20755536
 C                  1.93840631   -0.20944835   -0.30039764
 C                  2.05102531    1.22951865    0.08998436
 H                  1.00675631   -2.09316935   -0.10680564
 H                  0.32344031   -0.73151135    0.94849036
 H                  2.63863431   -0.57324035   -1.04560464
 H                  1.91627831    1.88114765   -0.77533364
 H                  1.30149031    1.49031765    0.83577936
 H                  3.03936931    1.44465065    0.49933036

units angstrom
no_reorient
symmetry c1
}

set globals{
  basis jun-cc-pvtz
}

energy('sapt0')
--------------------------------------------------------------------------

  Memory set to  20.489 GiB by Python driver.

  //>>>>>>>>>>>>>>>>>>>>>>>>>>>>>>>>>>>//
  //              Dimer HF             //
  //<<<<<<<<<<<<<<<<<<<<<<<<<<<<<<<<<<<//


*** tstart() called on r282
*** at Wed Sep 15 07:23:47 2021

   => Loading Basis Set <=

    Name: JUN-CC-PVTZ
    Role: ORBITAL
    Keyword: BASIS
    atoms 1-3, 10-12 entry C          line   217 file /home/r08543048/miniconda3/share/psi4/basis/jun-cc-pvtz.gbs 
    atoms 4-9, 13-18 entry H          line    36 file /home/r08543048/miniconda3/share/psi4/basis/jun-cc-pvtz.gbs 


         ---------------------------------------------------------
                                   SCF
               by Justin Turney, Rob Parrish, Andy Simmonett
                          and Daniel G. A. Smith
                              RHF Reference
                        1 Threads,  20980 MiB Core
         ---------------------------------------------------------

  ==> Geometry <==

    Molecular point group: c1
    Full point group: C1

    Geometry (in Angstrom), charge = 0, multiplicity = 1:

       Center              X                  Y                   Z               Mass       
    ------------   -----------------  -----------------  -----------------  -----------------
         C           -1.041582599938     1.059213217352    -0.207027322111    12.000000000000
         C           -1.938839599938     0.209522217352     0.300013677889    12.000000000000
         C           -2.050825599938    -1.229561782648    -0.090140322111    12.000000000000
         H           -1.007064599938     2.093256217352     0.107043677889     1.007825032230
         H           -0.322277599938     0.731287217352    -0.946907322111     1.007825032230
         H           -2.640077599938     0.573471217352     1.044189677889     1.007825032230
         H           -3.038587599938    -1.444889782648    -0.500784322111     1.007825032230
         H           -1.300239599938    -1.490479782648    -0.834833322111     1.007825032230
         H           -1.917199599938    -1.880942782648     0.775533677889     1.007825032230
         C            1.041758020062    -1.059232482648     0.207556397889    12.000000000000
         C            1.938412020062    -0.209449482648    -0.300396602111    12.000000000000
         C            2.051031020062     1.229517517352     0.089985397889    12.000000000000
         H            1.006762020062    -2.093170482648    -0.106804602111     1.007825032230
         H            0.323446020062    -0.731512482648     0.948491397889     1.007825032230
         H            2.638640020062    -0.573241482648    -1.045603602111     1.007825032230
         H            1.916284020062     1.881146517352    -0.775332602111     1.007825032230
         H            1.301496020062     1.490316517352     0.835780397889     1.007825032230
         H            3.039375020062     1.444649517352     0.499331397889     1.007825032230

  Running in c1 symmetry.

  Rotational constants: A =      0.18015  B =      0.06002  C =      0.04765 [cm^-1]
  Rotational constants: A =   5400.89670  B =   1799.40214  C =   1428.43565 [MHz]
  Nuclear repulsion =  226.403251847242785

  Charge       = 0
  Multiplicity = 1
  Electrons    = 48
  Nalpha       = 24
  Nbeta        = 24

  ==> Algorithm <==

  SCF Algorithm Type is DF.
  DIIS enabled.
  MOM disabled.
  Fractional occupation disabled.
  Guess Type is SAD.
  Energy threshold   = 1.00e-08
  Density threshold  = 1.00e-08
  Integral threshold = 0.00e+00

  ==> Primary Basis <==

  Basis Set: JUN-CC-PVTZ
    Blend: JUN-CC-PVTZ
    Number of shells: 150
    Number of basis function: 402
    Number of Cartesian functions: 450
    Spherical Harmonics?: true
    Max angular momentum: 3

   => Loading Basis Set <=

    Name: (JUN-CC-PVTZ AUX)
    Role: JKFIT
    Keyword: DF_BASIS_SCF
    atoms 1-3, 10-12 entry C          line   152 file /home/r08543048/miniconda3/share/psi4/basis/jun-cc-pvtz-jkfit.gbs 
    atoms 4-9, 13-18 entry H          line    70 file /home/r08543048/miniconda3/share/psi4/basis/jun-cc-pvtz-jkfit.gbs 

  ==> Pre-Iterations <==

   -------------------------------------------------------
    Irrep   Nso     Nmo     Nalpha   Nbeta   Ndocc  Nsocc
   -------------------------------------------------------
     A        402     402       0       0       0       0
   -------------------------------------------------------
    Total     402     402      24      24      24       0
   -------------------------------------------------------

  ==> Integral Setup <==

  ==> DiskDFJK: Density-Fitted J/K Matrices <==

    J tasked:                  Yes
    K tasked:                  Yes
    wK tasked:                  No
    OpenMP threads:              1
    Integrals threads:           1
    Memory [MiB]:            15735
    Algorithm:                Core
    Integral Cache:           SAVE
    Schwarz Cutoff:          1E-12
    Fitting Condition:       1E-10

   => Auxiliary Basis Set <=

  Basis Set: (JUN-CC-PVTZ AUX)
    Blend: JUN-CC-PVTZ-JKFIT
    Number of shells: 294
    Number of basis function: 930
    Number of Cartesian functions: 1116
    Spherical Harmonics?: true
    Max angular momentum: 4

  Minimum eigenvalue in the overlap matrix is 3.1648484539E-05.
  Using Symmetric Orthogonalization.

  SCF Guess: Superposition of Atomic Densities via on-the-fly atomic UHF.

  ==> Iterations <==

                           Total Energy        Delta E     RMS |[F,P]|

   @DF-RHF iter SAD:  -233.04693169934637   -2.33047e+02   0.00000e+00 
   @DF-RHF iter   1:  -233.95404007248493   -9.07108e-01   1.60500e-03 DIIS
   @DF-RHF iter   2:  -234.16995596286432   -2.15916e-01   6.97025e-04 DIIS
   @DF-RHF iter   3:  -234.21111305497371   -4.11571e-02   1.26858e-04 DIIS
   @DF-RHF iter   4:  -234.21393032997770   -2.81728e-03   2.46926e-05 DIIS
   @DF-RHF iter   5:  -234.21402515827248   -9.48283e-05   8.40251e-06 DIIS
   @DF-RHF iter   6:  -234.21403421858489   -9.06031e-06   2.11224e-06 DIIS
   @DF-RHF iter   7:  -234.21403524093307   -1.02235e-06   1.10163e-06 DIIS
   @DF-RHF iter   8:  -234.21403548038961   -2.39457e-07   3.44329e-07 DIIS
   @DF-RHF iter   9:  -234.21403551557088   -3.51813e-08   1.30775e-07 DIIS
   @DF-RHF iter  10:  -234.21403551973196   -4.16108e-09   2.70177e-08 DIIS
   @DF-RHF iter  11:  -234.21403551991540   -1.83434e-10   6.81343e-09 DIIS
  Energy and wave function converged.


  ==> Post-Iterations <==

    Orbital Energies [Eh]
    ---------------------

    Doubly Occupied:                                                      

       1A    -11.228056     2A    -11.228042     3A    -11.217317  
       4A    -11.217299     5A    -11.211789     6A    -11.211755  
       7A     -1.070093     8A     -1.055844     9A     -0.934549  
      10A     -0.926963    11A     -0.764714    12A     -0.747667  
      13A     -0.639778    14A     -0.638914    15A     -0.587076  
      16A     -0.585065    17A     -0.559704    18A     -0.559002  
      19A     -0.525699    20A     -0.515228    21A     -0.493562  
      22A     -0.487319    23A     -0.362771    24A     -0.342368  

    Virtual:                                                              

      25A      0.052862    26A      0.053416    27A      0.057558  
      28A      0.066248    29A      0.070710    30A      0.074578  
      31A      0.091953    32A      0.095751    33A      0.103261  
      34A      0.108481    35A      0.118073    36A      0.122900  
      37A      0.126618    38A      0.133663    39A      0.145650  
      40A      0.148861    41A      0.155440    42A      0.160421  
      43A      0.175380    44A      0.177566    45A      0.182993  
      46A      0.183746    47A      0.201189    48A      0.203826  
      49A      0.209051    50A      0.226471    51A      0.257057  
      52A      0.257604    53A      0.274741    54A      0.290049  
      55A      0.294696    56A      0.300213    57A      0.319748  
      58A      0.320795    59A      0.327987    60A      0.333283  
      61A      0.339072    62A      0.343008    63A      0.352203  
      64A      0.356789    65A      0.357525    66A      0.367681  
      67A      0.368965    68A      0.374496    69A      0.378021  
      70A      0.391818    71A      0.401778    72A      0.408967  
      73A      0.421877    74A      0.425788    75A      0.430891  
      76A      0.441932    77A      0.454167    78A      0.458634  
      79A      0.467154    80A      0.470314    81A      0.492455  
      82A      0.498183    83A      0.501458    84A      0.519235  
      85A      0.525776    86A      0.528544    87A      0.535102  
      88A      0.541504    89A      0.544322    90A      0.565223  
      91A      0.569954    92A      0.593136    93A      0.593961  
      94A      0.614735    95A      0.623573    96A      0.630296  
      97A      0.673198    98A      0.697608    99A      0.708600  
     100A      0.714497   101A      0.721074   102A      0.726574  
     103A      0.738571   104A      0.745114   105A      0.752045  
     106A      0.753249   107A      0.764863   108A      0.777091  
     109A      0.785179   110A      0.810941   111A      0.822260  
     112A      0.822453   113A      0.837331   114A      0.838306  
     115A      0.858489   116A      0.866394   117A      0.869576  
     118A      0.886699   119A      0.898827   120A      0.921404  
     121A      0.928239   122A      0.930246   123A      0.937979  
     124A      0.944326   125A      0.955664   126A      0.977348  
     127A      1.001459   128A      1.006925   129A      1.021835  
     130A      1.028198   131A      1.041560   132A      1.061744  
     133A      1.101269   134A      1.104394   135A      1.120392  
     136A      1.123196   137A      1.140321   138A      1.155077  
     139A      1.159504   140A      1.173162   141A      1.187756  
     142A      1.206274   143A      1.216810   144A      1.246382  
     145A      1.275629   146A      1.276642   147A      1.280041  
     148A      1.290483   149A      1.330989   150A      1.343051  
     151A      1.348494   152A      1.383932   153A      1.385939  
     154A      1.395047   155A      1.398345   156A      1.422586  
     157A      1.425467   158A      1.444445   159A      1.454113  
     160A      1.483396   161A      1.489404   162A      1.504228  
     163A      1.521577   164A      1.528872   165A      1.531264  
     166A      1.553830   167A      1.572716   168A      1.588152  
     169A      1.608450   170A      1.617103   171A      1.626753  
     172A      1.645651   173A      1.652290   174A      1.655621  
     175A      1.666378   176A      1.678301   177A      1.690467  
     178A      1.698203   179A      1.708790   180A      1.744422  
     181A      1.757270   182A      1.766366   183A      1.778787  
     184A      1.787924   185A      1.819778   186A      1.860473  
     187A      1.873485   188A      1.902507   189A      1.910171  
     190A      1.928876   191A      1.931148   192A      1.945454  
     193A      2.067977   194A      2.069221   195A      2.084961  
     196A      2.090083   197A      2.215505   198A      2.255403  
     199A      2.648095   200A      2.685663   201A      2.723506  
     202A      2.748914   203A      2.755701   204A      2.793547  
     205A      2.795019   206A      2.810619   207A      2.825439  
     208A      2.834775   209A      2.849493   210A      2.851919  
     211A      2.893679   212A      2.900887   213A      2.937386  
     214A      2.946608   215A      2.976420   216A      2.997115  
     217A      3.008095   218A      3.009428   219A      3.033627  
     220A      3.065630   221A      3.065701   222A      3.077039  
     223A      3.080862   224A      3.101098   225A      3.110835  
     226A      3.124435   227A      3.131841   228A      3.150798  
     229A      3.160785   230A      3.161111   231A      3.203806  
     232A      3.205675   233A      3.219393   234A      3.220940  
     235A      3.238776   236A      3.265447   237A      3.272762  
     238A      3.282000   239A      3.296933   240A      3.298121  
     241A      3.311001   242A      3.316537   243A      3.317014  
     244A      3.349048   245A      3.363744   246A      3.375482  
     247A      3.393163   248A      3.399735   249A      3.410707  
     250A      3.421349   251A      3.425105   252A      3.429346  
     253A      3.465451   254A      3.472626   255A      3.480914  
     256A      3.483062   257A      3.499487   258A      3.504978  
     259A      3.529175   260A      3.531079   261A      3.546693  
     262A      3.561247   263A      3.587199   264A      3.605876  
     265A      3.609105   266A      3.619669   267A      3.651581  
     268A      3.662201   269A      3.679587   270A      3.695677  
     271A      3.695998   272A      3.729089   273A      3.748100  
     274A      3.749944   275A      3.765827   276A      3.768883  
     277A      3.776705   278A      3.795972   279A      3.823292  
     280A      3.825141   281A      3.843986   282A      3.852485  
     283A      3.884830   284A      3.896607   285A      3.903715  
     286A      3.917118   287A      3.948055   288A      3.984990  
     289A      3.988922   290A      4.000498   291A      4.017481  
     292A      4.039824   293A      4.081235   294A      4.087666  
     295A      4.092564   296A      4.102883   297A      4.116536  
     298A      4.134316   299A      4.165746   300A      4.181788  
     301A      4.213439   302A      4.218382   303A      4.231849  
     304A      4.241579   305A      4.285484   306A      4.289488  
     307A      4.316363   308A      4.323191   309A      4.329654  
     310A      4.358607   311A      4.381135   312A      4.382994  
     313A      4.390882   314A      4.408511   315A      4.418475  
     316A      4.431649   317A      4.451271   318A      4.463213  
     319A      4.488301   320A      4.501490   321A      4.510957  
     322A      4.514374   323A      4.520717   324A      4.542525  
     325A      4.567951   326A      4.577835   327A      4.590602  
     328A      4.599859   329A      4.628247   330A      4.640810  
     331A      4.660681   332A      4.684048   333A      4.698571  
     334A      4.716796   335A      4.718350   336A      4.792014  
     337A      4.796716   338A      4.829582   339A      4.840387  
     340A      4.879534   341A      4.902828   342A      4.909212  
     343A      4.934578   344A      4.947340   345A      4.947738  
     346A      4.984311   347A      5.062130   348A      5.075140  
     349A      5.091278   350A      5.091502   351A      5.200040  
     352A      5.200890   353A      5.220372   354A      5.228588  
     355A      5.247145   356A      5.265811   357A      5.318301  
     358A      5.320371   359A      5.342927   360A      5.346636  
     361A      5.363604   362A      5.394517   363A      5.413103  
     364A      5.428183   365A      5.468248   366A      5.490255  
     367A      5.509974   368A      5.530200   369A      5.576136  
     370A      5.583221   371A      5.641648   372A      5.645066  
     373A      5.695183   374A      5.696238   375A      5.713799  
     376A      5.716998   377A      5.774259   378A      5.794848  
     379A      5.798383   380A      5.808308   381A      5.873051  
     382A      5.875943   383A      5.998501   384A      6.018866  
     385A      6.110611   386A      6.117547   387A      6.392766  
     388A      6.453979   389A      6.468007   390A      6.477735  
     391A      6.498555   392A      6.499835   393A      6.525077  
     394A      6.553594   395A      6.709888   396A      6.717203  
     397A     12.240797   398A     12.539621   399A     14.792744  
     400A     14.836511   401A     15.420703   402A     15.507055  

    Final Occupation by Irrep:
              A 
    DOCC [    24 ]

  @DF-RHF Final Energy:  -234.21403551991540

   => Energetics <=

    Nuclear Repulsion Energy =            226.4032518472427853
    One-Electron Energy =                -763.0134209969894528
    Two-Electron Energy =                 302.3961336298312403
    Total Energy =                       -234.2140355199153987

Computation Completed


Properties will be evaluated at   0.000000,   0.000000,   0.000000 [a0]

Properties computed using the SCF density matrix

  Nuclear Dipole Moment: [e a0]
     X:     0.0005      Y:    -0.0001      Z:     0.0001

  Electronic Dipole Moment: [e a0]
     X:    -0.0004      Y:     0.0000      Z:    -0.0001

  Dipole Moment: [e a0]
     X:     0.0002      Y:    -0.0001      Z:    -0.0000     Total:     0.0002

  Dipole Moment: [D]
     X:     0.0004      Y:    -0.0002      Z:    -0.0001     Total:     0.0005


*** tstop() called on r282 at Wed Sep 15 07:24:16 2021
Module time:
	user time   =      27.42 seconds =       0.46 minutes
	system time =       0.76 seconds =       0.01 minutes
	total time  =         29 seconds =       0.48 minutes
Total time:
	user time   =      27.42 seconds =       0.46 minutes
	system time =       0.76 seconds =       0.01 minutes
	total time  =         29 seconds =       0.48 minutes

  //>>>>>>>>>>>>>>>>>>>>>>>>>>>>>>>>>>>//
  //            Monomer A HF           //
  //<<<<<<<<<<<<<<<<<<<<<<<<<<<<<<<<<<<//


*** tstart() called on r282
*** at Wed Sep 15 07:24:16 2021

   => Loading Basis Set <=

    Name: JUN-CC-PVTZ
    Role: ORBITAL
    Keyword: BASIS
    atoms 1-3, 10-12 entry C          line   217 file /home/r08543048/miniconda3/share/psi4/basis/jun-cc-pvtz.gbs 
    atoms 4-9, 13-18 entry H          line    36 file /home/r08543048/miniconda3/share/psi4/basis/jun-cc-pvtz.gbs 


         ---------------------------------------------------------
                                   SCF
               by Justin Turney, Rob Parrish, Andy Simmonett
                          and Daniel G. A. Smith
                              RHF Reference
                        1 Threads,  20980 MiB Core
         ---------------------------------------------------------

  ==> Geometry <==

    Molecular point group: c1
    Full point group: C1

    Geometry (in Angstrom), charge = 0, multiplicity = 1:

       Center              X                  Y                   Z               Mass       
    ------------   -----------------  -----------------  -----------------  -----------------
         C           -1.041582599938     1.059213217352    -0.207027322111    12.000000000000
         C           -1.938839599938     0.209522217352     0.300013677889    12.000000000000
         C           -2.050825599938    -1.229561782648    -0.090140322111    12.000000000000
         H           -1.007064599938     2.093256217352     0.107043677889     1.007825032230
         H           -0.322277599938     0.731287217352    -0.946907322111     1.007825032230
         H           -2.640077599938     0.573471217352     1.044189677889     1.007825032230
         H           -3.038587599938    -1.444889782648    -0.500784322111     1.007825032230
         H           -1.300239599938    -1.490479782648    -0.834833322111     1.007825032230
         H           -1.917199599938    -1.880942782648     0.775533677889     1.007825032230
      Gh(C)           1.041758020062    -1.059232482648     0.207556397889    12.000000000000
      Gh(C)           1.938412020062    -0.209449482648    -0.300396602111    12.000000000000
      Gh(C)           2.051031020062     1.229517517352     0.089985397889    12.000000000000
      Gh(H)           1.006762020062    -2.093170482648    -0.106804602111     1.007825032230
      Gh(H)           0.323446020062    -0.731512482648     0.948491397889     1.007825032230
      Gh(H)           2.638640020062    -0.573241482648    -1.045603602111     1.007825032230
      Gh(H)           1.916284020062     1.881146517352    -0.775332602111     1.007825032230
      Gh(H)           1.301496020062     1.490316517352     0.835780397889     1.007825032230
      Gh(H)           3.039375020062     1.444649517352     0.499331397889     1.007825032230

  Running in c1 symmetry.

  Rotational constants: A =      0.18015  B =      0.06002  C =      0.04765 [cm^-1]
  Rotational constants: A =   5400.89670  B =   1799.40214  C =   1428.43565 [MHz]
  Nuclear repulsion =   70.871491972997745

  Charge       = 0
  Multiplicity = 1
  Electrons    = 24
  Nalpha       = 12
  Nbeta        = 12

  ==> Algorithm <==

  SCF Algorithm Type is DF.
  DIIS enabled.
  MOM disabled.
  Fractional occupation disabled.
  Guess Type is SAD.
  Energy threshold   = 1.00e-08
  Density threshold  = 1.00e-08
  Integral threshold = 0.00e+00

  ==> Primary Basis <==

  Basis Set: JUN-CC-PVTZ
    Blend: JUN-CC-PVTZ
    Number of shells: 150
    Number of basis function: 402
    Number of Cartesian functions: 450
    Spherical Harmonics?: true
    Max angular momentum: 3

   => Loading Basis Set <=

    Name: (JUN-CC-PVTZ AUX)
    Role: JKFIT
    Keyword: DF_BASIS_SCF
    atoms 1-3, 10-12 entry C          line   152 file /home/r08543048/miniconda3/share/psi4/basis/jun-cc-pvtz-jkfit.gbs 
    atoms 4-9, 13-18 entry H          line    70 file /home/r08543048/miniconda3/share/psi4/basis/jun-cc-pvtz-jkfit.gbs 

  ==> Pre-Iterations <==

   -------------------------------------------------------
    Irrep   Nso     Nmo     Nalpha   Nbeta   Ndocc  Nsocc
   -------------------------------------------------------
     A        402     402       0       0       0       0
   -------------------------------------------------------
    Total     402     402      12      12      12       0
   -------------------------------------------------------

  ==> Integral Setup <==

  ==> DiskDFJK: Density-Fitted J/K Matrices <==

    J tasked:                  Yes
    K tasked:                  Yes
    wK tasked:                  No
    OpenMP threads:              1
    Integrals threads:           1
    Memory [MiB]:            15735
    Algorithm:                Core
    Integral Cache:           LOAD
    Schwarz Cutoff:          1E-12
    Fitting Condition:       1E-10

   => Auxiliary Basis Set <=

  Basis Set: (JUN-CC-PVTZ AUX)
    Blend: JUN-CC-PVTZ-JKFIT
    Number of shells: 294
    Number of basis function: 930
    Number of Cartesian functions: 1116
    Spherical Harmonics?: true
    Max angular momentum: 4

  Minimum eigenvalue in the overlap matrix is 3.1648484539E-05.
  Using Symmetric Orthogonalization.

  SCF Guess: Superposition of Atomic Densities via on-the-fly atomic UHF.

  ==> Iterations <==

                           Total Energy        Delta E     RMS |[F,P]|

   @DF-RHF iter SAD:  -116.33324661330346   -1.16333e+02   0.00000e+00 
   @DF-RHF iter   1:  -116.98775345651846   -6.54507e-01   1.14078e-03 DIIS
   @DF-RHF iter   2:  -117.09542097424675   -1.07668e-01   4.90004e-04 DIIS
   @DF-RHF iter   3:  -117.11554045706715   -2.01195e-02   8.80249e-05 DIIS
   @DF-RHF iter   4:  -117.11683508563326   -1.29463e-03   2.64940e-05 DIIS
   @DF-RHF iter   5:  -117.11690900564827   -7.39200e-05   7.12939e-06 DIIS
   @DF-RHF iter   6:  -117.11691522494830   -6.21930e-06   1.28505e-06 DIIS
   @DF-RHF iter   7:  -117.11691553393341   -3.08985e-07   4.72084e-07 DIIS
   @DF-RHF iter   8:  -117.11691557472109   -4.07877e-08   1.63441e-07 DIIS
   @DF-RHF iter   9:  -117.11691558056725   -5.84616e-09   5.94501e-08 DIIS
   @DF-RHF iter  10:  -117.11691558150912   -9.41867e-10   1.34997e-08 DIIS
   @DF-RHF iter  11:  -117.11691558155518   -4.60574e-11   2.38761e-09 DIIS
  Energy and wave function converged.


  ==> Post-Iterations <==

    Orbital Energies [Eh]
    ---------------------

    Doubly Occupied:                                                      

       1A    -11.234382     2A    -11.220806     3A    -11.217521  
       4A     -1.064920     5A     -0.932779     6A     -0.758079  
       7A     -0.640048     8A     -0.582600     9A     -0.568353  
      10A     -0.523389    11A     -0.493135    12A     -0.358001  

    Virtual:                                                              

      13A      0.037677    14A      0.048634    15A      0.055131  
      16A      0.060981    17A      0.068859    18A      0.072608  
      19A      0.088785    20A      0.097569    21A      0.098415  
      22A      0.106441    23A      0.111555    24A      0.119131  
      25A      0.123723    26A      0.129422    27A      0.134642  
      28A      0.146526    29A      0.150874    30A      0.156107  
      31A      0.159190    32A      0.169703    33A      0.173680  
      34A      0.178973    35A      0.184433    36A      0.205143  
      37A      0.214214    38A      0.241877    39A      0.250303  
      40A      0.264174    41A      0.272720    42A      0.276970  
      43A      0.289304    44A      0.296274    45A      0.306170  
      46A      0.319562    47A      0.325965    48A      0.328636  
      49A      0.340413    50A      0.342163    51A      0.349499  
      52A      0.357252    53A      0.366160    54A      0.375688  
      55A      0.377001    56A      0.382672    57A      0.388960  
      58A      0.393367    59A      0.404789    60A      0.415579  
      61A      0.419025    62A      0.428073    63A      0.436973  
      64A      0.449948    65A      0.456009    66A      0.469796  
      67A      0.475221    68A      0.484176    69A      0.495923  
      70A      0.501479    71A      0.510419    72A      0.516566  
      73A      0.524509    74A      0.534594    75A      0.543809  
      76A      0.556235    77A      0.567520    78A      0.574450  
      79A      0.585040    80A      0.591093    81A      0.601144  
      82A      0.612074    83A      0.627319    84A      0.637841  
      85A      0.643468    86A      0.648845    87A      0.660076  
      88A      0.685418    89A      0.693653    90A      0.702939  
      91A      0.724541    92A      0.727480    93A      0.746849  
      94A      0.757821    95A      0.769771    96A      0.783465  
      97A      0.799000    98A      0.806136    99A      0.814000  
     100A      0.827820   101A      0.846033   102A      0.853890  
     103A      0.867472   104A      0.889282   105A      0.899263  
     106A      0.926855   107A      0.933247   108A      0.950446  
     109A      0.968359   110A      1.001015   111A      1.013393  
     112A      1.054773   113A      1.074330   114A      1.090347  
     115A      1.106241   116A      1.111435   117A      1.134324  
     118A      1.135542   119A      1.138013   120A      1.165746  
     121A      1.184476   122A      1.195111   123A      1.204617  
     124A      1.210952   125A      1.218175   126A      1.231779  
     127A      1.240248   128A      1.260321   129A      1.276022  
     130A      1.294974   131A      1.306258   132A      1.310497  
     133A      1.330528   134A      1.334267   135A      1.341625  
     136A      1.347225   137A      1.355870   138A      1.363231  
     139A      1.382077   140A      1.394801   141A      1.410744  
     142A      1.417767   143A      1.427098   144A      1.447193  
     145A      1.451862   146A      1.478148   147A      1.496032  
     148A      1.507462   149A      1.513248   150A      1.519088  
     151A      1.532191   152A      1.543449   153A      1.558522  
     154A      1.566565   155A      1.588447   156A      1.600497  
     157A      1.611433   158A      1.617935   159A      1.635532  
     160A      1.642640   161A      1.648441   162A      1.668392  
     163A      1.676230   164A      1.697714   165A      1.719519  
     166A      1.740475   167A      1.751372   168A      1.764225  
     169A      1.780859   170A      1.798636   171A      1.810436  
     172A      1.820247   173A      1.831639   174A      1.866205  
     175A      1.896157   176A      1.902239   177A      1.943820  
     178A      1.982091   179A      2.021329   180A      2.043378  
     181A      2.064693   182A      2.082209   183A      2.096688  
     184A      2.152946   185A      2.159405   186A      2.231091  
     187A      2.252544   188A      2.281107   189A      2.366547  
     190A      2.376210   191A      2.465955   192A      2.534859  
     193A      2.552891   194A      2.660758   195A      2.699392  
     196A      2.752865   197A      2.789851   198A      2.828584  
     199A      2.867686   200A      2.881495   201A      2.906647  
     202A      2.930608   203A      2.948933   204A      2.975019  
     205A      3.031405   206A      3.073193   207A      3.079021  
     208A      3.098849   209A      3.111305   210A      3.133069  
     211A      3.179427   212A      3.185683   213A      3.227903  
     214A      3.258721   215A      3.276834   216A      3.294577  
     217A      3.303378   218A      3.326398   219A      3.339722  
     220A      3.355036   221A      3.395209   222A      3.409499  
     223A      3.429931   224A      3.442995   225A      3.465305  
     226A      3.472393   227A      3.496940   228A      3.509525  
     229A      3.528568   230A      3.557255   231A      3.564925  
     232A      3.582581   233A      3.609567   234A      3.616602  
     235A      3.618163   236A      3.633380   237A      3.656361  
     238A      3.669981   239A      3.679541   240A      3.688469  
     241A      3.731501   242A      3.739971   243A      3.747973  
     244A      3.754282   245A      3.774412   246A      3.782085  
     247A      3.799332   248A      3.805496   249A      3.811349  
     250A      3.835267   251A      3.842975   252A      3.860990  
     253A      3.882931   254A      3.892276   255A      3.918465  
     256A      3.940114   257A      3.959196   258A      3.978858  
     259A      4.006416   260A      4.012050   261A      4.050903  
     262A      4.060437   263A      4.075890   264A      4.087391  
     265A      4.113633   266A      4.127718   267A      4.130521  
     268A      4.149405   269A      4.161135   270A      4.192544  
     271A      4.206708   272A      4.213534   273A      4.230293  
     274A      4.237014   275A      4.262104   276A      4.280389  
     277A      4.289904   278A      4.311925   279A      4.313175  
     280A      4.342802   281A      4.360654   282A      4.377582  
     283A      4.385369   284A      4.408514   285A      4.420194  
     286A      4.426794   287A      4.457317   288A      4.479799  
     289A      4.486959   290A      4.496863   291A      4.503820  
     292A      4.510526   293A      4.519469   294A      4.535784  
     295A      4.542127   296A      4.580482   297A      4.583189  
     298A      4.600208   299A      4.619352   300A      4.628638  
     301A      4.641430   302A      4.647077   303A      4.692919  
     304A      4.699779   305A      4.703964   306A      4.723401  
     307A      4.740355   308A      4.761038   309A      4.787061  
     310A      4.796601   311A      4.802098   312A      4.816685  
     313A      4.825231   314A      4.839463   315A      4.850616  
     316A      4.868053   317A      4.897009   318A      4.919192  
     319A      4.930677   320A      4.938561   321A      4.946538  
     322A      4.973844   323A      4.992373   324A      5.007533  
     325A      5.016616   326A      5.032617   327A      5.058180  
     328A      5.072861   329A      5.095773   330A      5.112832  
     331A      5.115790   332A      5.173167   333A      5.196017  
     334A      5.197899   335A      5.215308   336A      5.242101  
     337A      5.259616   338A      5.295485   339A      5.332096  
     340A      5.350002   341A      5.369890   342A      5.385009  
     343A      5.411252   344A      5.433669   345A      5.483415  
     346A      5.496493   347A      5.532492   348A      5.544814  
     349A      5.567671   350A      5.577002   351A      5.612198  
     352A      5.643095   353A      5.690581   354A      5.701342  
     355A      5.728315   356A      5.789477   357A      5.793958  
     358A      5.820928   359A      5.858432   360A      5.885065  
     361A      5.906992   362A      5.996975   363A      6.033226  
     364A      6.046545   365A      6.107150   366A      6.148228  
     367A      6.162814   368A      6.253319   369A      6.278200  
     370A      6.367699   371A      6.395876   372A      6.436792  
     373A      6.444948   374A      6.467951   375A      6.505020  
     376A      6.531563   377A      6.653993   378A      6.707583  
     379A      6.742086   380A      6.816762   381A      6.894179  
     382A      7.112744   383A      7.411269   384A      7.458648  
     385A      7.596094   386A      7.618381   387A      7.668845  
     388A      7.823518   389A      7.929595   390A      7.996102  
     391A      8.133100   392A      8.300909   393A      8.766580  
     394A      9.453848   395A      9.987316   396A     10.241128  
     397A     12.401722   398A     14.814002   399A     15.451692  
     400A     41.148893   401A     46.120706   402A     47.384214  

    Final Occupation by Irrep:
              A 
    DOCC [    12 ]

  @DF-RHF Final Energy:  -117.11691558155518

   => Energetics <=

    Nuclear Repulsion Energy =             70.8714919729977453
    One-Electron Energy =                -296.7887885679983242
    Two-Electron Energy =                 108.8003810134454028
    Total Energy =                       -117.1169155815551761

Computation Completed


Properties will be evaluated at   0.000000,   0.000000,   0.000000 [a0]

Properties computed using the SCF density matrix

  Nuclear Dipole Moment: [e a0]
     X:   -76.3694      Y:    -2.2360      Z:    -0.6400

  Electronic Dipole Moment: [e a0]
     X:    76.2866      Y:     2.0936      Z:     0.6654

  Dipole Moment: [e a0]
     X:    -0.0827      Y:    -0.1424      Z:     0.0254     Total:     0.1667

  Dipole Moment: [D]
     X:    -0.2103      Y:    -0.3620      Z:     0.0644     Total:     0.4236


*** tstop() called on r282 at Wed Sep 15 07:24:30 2021
Module time:
	user time   =      13.91 seconds =       0.23 minutes
	system time =       0.29 seconds =       0.00 minutes
	total time  =         14 seconds =       0.23 minutes
Total time:
	user time   =      41.33 seconds =       0.69 minutes
	system time =       1.06 seconds =       0.02 minutes
	total time  =         43 seconds =       0.72 minutes

  //>>>>>>>>>>>>>>>>>>>>>>>>>>>>>>>>>>>//
  //            Monomer B HF           //
  //<<<<<<<<<<<<<<<<<<<<<<<<<<<<<<<<<<<//


*** tstart() called on r282
*** at Wed Sep 15 07:24:30 2021

   => Loading Basis Set <=

    Name: JUN-CC-PVTZ
    Role: ORBITAL
    Keyword: BASIS
    atoms 1-3, 10-12 entry C          line   217 file /home/r08543048/miniconda3/share/psi4/basis/jun-cc-pvtz.gbs 
    atoms 4-9, 13-18 entry H          line    36 file /home/r08543048/miniconda3/share/psi4/basis/jun-cc-pvtz.gbs 


         ---------------------------------------------------------
                                   SCF
               by Justin Turney, Rob Parrish, Andy Simmonett
                          and Daniel G. A. Smith
                              RHF Reference
                        1 Threads,  20980 MiB Core
         ---------------------------------------------------------

  ==> Geometry <==

    Molecular point group: c1
    Full point group: C1

    Geometry (in Angstrom), charge = 0, multiplicity = 1:

       Center              X                  Y                   Z               Mass       
    ------------   -----------------  -----------------  -----------------  -----------------
      Gh(C)          -1.041582599938     1.059213217352    -0.207027322111    12.000000000000
      Gh(C)          -1.938839599938     0.209522217352     0.300013677889    12.000000000000
      Gh(C)          -2.050825599938    -1.229561782648    -0.090140322111    12.000000000000
      Gh(H)          -1.007064599938     2.093256217352     0.107043677889     1.007825032230
      Gh(H)          -0.322277599938     0.731287217352    -0.946907322111     1.007825032230
      Gh(H)          -2.640077599938     0.573471217352     1.044189677889     1.007825032230
      Gh(H)          -3.038587599938    -1.444889782648    -0.500784322111     1.007825032230
      Gh(H)          -1.300239599938    -1.490479782648    -0.834833322111     1.007825032230
      Gh(H)          -1.917199599938    -1.880942782648     0.775533677889     1.007825032230
         C            1.041758020062    -1.059232482648     0.207556397889    12.000000000000
         C            1.938412020062    -0.209449482648    -0.300396602111    12.000000000000
         C            2.051031020062     1.229517517352     0.089985397889    12.000000000000
         H            1.006762020062    -2.093170482648    -0.106804602111     1.007825032230
         H            0.323446020062    -0.731512482648     0.948491397889     1.007825032230
         H            2.638640020062    -0.573241482648    -1.045603602111     1.007825032230
         H            1.916284020062     1.881146517352    -0.775332602111     1.007825032230
         H            1.301496020062     1.490316517352     0.835780397889     1.007825032230
         H            3.039375020062     1.444649517352     0.499331397889     1.007825032230

  Running in c1 symmetry.

  Rotational constants: A =      0.18015  B =      0.06002  C =      0.04765 [cm^-1]
  Rotational constants: A =   5400.89670  B =   1799.40214  C =   1428.43565 [MHz]
  Nuclear repulsion =   70.871383723929796

  Charge       = 0
  Multiplicity = 1
  Electrons    = 24
  Nalpha       = 12
  Nbeta        = 12

  ==> Algorithm <==

  SCF Algorithm Type is DF.
  DIIS enabled.
  MOM disabled.
  Fractional occupation disabled.
  Guess Type is SAD.
  Energy threshold   = 1.00e-08
  Density threshold  = 1.00e-08
  Integral threshold = 0.00e+00

  ==> Primary Basis <==

  Basis Set: JUN-CC-PVTZ
    Blend: JUN-CC-PVTZ
    Number of shells: 150
    Number of basis function: 402
    Number of Cartesian functions: 450
    Spherical Harmonics?: true
    Max angular momentum: 3

   => Loading Basis Set <=

    Name: (JUN-CC-PVTZ AUX)
    Role: JKFIT
    Keyword: DF_BASIS_SCF
    atoms 1-3, 10-12 entry C          line   152 file /home/r08543048/miniconda3/share/psi4/basis/jun-cc-pvtz-jkfit.gbs 
    atoms 4-9, 13-18 entry H          line    70 file /home/r08543048/miniconda3/share/psi4/basis/jun-cc-pvtz-jkfit.gbs 

  ==> Pre-Iterations <==

   -------------------------------------------------------
    Irrep   Nso     Nmo     Nalpha   Nbeta   Ndocc  Nsocc
   -------------------------------------------------------
     A        402     402       0       0       0       0
   -------------------------------------------------------
    Total     402     402      12      12      12       0
   -------------------------------------------------------

  ==> Integral Setup <==

  ==> DiskDFJK: Density-Fitted J/K Matrices <==

    J tasked:                  Yes
    K tasked:                  Yes
    wK tasked:                  No
    OpenMP threads:              1
    Integrals threads:           1
    Memory [MiB]:            15735
    Algorithm:                Core
    Integral Cache:           LOAD
    Schwarz Cutoff:          1E-12
    Fitting Condition:       1E-10

   => Auxiliary Basis Set <=

  Basis Set: (JUN-CC-PVTZ AUX)
    Blend: JUN-CC-PVTZ-JKFIT
    Number of shells: 294
    Number of basis function: 930
    Number of Cartesian functions: 1116
    Spherical Harmonics?: true
    Max angular momentum: 4

  Minimum eigenvalue in the overlap matrix is 3.1648484539E-05.
  Using Symmetric Orthogonalization.

  SCF Guess: Superposition of Atomic Densities via on-the-fly atomic UHF.

  ==> Iterations <==

                           Total Energy        Delta E     RMS |[F,P]|

   @DF-RHF iter SAD:  -116.33324227970245   -1.16333e+02   0.00000e+00 
   @DF-RHF iter   1:  -116.98775361644317   -6.54511e-01   1.14078e-03 DIIS
   @DF-RHF iter   2:  -117.09542128845487   -1.07668e-01   4.90004e-04 DIIS
   @DF-RHF iter   3:  -117.11554080549567   -2.01195e-02   8.80254e-05 DIIS
   @DF-RHF iter   4:  -117.11683544488695   -1.29464e-03   2.64948e-05 DIIS
   @DF-RHF iter   5:  -117.11690936894584   -7.39241e-05   7.12940e-06 DIIS
   @DF-RHF iter   6:  -117.11691558836243   -6.21942e-06   1.28507e-06 DIIS
   @DF-RHF iter   7:  -117.11691589735815   -3.08996e-07   4.72100e-07 DIIS
   @DF-RHF iter   8:  -117.11691593814643   -4.07883e-08   1.63447e-07 DIIS
   @DF-RHF iter   9:  -117.11691594399406   -5.84762e-09   5.94513e-08 DIIS
   @DF-RHF iter  10:  -117.11691594493675   -9.42691e-10   1.34997e-08 DIIS
   @DF-RHF iter  11:  -117.11691594498014   -4.33857e-11   2.38757e-09 DIIS
  Energy and wave function converged.


  ==> Post-Iterations <==

    Orbital Energies [Eh]
    ---------------------

    Doubly Occupied:                                                      

       1A    -11.234383     2A    -11.220807     3A    -11.217521  
       4A     -1.064919     5A     -0.932781     6A     -0.758078  
       7A     -0.640047     8A     -0.582604     9A     -0.568352  
      10A     -0.523389    11A     -0.493134    12A     -0.358001  

    Virtual:                                                              

      13A      0.037682    14A      0.048636    15A      0.055128  
      16A      0.060982    17A      0.068861    18A      0.072605  
      19A      0.088781    20A      0.097571    21A      0.098403  
      22A      0.106439    23A      0.111563    24A      0.119133  
      25A      0.123714    26A      0.129428    27A      0.134644  
      28A      0.146528    29A      0.150881    30A      0.156107  
      31A      0.159188    32A      0.169699    33A      0.173684  
      34A      0.178989    35A      0.184425    36A      0.205156  
      37A      0.214209    38A      0.241870    39A      0.250300  
      40A      0.264183    41A      0.272725    42A      0.276978  
      43A      0.289309    44A      0.296270    45A      0.306211  
      46A      0.319603    47A      0.325998    48A      0.328652  
      49A      0.340436    50A      0.342158    51A      0.349467  
      52A      0.357228    53A      0.366133    54A      0.375616  
      55A      0.376981    56A      0.382628    57A      0.388949  
      58A      0.393371    59A      0.404814    60A      0.415553  
      61A      0.419032    62A      0.428060    63A      0.436925  
      64A      0.449999    65A      0.455999    66A      0.469786  
      67A      0.475251    68A      0.484201    69A      0.495870  
      70A      0.501559    71A      0.510443    72A      0.516569  
      73A      0.524499    74A      0.534550    75A      0.543838  
      76A      0.556249    77A      0.567547    78A      0.574461  
      79A      0.585016    80A      0.591132    81A      0.601166  
      82A      0.612076    83A      0.627325    84A      0.637868  
      85A      0.643440    86A      0.648802    87A      0.660077  
      88A      0.685411    89A      0.693589    90A      0.703013  
      91A      0.724515    92A      0.727496    93A      0.746893  
      94A      0.757838    95A      0.769776    96A      0.783470  
      97A      0.799019    98A      0.806170    99A      0.813991  
     100A      0.827819   101A      0.846043   102A      0.853936  
     103A      0.867473   104A      0.889264   105A      0.899282  
     106A      0.926920   107A      0.933249   108A      0.950456  
     109A      0.968312   110A      1.001003   111A      1.013406  
     112A      1.054888   113A      1.074262   114A      1.090385  
     115A      1.106187   116A      1.111449   117A      1.134243  
     118A      1.135535   119A      1.138041   120A      1.165854  
     121A      1.184558   122A      1.195056   123A      1.204724  
     124A      1.211013   125A      1.218149   126A      1.231807  
     127A      1.240248   128A      1.260382   129A      1.276019  
     130A      1.294887   131A      1.306172   132A      1.310509  
     133A      1.330538   134A      1.334232   135A      1.341637  
     136A      1.347196   137A      1.355812   138A      1.363291  
     139A      1.382082   140A      1.394843   141A      1.410777  
     142A      1.417745   143A      1.426987   144A      1.447265  
     145A      1.451915   146A      1.478035   147A      1.496052  
     148A      1.507375   149A      1.513306   150A      1.519195  
     151A      1.532180   152A      1.543494   153A      1.558443  
     154A      1.566579   155A      1.588399   156A      1.600473  
     157A      1.611535   158A      1.617889   159A      1.635667  
     160A      1.642747   161A      1.648532   162A      1.668343  
     163A      1.676138   164A      1.697487   165A      1.719621  
     166A      1.740401   167A      1.751458   168A      1.764243  
     169A      1.780750   170A      1.798624   171A      1.810497  
     172A      1.820370   173A      1.831485   174A      1.866367  
     175A      1.896131   176A      1.902260   177A      1.943744  
     178A      1.981868   179A      2.021350   180A      2.043303  
     181A      2.064668   182A      2.082251   183A      2.096551  
     184A      2.152911   185A      2.159393   186A      2.231137  
     187A      2.252542   188A      2.281134   189A      2.366503  
     190A      2.376240   191A      2.465957   192A      2.534891  
     193A      2.552904   194A      2.660771   195A      2.699483  
     196A      2.752886   197A      2.789857   198A      2.828598  
     199A      2.867695   200A      2.881458   201A      2.906677  
     202A      2.930690   203A      2.949036   204A      2.975440  
     205A      3.031419   206A      3.073328   207A      3.079182  
     208A      3.099019   209A      3.111393   210A      3.133222  
     211A      3.179391   212A      3.185736   213A      3.227996  
     214A      3.258830   215A      3.276899   216A      3.294570  
     217A      3.303410   218A      3.326371   219A      3.339700  
     220A      3.355105   221A      3.395206   222A      3.409472  
     223A      3.429884   224A      3.442922   225A      3.465294  
     226A      3.472377   227A      3.496939   228A      3.509494  
     229A      3.528622   230A      3.557338   231A      3.564966  
     232A      3.582527   233A      3.609650   234A      3.616631  
     235A      3.618138   236A      3.633253   237A      3.656459  
     238A      3.669970   239A      3.679421   240A      3.688441  
     241A      3.731309   242A      3.740011   243A      3.748021  
     244A      3.754302   245A      3.774481   246A      3.782044  
     247A      3.799417   248A      3.805414   249A      3.811402  
     250A      3.835266   251A      3.842971   252A      3.861007  
     253A      3.882940   254A      3.892291   255A      3.918529  
     256A      3.940196   257A      3.959174   258A      3.978841  
     259A      4.006529   260A      4.012188   261A      4.050926  
     262A      4.060421   263A      4.075925   264A      4.087435  
     265A      4.113682   266A      4.127777   267A      4.130501  
     268A      4.149524   269A      4.161248   270A      4.192527  
     271A      4.206731   272A      4.213422   273A      4.230196  
     274A      4.236979   275A      4.262032   276A      4.280418  
     277A      4.289768   278A      4.311939   279A      4.313202  
     280A      4.342705   281A      4.360592   282A      4.377540  
     283A      4.385442   284A      4.408602   285A      4.420210  
     286A      4.426870   287A      4.457332   288A      4.479708  
     289A      4.487026   290A      4.496924   291A      4.503677  
     292A      4.510477   293A      4.519416   294A      4.535677  
     295A      4.542145   296A      4.580388   297A      4.583153  
     298A      4.600142   299A      4.619400   300A      4.628614  
     301A      4.641430   302A      4.647218   303A      4.692925  
     304A      4.699704   305A      4.703883   306A      4.723343  
     307A      4.740361   308A      4.761202   309A      4.786895  
     310A      4.796565   311A      4.802010   312A      4.816732  
     313A      4.825166   314A      4.839485   315A      4.850550  
     316A      4.867850   317A      4.897081   318A      4.919020  
     319A      4.930668   320A      4.938490   321A      4.946645  
     322A      4.973823   323A      4.992364   324A      5.007625  
     325A      5.016557   326A      5.032880   327A      5.058142  
     328A      5.072933   329A      5.095811   330A      5.112765  
     331A      5.115865   332A      5.173284   333A      5.196087  
     334A      5.197985   335A      5.215306   336A      5.242036  
     337A      5.259804   338A      5.295447   339A      5.332049  
     340A      5.350003   341A      5.369912   342A      5.385034  
     343A      5.411311   344A      5.433649   345A      5.483439  
     346A      5.496568   347A      5.532534   348A      5.544866  
     349A      5.567643   350A      5.576986   351A      5.611925  
     352A      5.643211   353A      5.690563   354A      5.701332  
     355A      5.728236   356A      5.789464   357A      5.793975  
     358A      5.820892   359A      5.858387   360A      5.885098  
     361A      5.906976   362A      5.997007   363A      6.033195  
     364A      6.046575   365A      6.107203   366A      6.148305  
     367A      6.162823   368A      6.253335   369A      6.278171  
     370A      6.367691   371A      6.395844   372A      6.436617  
     373A      6.444957   374A      6.467871   375A      6.505011  
     376A      6.531542   377A      6.654056   378A      6.707639  
     379A      6.742073   380A      6.816671   381A      6.894125  
     382A      7.112721   383A      7.411289   384A      7.458698  
     385A      7.596056   386A      7.618314   387A      7.668806  
     388A      7.823541   389A      7.929579   390A      7.996128  
     391A      8.133062   392A      8.300874   393A      8.766573  
     394A      9.453877   395A      9.986955   396A     10.241079  
     397A     12.402518   398A     14.814422   399A     15.451895  
     400A     41.146718   401A     46.120372   402A     47.383919  

    Final Occupation by Irrep:
              A 
    DOCC [    12 ]

  @DF-RHF Final Energy:  -117.11691594498014

   => Energetics <=

    Nuclear Repulsion Energy =             70.8713837239297959
    One-Electron Energy =                -296.7885703359916647
    Two-Electron Energy =                 108.8002706670817332
    Total Energy =                       -117.1169159449801356

Computation Completed


Properties will be evaluated at   0.000000,   0.000000,   0.000000 [a0]

Properties computed using the SCF density matrix

  Nuclear Dipole Moment: [e a0]
     X:    76.3699      Y:     2.2359      Z:     0.6401

  Electronic Dipole Moment: [e a0]
     X:   -76.2872      Y:    -2.0935      Z:    -0.6655

  Dipole Moment: [e a0]
     X:     0.0827      Y:     0.1424      Z:    -0.0254     Total:     0.1667

  Dipole Moment: [D]
     X:     0.2102      Y:     0.3621      Z:    -0.0646     Total:     0.4236


*** tstop() called on r282 at Wed Sep 15 07:24:45 2021
Module time:
	user time   =      14.40 seconds =       0.24 minutes
	system time =       0.35 seconds =       0.01 minutes
	total time  =         15 seconds =       0.25 minutes
Total time:
	user time   =      55.73 seconds =       0.93 minutes
	system time =       1.41 seconds =       0.02 minutes
	total time  =         58 seconds =       0.97 minutes
  Constructing Basis Sets for SAPT...

   => Loading Basis Set <=

    Name: (JUN-CC-PVTZ AUX)
    Role: RIFIT
    Keyword: DF_BASIS_SAPT
    atoms 1-3, 10-12 entry C          line   132 file /home/r08543048/miniconda3/share/psi4/basis/jun-cc-pvtz-ri.gbs 
    atoms 4-9, 13-18 entry H          line    30 file /home/r08543048/miniconda3/share/psi4/basis/jun-cc-pvtz-ri.gbs 


  //>>>>>>>>>>>>>>>>>>>>>>>>>>>>>>>>>>>//
  //               SAPT0               //
  //<<<<<<<<<<<<<<<<<<<<<<<<<<<<<<<<<<<//


*** tstart() called on r282
*** at Wed Sep 15 07:24:45 2021

        SAPT0  
    Ed Hohenstein
     6 June 2009

      Orbital Information
  --------------------------
    NSO        =       402
    NMO        =       402
    NRI        =       942
    NOCC A     =        12
    NOCC B     =        12
    FOCC A     =         0
    FOCC B     =         0
    NVIR A     =       390
    NVIR B     =       390

    Elst10,r            =    -0.014647136598 [Eh]
    Exch10              =     0.037837046866 [Eh]
    Exch10 (S^2)        =     0.037161406860 [Eh]

    Iter     Energy [mEh]          dE [mEh]         Residual      Time [s]
       1      -5.13347044       5.133470436      11.130182359             0
       2      -6.51426684       1.380796407       3.662167923             1
       3      -6.59268376       0.078416918       1.000064017             1
       4      -6.55416528      -0.038518482       0.276525544             2
       5      -6.55426569       0.000100412       0.084209082             2
       6      -6.55614513       0.001879435       0.034723787             3
       7      -6.55622423       0.000079103       0.011682665             3
       8      -6.55599151      -0.000232718       0.002904573             4
       9      -6.55601375       0.000022234       0.000877531             4
      10      -6.55602321       0.000009462       0.000205251             4
      11      -6.55602102      -0.000002186       0.000040221             5
      12      -6.55602100      -0.000000025       0.000010144             5
      13      -6.55602108       0.000000089       0.000002010             6
      14      -6.55602107      -0.000000012       0.000000359             6

    CHF Iterations converged


    Iter     Energy [mEh]          dE [mEh]         Residual      Time [s]
       1      -5.13478379       5.134783786      11.134166169             1
       2      -6.51700330       1.382219510       3.663755006             1
       3      -6.59532738       0.078324087       1.001016917             2
       4      -6.55678194      -0.038545447       0.276727040             2
       5      -6.55687417       0.000092234       0.084229655             3
       6      -6.55875482       0.001880646       0.034741474             3
       7      -6.55883477       0.000079956       0.011687141             3
       8      -6.55860174      -0.000233034       0.002904536             4
       9      -6.55862402       0.000022283       0.000877432             4
      10      -6.55863347       0.000009449       0.000205347             5
      11      -6.55863128      -0.000002188       0.000040218             5
      12      -6.55863126      -0.000000024       0.000010135             6
      13      -6.55863135       0.000000088       0.000002007             6
      14      -6.55863134      -0.000000012       0.000000357             7

    CHF Iterations converged

    Ind20,r (A<-B)      =    -0.006556021073 [Eh]
    Ind20,r (B<-A)      =    -0.006558631336 [Eh]
    Ind20,r             =    -0.013114652408 [Eh]
    Exch-Ind20,r (A<-B) =     0.006116337588 [Eh]
    Exch-Ind20,r (B<-A) =     0.006118069568 [Eh]
    Exch-Ind20,r        =     0.012234407155 [Eh]
    Disp20              =    -0.019747610214 [Eh]
    Disp20 (SS)         =    -0.009873805107 [Eh]
    Disp20 (OS)         =    -0.009873805107 [Eh]
    Exch-Disp20         =     0.003692154712 [Eh]
    Exch-Disp20 (SS)    =     0.002379175342 [Eh]
    Exch-Disp20 (OS)    =     0.001312979370 [Eh]

    SAPT Results 
  --------------------------------------------------------------------------------------------------------
    Electrostatics                -14.64713660 [mEh]      -9.19121698 [kcal/mol]     -38.45605184 [kJ/mol]
      Elst10,r                    -14.64713660 [mEh]      -9.19121698 [kcal/mol]     -38.45605184 [kJ/mol]

    Exchange                       37.83704687 [mEh]      23.74310537 [kcal/mol]      99.34115286 [kJ/mol]
      Exch10                       37.83704687 [mEh]      23.74310537 [kcal/mol]      99.34115286 [kJ/mol]
      Exch10(S^2)                  37.16140686 [mEh]      23.31913486 [kcal/mol]      97.56726027 [kJ/mol]

    Induction                      -3.39390365 [mEh]      -2.12970669 [kcal/mol]      -8.91069280 [kJ/mol]
      Ind20,r                     -13.11465241 [mEh]      -8.22956863 [kcal/mol]     -34.43251515 [kJ/mol]
      Exch-Ind20,r                 12.23440716 [mEh]       7.67720640 [kcal/mol]      32.12143156 [kJ/mol]
      delta HF,r (2)               -2.51365840 [mEh]      -1.57734446 [kcal/mol]      -6.59960921 [kJ/mol]

    Dispersion                    -16.05545550 [mEh]     -10.07495043 [kcal/mol]     -42.15359261 [kJ/mol]
      Disp20                      -19.74761021 [mEh]     -12.39181249 [kcal/mol]     -51.84734347 [kJ/mol]
      Exch-Disp20                   3.69215471 [mEh]       2.31686206 [kcal/mol]       9.69375086 [kJ/mol]
      Disp20 (SS)                  -9.87380511 [mEh]      -6.19590625 [kcal/mol]     -25.92367174 [kJ/mol]
      Disp20 (OS)                  -9.87380511 [mEh]      -6.19590625 [kcal/mol]     -25.92367174 [kJ/mol]
      Exch-Disp20 (SS)              2.37917534 [mEh]       1.49295507 [kcal/mol]       6.24652400 [kJ/mol]
      Exch-Disp20 (OS)              1.31297937 [mEh]       0.82390699 [kcal/mol]       3.44722686 [kJ/mol]

  Total HF                         19.79600662 [mEh]      12.42218170 [kcal/mol]      51.97440822 [kJ/mol]
  Total SAPT0                       3.74055112 [mEh]       2.34723126 [kcal/mol]       9.82081561 [kJ/mol]

  Special recipe for scaled SAPT0 (see Manual):
    Electrostatics sSAPT0         -14.64713660 [mEh]      -9.19121698 [kcal/mol]     -38.45605184 [kJ/mol]
    Exchange sSAPT0                37.83704687 [mEh]      23.74310537 [kcal/mol]      99.34115286 [kJ/mol]
    Induction sSAPT0               -2.71438798 [mEh]      -1.70330417 [kcal/mol]      -7.12662466 [kJ/mol]
    Dispersion sSAPT0             -15.85038819 [mEh]      -9.94626875 [kcal/mol]     -41.61518846 [kJ/mol]
  Total sSAPT0                      4.62513410 [mEh]       2.90231546 [kcal/mol]      12.14328790 [kJ/mol]
  --------------------------------------------------------------------------------------------------------

*** tstop() called on r282 at Wed Sep 15 07:25:37 2021
Module time:
	user time   =      43.34 seconds =       0.72 minutes
	system time =       8.94 seconds =       0.15 minutes
	total time  =         52 seconds =       0.87 minutes
Total time:
	user time   =      99.19 seconds =       1.65 minutes
	system time =      10.35 seconds =       0.17 minutes
	total time  =        110 seconds =       1.83 minutes

    Psi4 stopped on: Wednesday, 15 September 2021 07:25AM
    Psi4 wall time for execution: 0:01:49.70

*** Psi4 exiting successfully. Buy a developer a beer!
