
    -----------------------------------------------------------------------
          Psi4: An Open-Source Ab Initio Electronic Structure Package
                               Psi4 1.3.2 release

                         Git: Rev {HEAD} ecbda83 


    R. M. Parrish, L. A. Burns, D. G. A. Smith, A. C. Simmonett,
    A. E. DePrince III, E. G. Hohenstein, U. Bozkaya, A. Yu. Sokolov,
    R. Di Remigio, R. M. Richard, J. F. Gonthier, A. M. James,
    H. R. McAlexander, A. Kumar, M. Saitow, X. Wang, B. P. Pritchard,
    P. Verma, H. F. Schaefer III, K. Patkowski, R. A. King, E. F. Valeev,
    F. A. Evangelista, J. M. Turney, T. D. Crawford, and C. D. Sherrill,
    J. Chem. Theory Comput. 13(7) pp 3185--3197 (2017).
    (doi: 10.1021/acs.jctc.7b00174)


                         Additional Contributions by
    P. Kraus, H. Kruse, M. H. Lechner, M. C. Schieber, R. A. Shaw,
    A. Alenaizan, R. Galvelis, Z. L. Glick, S. Lehtola, and J. P. Misiewicz

    -----------------------------------------------------------------------


    Psi4 started on: Wednesday, 15 September 2021 07:18AM

    Process ID: 4583
    Host:       r282
    PSIDATADIR: /home/r08543048/miniconda3/share/psi4
    Memory:     500.0 MiB
    Threads:    1
    
  ==> Input File <==

--------------------------------------------------------------------------
# Any line starting with the # character is a comment line
#! Sample  computation

memory 22 gb

molecule Dimer {

0 1
 C                 -3.15578621   -1.23360743   -0.04360366
 C                 -2.84480821   -0.05064943   -0.95216666
 C                 -2.94576321    1.27858557   -0.21448666
 H                 -2.46611221   -1.26492643    0.80136234
 H                 -4.16697321   -1.15605343    0.35853434
 H                 -3.07709621   -2.18168143   -0.57517066
 H                 -3.53207921   -0.05103743   -1.80076566
 H                 -1.84128721   -0.16346143   -1.36754866
 H                 -2.71938221    2.12091157   -0.86796266
 H                 -3.95101021    1.42251157    0.18438234
 H                 -2.24895121    1.30970557    0.62459534
--
0 1
 C                  3.15548721   -1.23379557    0.04359966
 C                  2.84495121   -0.05075457    0.95220666
 C                  2.94593821    1.27843543    0.21445366
 H                  2.46557321   -1.26506557   -0.80117834
 H                  4.16657321   -1.15640457   -0.35882234
 H                  3.07679121   -2.18183257    0.57523066
 H                  3.53243921   -0.05122357    1.80062966
 H                  1.84151421   -0.16337857    1.36785166
 H                  2.71992321    2.12081943    0.86798166
 H                  3.95109021    1.42216443   -0.18472634
 H                  2.24887421    1.30966043   -0.62440534

units angstrom
no_reorient
symmetry c1
}

set globals{
  basis jun-cc-pvtz
}

energy('sapt0')
--------------------------------------------------------------------------

  Memory set to  20.489 GiB by Python driver.

  //>>>>>>>>>>>>>>>>>>>>>>>>>>>>>>>>>>>//
  //              Dimer HF             //
  //<<<<<<<<<<<<<<<<<<<<<<<<<<<<<<<<<<<//


*** tstart() called on r282
*** at Wed Sep 15 07:18:09 2021

   => Loading Basis Set <=

    Name: JUN-CC-PVTZ
    Role: ORBITAL
    Keyword: BASIS
    atoms 1-3, 12-14  entry C          line   217 file /home/r08543048/miniconda3/share/psi4/basis/jun-cc-pvtz.gbs 
    atoms 4-11, 15-22 entry H          line    36 file /home/r08543048/miniconda3/share/psi4/basis/jun-cc-pvtz.gbs 


         ---------------------------------------------------------
                                   SCF
               by Justin Turney, Rob Parrish, Andy Simmonett
                          and Daniel G. A. Smith
                              RHF Reference
                        1 Threads,  20980 MiB Core
         ---------------------------------------------------------

  ==> Geometry <==

    Molecular point group: c1
    Full point group: C1

    Geometry (in Angstrom), charge = 0, multiplicity = 1:

       Center              X                  Y                   Z               Mass       
    ------------   -----------------  -----------------  -----------------  -----------------
         C           -3.155787504928    -1.232811168463    -0.043603931274    12.000000000000
         C           -2.844809504928    -0.049853168463    -0.952166931274    12.000000000000
         C           -2.945764504928     1.279381831537    -0.214486931274    12.000000000000
         H           -2.466113504928    -1.264130168463     0.801362068726     1.007825032230
         H           -4.166974504928    -1.155257168463     0.358534068726     1.007825032230
         H           -3.077097504928    -2.180885168463    -0.575170931274     1.007825032230
         H           -3.532080504928    -0.050241168463    -1.800765931274     1.007825032230
         H           -1.841288504928    -0.162665168463    -1.367548931274     1.007825032230
         H           -2.719383504928     2.121707831537    -0.867962931274     1.007825032230
         H           -3.951011504928     1.423307831537     0.184382068726     1.007825032230
         H           -2.248952504928     1.310501831537     0.624595068726     1.007825032230
         C            3.155485915072    -1.232999308463     0.043599388726    12.000000000000
         C            2.844949915072    -0.049958308463     0.952206388726    12.000000000000
         C            2.945936915072     1.279231691537     0.214453388726    12.000000000000
         H            2.465571915072    -1.264269308463    -0.801178611274     1.007825032230
         H            4.166571915072    -1.155608308463    -0.358822611274     1.007825032230
         H            3.076789915072    -2.181036308463     0.575230388726     1.007825032230
         H            3.532437915072    -0.050427308463     1.800629388726     1.007825032230
         H            1.841512915072    -0.162582308463     1.367851388726     1.007825032230
         H            2.719921915072     2.121615691537     0.867981388726     1.007825032230
         H            3.951088915072     1.422960691537    -0.184726611274     1.007825032230
         H            2.248872915072     1.310456691537    -0.624405611274     1.007825032230

  Running in c1 symmetry.

  Rotational constants: A =      0.12651  B =      0.02021  C =      0.01838 [cm^-1]
  Rotational constants: A =   3792.77901  B =    605.82263  C =    551.15414 [MHz]
  Nuclear repulsion =  223.013574569558017

  Charge       = 0
  Multiplicity = 1
  Electrons    = 52
  Nalpha       = 26
  Nbeta        = 26

  ==> Algorithm <==

  SCF Algorithm Type is DF.
  DIIS enabled.
  MOM disabled.
  Fractional occupation disabled.
  Guess Type is SAD.
  Energy threshold   = 1.00e-08
  Density threshold  = 1.00e-08
  Integral threshold = 0.00e+00

  ==> Primary Basis <==

  Basis Set: JUN-CC-PVTZ
    Blend: JUN-CC-PVTZ
    Number of shells: 174
    Number of basis function: 458
    Number of Cartesian functions: 510
    Spherical Harmonics?: true
    Max angular momentum: 3

   => Loading Basis Set <=

    Name: (JUN-CC-PVTZ AUX)
    Role: JKFIT
    Keyword: DF_BASIS_SCF
    atoms 1-3, 12-14  entry C          line   152 file /home/r08543048/miniconda3/share/psi4/basis/jun-cc-pvtz-jkfit.gbs 
    atoms 4-11, 15-22 entry H          line    70 file /home/r08543048/miniconda3/share/psi4/basis/jun-cc-pvtz-jkfit.gbs 

  ==> Pre-Iterations <==

   -------------------------------------------------------
    Irrep   Nso     Nmo     Nalpha   Nbeta   Ndocc  Nsocc
   -------------------------------------------------------
     A        458     458       0       0       0       0
   -------------------------------------------------------
    Total     458     458      26      26      26       0
   -------------------------------------------------------

  ==> Integral Setup <==

  ==> DiskDFJK: Density-Fitted J/K Matrices <==

    J tasked:                  Yes
    K tasked:                  Yes
    wK tasked:                  No
    OpenMP threads:              1
    Integrals threads:           1
    Memory [MiB]:            15735
    Algorithm:                Core
    Integral Cache:           SAVE
    Schwarz Cutoff:          1E-12
    Fitting Condition:       1E-10

   => Auxiliary Basis Set <=

  Basis Set: (JUN-CC-PVTZ AUX)
    Blend: JUN-CC-PVTZ-JKFIT
    Number of shells: 334
    Number of basis function: 1050
    Number of Cartesian functions: 1256
    Spherical Harmonics?: true
    Max angular momentum: 4

  Minimum eigenvalue in the overlap matrix is 1.0299099319E-04.
  Using Symmetric Orthogonalization.

  SCF Guess: Superposition of Atomic Densities via on-the-fly atomic UHF.

  ==> Iterations <==

                           Total Energy        Delta E     RMS |[F,P]|

   @DF-RHF iter SAD:  -235.45287876286929   -2.35453e+02   0.00000e+00 
   @DF-RHF iter   1:  -236.29273226017943   -8.39853e-01   1.59140e-03 DIIS
   @DF-RHF iter   2:  -236.55138136089880   -2.58649e-01   7.53405e-04 DIIS
   @DF-RHF iter   3:  -236.61230807080346   -6.09267e-02   1.26622e-04 DIIS
   @DF-RHF iter   4:  -236.61601549120118   -3.70742e-03   2.50421e-05 DIIS
   @DF-RHF iter   5:  -236.61613274477639   -1.17254e-04   7.04041e-06 DIIS
   @DF-RHF iter   6:  -236.61614200704594   -9.26227e-06   1.25468e-06 DIIS
   @DF-RHF iter   7:  -236.61614234879829   -3.41752e-07   2.33252e-07 DIIS
   @DF-RHF iter   8:  -236.61614236332863   -1.45303e-08   4.08491e-08 DIIS
   @DF-RHF iter   9:  -236.61614236377838   -4.49745e-10   8.08092e-09 DIIS
  Energy and wave function converged.


  ==> Post-Iterations <==

    Orbital Energies [Eh]
    ---------------------

    Doubly Occupied:                                                      

       1A    -11.215873     2A    -11.215873     3A    -11.208094  
       4A    -11.208094     5A    -11.208057     6A    -11.208057  
       7A     -1.054327     8A     -1.054293     9A     -0.925091  
      10A     -0.925065    11A     -0.800108    12A     -0.800073  
      13A     -0.625304    14A     -0.624725    15A     -0.598519  
      16A     -0.598495    17A     -0.549660    18A     -0.549617  
      19A     -0.530578    20A     -0.530314    21A     -0.475948  
      22A     -0.475651    23A     -0.475215    24A     -0.475189  
      25A     -0.468466    26A     -0.468075  

    Virtual:                                                              

      27A      0.051845    28A      0.055142    29A      0.055245  
      30A      0.063383    31A      0.066647    32A      0.069860  
      33A      0.078796    34A      0.091021    35A      0.095203  
      36A      0.102242    37A      0.103170    38A      0.106959  
      39A      0.110035    40A      0.110982    41A      0.117343  
      42A      0.133918    43A      0.136387    44A      0.142204  
      45A      0.148354    46A      0.164278    47A      0.183497  
      48A      0.194766    49A      0.207424    50A      0.207678  
      51A      0.240907    52A      0.252403    53A      0.260897  
      54A      0.264615    55A      0.273445    56A      0.273721  
      57A      0.282064    58A      0.286643    59A      0.289519  
      60A      0.294943    61A      0.301978    62A      0.319292  
      63A      0.322680    64A      0.327088    65A      0.327441  
      66A      0.328380    67A      0.332273    68A      0.337139  
      69A      0.338492    70A      0.345260    71A      0.352149  
      72A      0.353384    73A      0.357208    74A      0.358192  
      75A      0.361879    76A      0.363610    77A      0.377823  
      78A      0.383217    79A      0.385010    80A      0.387510  
      81A      0.415497    82A      0.417189    83A      0.419341  
      84A      0.427265    85A      0.435573    86A      0.436022  
      87A      0.450706    88A      0.463206    89A      0.489897  
      90A      0.505266    91A      0.506156    92A      0.506801  
      93A      0.523452    94A      0.523778    95A      0.527730  
      96A      0.528788    97A      0.534453    98A      0.534604  
      99A      0.554154   100A      0.565990   101A      0.632024  
     102A      0.632219   103A      0.641892   104A      0.646846  
     105A      0.656235   106A      0.663376   107A      0.688581  
     108A      0.699746   109A      0.702415   110A      0.713266  
     111A      0.727742   112A      0.736085   113A      0.758906  
     114A      0.766794   115A      0.768419   116A      0.774046  
     117A      0.779091   118A      0.791515   119A      0.798940  
     120A      0.800039   121A      0.801092   122A      0.803838  
     123A      0.805294   124A      0.820134   125A      0.840429  
     126A      0.851646   127A      0.860377   128A      0.867092  
     129A      0.868656   130A      0.874760   131A      0.877096  
     132A      0.887413   133A      0.892639   134A      0.896676  
     135A      0.902477   136A      0.942574   137A      0.964875  
     138A      0.969530   139A      0.971632   140A      0.977741  
     141A      0.980481   142A      0.987941   143A      1.001374  
     144A      1.017323   145A      1.089190   146A      1.094795  
     147A      1.100075   148A      1.101046   149A      1.139696  
     150A      1.156370   151A      1.157270   152A      1.174876  
     153A      1.200228   154A      1.205339   155A      1.268619  
     156A      1.272605   157A      1.312522   158A      1.321768  
     159A      1.323201   160A      1.328395   161A      1.333707  
     162A      1.341603   163A      1.344068   164A      1.352300  
     165A      1.360600   166A      1.361205   167A      1.364056  
     168A      1.368003   169A      1.371485   170A      1.375945  
     171A      1.390783   172A      1.392772   173A      1.401594  
     174A      1.408929   175A      1.434582   176A      1.435610  
     177A      1.461958   178A      1.479090   179A      1.516628  
     180A      1.516797   181A      1.522958   182A      1.525323  
     183A      1.547022   184A      1.566066   185A      1.571230  
     186A      1.585835   187A      1.601180   188A      1.603532  
     189A      1.603745   190A      1.607061   191A      1.614424  
     192A      1.651266   193A      1.653222   194A      1.657437  
     195A      1.681374   196A      1.690154   197A      1.692727  
     198A      1.697092   199A      1.697610   200A      1.701046  
     201A      1.792140   202A      1.800212   203A      1.808701  
     204A      1.811157   205A      1.821523   206A      1.821917  
     207A      1.845432   208A      1.859032   209A      1.901534  
     210A      1.902074   211A      1.904175   212A      1.922486  
     213A      1.932737   214A      1.939273   215A      1.943840  
     216A      1.957112   217A      2.060054   218A      2.062206  
     219A      2.719161   220A      2.724828   221A      2.728764  
     222A      2.735163   223A      2.741337   224A      2.743330  
     225A      2.758496   226A      2.774373   227A      2.797918  
     228A      2.806836   229A      2.808845   230A      2.818552  
     231A      2.878451   232A      2.891458   233A      2.907561  
     234A      2.909397   235A      2.912305   236A      2.921865  
     237A      2.924453   238A      2.928013   239A      2.932603  
     240A      2.942645   241A      3.014328   242A      3.016862  
     243A      3.067108   244A      3.071202   245A      3.079296  
     246A      3.079646   247A      3.112040   248A      3.120263  
     249A      3.131611   250A      3.138433   251A      3.138645  
     252A      3.142399   253A      3.146257   254A      3.168881  
     255A      3.225542   256A      3.233908   257A      3.235297  
     258A      3.241391   259A      3.272454   260A      3.273415  
     261A      3.291727   262A      3.294971   263A      3.312665  
     264A      3.314157   265A      3.357043   266A      3.362054  
     267A      3.362770   268A      3.365325   269A      3.380849  
     270A      3.381075   271A      3.409742   272A      3.412954  
     273A      3.414728   274A      3.415143   275A      3.420412  
     276A      3.425030   277A      3.463870   278A      3.465977  
     279A      3.469626   280A      3.476085   281A      3.476230  
     282A      3.482286   283A      3.499648   284A      3.500876  
     285A      3.521963   286A      3.528623   287A      3.529687  
     288A      3.531565   289A      3.547751   290A      3.558933  
     291A      3.583992   292A      3.588655   293A      3.594032  
     294A      3.600373   295A      3.622918   296A      3.626504  
     297A      3.696005   298A      3.697566   299A      3.712181  
     300A      3.712523   301A      3.743808   302A      3.745101  
     303A      3.768851   304A      3.772072   305A      3.782663  
     306A      3.790913   307A      3.799279   308A      3.802871  
     309A      3.814208   310A      3.818158   311A      3.862100  
     312A      3.862988   313A      3.922401   314A      3.922901  
     315A      3.924771   316A      3.933355   317A      3.937967  
     318A      3.939899   319A      3.943236   320A      3.943370  
     321A      3.962915   322A      3.963200   323A      4.068495  
     324A      4.068517   325A      4.100604   326A      4.102972  
     327A      4.171717   328A      4.172670   329A      4.179207  
     330A      4.181875   331A      4.191103   332A      4.193875  
     333A      4.201874   334A      4.210713   335A      4.218499  
     336A      4.220038   337A      4.286638   338A      4.294527  
     339A      4.304052   340A      4.305339   341A      4.319677  
     342A      4.323081   343A      4.327057   344A      4.328060  
     345A      4.349269   346A      4.352108   347A      4.352826  
     348A      4.357172   349A      4.388286   350A      4.394036  
     351A      4.398014   352A      4.401656   353A      4.431630  
     354A      4.435931   355A      4.446427   356A      4.458514  
     357A      4.498346   358A      4.500781   359A      4.503932  
     360A      4.505216   361A      4.506175   362A      4.508072  
     363A      4.534612   364A      4.542628   365A      4.545730  
     366A      4.546522   367A      4.587451   368A      4.594443  
     369A      4.618497   370A      4.619883   371A      4.674936  
     372A      4.677322   373A      4.682665   374A      4.687875  
     375A      4.689882   376A      4.704813   377A      4.767477  
     378A      4.772009   379A      4.775263   380A      4.778836  
     381A      4.796269   382A      4.796827   383A      4.846683  
     384A      4.850652   385A      4.974529   386A      4.975400  
     387A      4.980432   388A      4.980573   389A      5.011429  
     390A      5.016962   391A      5.124860   392A      5.125948  
     393A      5.156401   394A      5.156537   395A      5.193096  
     396A      5.197645   397A      5.245887   398A      5.246487  
     399A      5.269897   400A      5.271557   401A      5.272260  
     402A      5.272350   403A      5.284267   404A      5.287037  
     405A      5.295835   406A      5.310990   407A      5.390526  
     408A      5.390757   409A      5.392232   410A      5.395359  
     411A      5.457884   412A      5.458881   413A      5.508865  
     414A      5.510292   415A      5.576801   416A      5.577429  
     417A      5.597876   418A      5.598490   419A      5.714986  
     420A      5.717090   421A      5.739527   422A      5.741963  
     423A      5.743677   424A      5.744800   425A      5.768433  
     426A      5.771103   427A      5.774379   428A      5.777534  
     429A      5.789440   430A      5.790934   431A      5.805905  
     432A      5.810271   433A      5.909822   434A      5.911337  
     435A      5.916071   436A      5.919982   437A      5.933351  
     438A      5.936663   439A      5.959926   440A      5.972039  
     441A      6.075631   442A      6.077079   443A      6.456696  
     444A      6.463124   445A      6.479838   446A      6.481442  
     447A      6.493287   448A      6.504471   449A      6.538338  
     450A      6.545287   451A      6.552978   452A      6.559308  
     453A     13.724725   454A     13.738891   455A     14.277389  
     456A     14.295219   457A     14.555962   458A     14.569580  

    Final Occupation by Irrep:
              A 
    DOCC [    26 ]

  @DF-RHF Final Energy:  -236.61614236377838

   => Energetics <=

    Nuclear Repulsion Energy =            223.0135745695580169
    One-Electron Energy =                -758.7219089392897331
    Two-Electron Energy =                 299.0921920059533363
    Total Energy =                       -236.6161423637783514

Computation Completed


Properties will be evaluated at   0.000000,   0.000000,   0.000000 [a0]

Properties computed using the SCF density matrix

  Nuclear Dipole Moment: [e a0]
     X:    -0.0001      Y:     0.0782      Z:    -0.0000

  Electronic Dipole Moment: [e a0]
     X:     0.0001      Y:    -0.0831      Z:     0.0000

  Dipole Moment: [e a0]
     X:     0.0000      Y:    -0.0049      Z:     0.0000     Total:     0.0049

  Dipole Moment: [D]
     X:     0.0000      Y:    -0.0124      Z:     0.0000     Total:     0.0124


*** tstop() called on r282 at Wed Sep 15 07:18:44 2021
Module time:
	user time   =      34.17 seconds =       0.57 minutes
	system time =       0.99 seconds =       0.02 minutes
	total time  =         35 seconds =       0.58 minutes
Total time:
	user time   =      34.17 seconds =       0.57 minutes
	system time =       0.99 seconds =       0.02 minutes
	total time  =         35 seconds =       0.58 minutes

  //>>>>>>>>>>>>>>>>>>>>>>>>>>>>>>>>>>>//
  //            Monomer A HF           //
  //<<<<<<<<<<<<<<<<<<<<<<<<<<<<<<<<<<<//


*** tstart() called on r282
*** at Wed Sep 15 07:18:44 2021

   => Loading Basis Set <=

    Name: JUN-CC-PVTZ
    Role: ORBITAL
    Keyword: BASIS
    atoms 1-3, 12-14  entry C          line   217 file /home/r08543048/miniconda3/share/psi4/basis/jun-cc-pvtz.gbs 
    atoms 4-11, 15-22 entry H          line    36 file /home/r08543048/miniconda3/share/psi4/basis/jun-cc-pvtz.gbs 


         ---------------------------------------------------------
                                   SCF
               by Justin Turney, Rob Parrish, Andy Simmonett
                          and Daniel G. A. Smith
                              RHF Reference
                        1 Threads,  20980 MiB Core
         ---------------------------------------------------------

  ==> Geometry <==

    Molecular point group: c1
    Full point group: C1

    Geometry (in Angstrom), charge = 0, multiplicity = 1:

       Center              X                  Y                   Z               Mass       
    ------------   -----------------  -----------------  -----------------  -----------------
         C           -3.155787504928    -1.232811168463    -0.043603931274    12.000000000000
         C           -2.844809504928    -0.049853168463    -0.952166931274    12.000000000000
         C           -2.945764504928     1.279381831537    -0.214486931274    12.000000000000
         H           -2.466113504928    -1.264130168463     0.801362068726     1.007825032230
         H           -4.166974504928    -1.155257168463     0.358534068726     1.007825032230
         H           -3.077097504928    -2.180885168463    -0.575170931274     1.007825032230
         H           -3.532080504928    -0.050241168463    -1.800765931274     1.007825032230
         H           -1.841288504928    -0.162665168463    -1.367548931274     1.007825032230
         H           -2.719383504928     2.121707831537    -0.867962931274     1.007825032230
         H           -3.951011504928     1.423307831537     0.184382068726     1.007825032230
         H           -2.248952504928     1.310501831537     0.624595068726     1.007825032230
      Gh(C)           3.155485915072    -1.232999308463     0.043599388726    12.000000000000
      Gh(C)           2.844949915072    -0.049958308463     0.952206388726    12.000000000000
      Gh(C)           2.945936915072     1.279231691537     0.214453388726    12.000000000000
      Gh(H)           2.465571915072    -1.264269308463    -0.801178611274     1.007825032230
      Gh(H)           4.166571915072    -1.155608308463    -0.358822611274     1.007825032230
      Gh(H)           3.076789915072    -2.181036308463     0.575230388726     1.007825032230
      Gh(H)           3.532437915072    -0.050427308463     1.800629388726     1.007825032230
      Gh(H)           1.841512915072    -0.162582308463     1.367851388726     1.007825032230
      Gh(H)           2.719921915072     2.121615691537     0.867981388726     1.007825032230
      Gh(H)           3.951088915072     1.422960691537    -0.184726611274     1.007825032230
      Gh(H)           2.248872915072     1.310456691537    -0.624405611274     1.007825032230

  Running in c1 symmetry.

  Rotational constants: A =      0.12651  B =      0.02021  C =      0.01838 [cm^-1]
  Rotational constants: A =   3792.77901  B =    605.82263  C =    551.15414 [MHz]
  Nuclear repulsion =   82.817219279052694

  Charge       = 0
  Multiplicity = 1
  Electrons    = 26
  Nalpha       = 13
  Nbeta        = 13

  ==> Algorithm <==

  SCF Algorithm Type is DF.
  DIIS enabled.
  MOM disabled.
  Fractional occupation disabled.
  Guess Type is SAD.
  Energy threshold   = 1.00e-08
  Density threshold  = 1.00e-08
  Integral threshold = 0.00e+00

  ==> Primary Basis <==

  Basis Set: JUN-CC-PVTZ
    Blend: JUN-CC-PVTZ
    Number of shells: 174
    Number of basis function: 458
    Number of Cartesian functions: 510
    Spherical Harmonics?: true
    Max angular momentum: 3

   => Loading Basis Set <=

    Name: (JUN-CC-PVTZ AUX)
    Role: JKFIT
    Keyword: DF_BASIS_SCF
    atoms 1-3, 12-14  entry C          line   152 file /home/r08543048/miniconda3/share/psi4/basis/jun-cc-pvtz-jkfit.gbs 
    atoms 4-11, 15-22 entry H          line    70 file /home/r08543048/miniconda3/share/psi4/basis/jun-cc-pvtz-jkfit.gbs 

  ==> Pre-Iterations <==

   -------------------------------------------------------
    Irrep   Nso     Nmo     Nalpha   Nbeta   Ndocc  Nsocc
   -------------------------------------------------------
     A        458     458       0       0       0       0
   -------------------------------------------------------
    Total     458     458      13      13      13       0
   -------------------------------------------------------

  ==> Integral Setup <==

  ==> DiskDFJK: Density-Fitted J/K Matrices <==

    J tasked:                  Yes
    K tasked:                  Yes
    wK tasked:                  No
    OpenMP threads:              1
    Integrals threads:           1
    Memory [MiB]:            15735
    Algorithm:                Core
    Integral Cache:           LOAD
    Schwarz Cutoff:          1E-12
    Fitting Condition:       1E-10

   => Auxiliary Basis Set <=

  Basis Set: (JUN-CC-PVTZ AUX)
    Blend: JUN-CC-PVTZ-JKFIT
    Number of shells: 334
    Number of basis function: 1050
    Number of Cartesian functions: 1256
    Spherical Harmonics?: true
    Max angular momentum: 4

  Minimum eigenvalue in the overlap matrix is 1.0299099319E-04.
  Using Symmetric Orthogonalization.

  SCF Guess: Superposition of Atomic Densities via on-the-fly atomic UHF.

  ==> Iterations <==

                           Total Energy        Delta E     RMS |[F,P]|

   @DF-RHF iter SAD:  -117.72589279740777   -1.17726e+02   0.00000e+00 
   @DF-RHF iter   1:  -118.14637334592909   -4.20481e-01   1.12527e-03 DIIS
   @DF-RHF iter   2:  -118.27575456190937   -1.29381e-01   5.32282e-04 DIIS
   @DF-RHF iter   3:  -118.30616186054522   -3.04073e-02   8.94434e-05 DIIS
   @DF-RHF iter   4:  -118.30801328430195   -1.85142e-03   1.76460e-05 DIIS
   @DF-RHF iter   5:  -118.30807158730025   -5.83030e-05   4.95814e-06 DIIS
   @DF-RHF iter   6:  -118.30807620299898   -4.61570e-06   8.90022e-07 DIIS
   @DF-RHF iter   7:  -118.30807637419885   -1.71200e-07   1.67833e-07 DIIS
   @DF-RHF iter   8:  -118.30807638169135   -7.49250e-09   2.94220e-08 DIIS
   @DF-RHF iter   9:  -118.30807638192711   -2.35758e-10   5.81186e-09 DIIS
  Energy and wave function converged.


  ==> Post-Iterations <==

    Orbital Energies [Eh]
    ---------------------

    Doubly Occupied:                                                      

       1A    -11.215579     2A    -11.207859     3A    -11.207814  
       4A     -1.054043     5A     -0.924838     6A     -0.799825  
       7A     -0.624736     8A     -0.598266     9A     -0.549394  
      10A     -0.530202    11A     -0.475536    12A     -0.474963  
      13A     -0.467988  

    Virtual:                                                              

      14A      0.032434    15A      0.046046    16A      0.051927  
      17A      0.057847    18A      0.063104    19A      0.067286  
      20A      0.073594    21A      0.086920    22A      0.092721  
      23A      0.099779    24A      0.099914    25A      0.100883  
      26A      0.107253    27A      0.108954    28A      0.112246  
      29A      0.132660    30A      0.135234    31A      0.138052  
      32A      0.143230    33A      0.148720    34A      0.153161  
      35A      0.170955    36A      0.191215    37A      0.195791  
      38A      0.220499    39A      0.233216    40A      0.249753  
      41A      0.257257    42A      0.267767    43A      0.277446  
      44A      0.280641    45A      0.285690    46A      0.290634  
      47A      0.293284    48A      0.295566    49A      0.299945  
      50A      0.313733    51A      0.324170    52A      0.324929  
      53A      0.334076    54A      0.334773    55A      0.339025  
      56A      0.341202    57A      0.349715    58A      0.352183  
      59A      0.354544    60A      0.356203    61A      0.362066  
      62A      0.366326    63A      0.371629    64A      0.382847  
      65A      0.386404    66A      0.394143    67A      0.407060  
      68A      0.416010    69A      0.420200    70A      0.427817  
      71A      0.431397    72A      0.438369    73A      0.442110  
      74A      0.466322    75A      0.478049    76A      0.484387  
      77A      0.490320    78A      0.501986    79A      0.507121  
      80A      0.509176    81A      0.523584    82A      0.533110  
      83A      0.533761    84A      0.545290    85A      0.553730  
      86A      0.562684    87A      0.570120    88A      0.571210  
      89A      0.599625    90A      0.605503    91A      0.621213  
      92A      0.627217    93A      0.634471    94A      0.647716  
      95A      0.660716    96A      0.670894    97A      0.682655  
      98A      0.690019    99A      0.704968   100A      0.720737  
     101A      0.736277   102A      0.765354   103A      0.770303  
     104A      0.771415   105A      0.787816   106A      0.797150  
     107A      0.799151   108A      0.803504   109A      0.812817  
     110A      0.844364   111A      0.872566   112A      0.873106  
     113A      0.883221   114A      0.884688   115A      0.895464  
     116A      0.964038   117A      0.972032   118A      0.975245  
     119A      0.983018   120A      1.004375   121A      1.022268  
     122A      1.047681   123A      1.075255   124A      1.085101  
     125A      1.088583   126A      1.093333   127A      1.105598  
     128A      1.113293   129A      1.128104   130A      1.147807  
     131A      1.152009   132A      1.160768   133A      1.170174  
     134A      1.182166   135A      1.186532   136A      1.199402  
     137A      1.204944   138A      1.215215   139A      1.219725  
     140A      1.257266   141A      1.265492   142A      1.271300  
     143A      1.282262   144A      1.283710   145A      1.298356  
     146A      1.322973   147A      1.326503   148A      1.332466  
     149A      1.343687   150A      1.346728   151A      1.360808  
     152A      1.363515   153A      1.367727   154A      1.370642  
     155A      1.378452   156A      1.391495   157A      1.394964  
     158A      1.405340   159A      1.420180   160A      1.434744  
     161A      1.438968   162A      1.457493   163A      1.471001  
     164A      1.487253   165A      1.514162   166A      1.522544  
     167A      1.527045   168A      1.529858   169A      1.531366  
     170A      1.538030   171A      1.556983   172A      1.563145  
     173A      1.577497   174A      1.585336   175A      1.590887  
     176A      1.603153   177A      1.606765   178A      1.609434  
     179A      1.644672   180A      1.655327   181A      1.681036  
     182A      1.686447   183A      1.691528   184A      1.696000  
     185A      1.699822   186A      1.729133   187A      1.794892  
     188A      1.814313   189A      1.816003   190A      1.821993  
     191A      1.839982   192A      1.849177   193A      1.863213  
     194A      1.896252   195A      1.902234   196A      1.913298  
     197A      1.936679   198A      1.948910   199A      1.984329  
     200A      2.022760   201A      2.057946   202A      2.061518  
     203A      2.100064   204A      2.129436   205A      2.140897  
     206A      2.184143   207A      2.326825   208A      2.346876  
     209A      2.366854   210A      2.398548   211A      2.446888  
     212A      2.475346   213A      2.532096   214A      2.579666  
     215A      2.587595   216A      2.722849   217A      2.732520  
     218A      2.742693   219A      2.768554   220A      2.802766  
     221A      2.814336   222A      2.885355   223A      2.909226  
     224A      2.919612   225A      2.927985   226A      2.934218  
     227A      3.015795   228A      3.069439   229A      3.081262  
     230A      3.118625   231A      3.138774   232A      3.142115  
     233A      3.148744   234A      3.233056   235A      3.234377  
     236A      3.272481   237A      3.293579   238A      3.313669  
     239A      3.361336   240A      3.362726   241A      3.381216  
     242A      3.414855   243A      3.416405   244A      3.416825  
     245A      3.425762   246A      3.465951   247A      3.472193  
     248A      3.479322   249A      3.499553   250A      3.502805  
     251A      3.521256   252A      3.524511   253A      3.529559  
     254A      3.539508   255A      3.549773   256A      3.552542  
     257A      3.557003   258A      3.565632   259A      3.586378  
     260A      3.595261   261A      3.597466   262A      3.605268  
     263A      3.624139   264A      3.639699   265A      3.696729  
     266A      3.698592   267A      3.712494   268A      3.723723  
     269A      3.729268   270A      3.744702   271A      3.771222  
     272A      3.774007   273A      3.786812   274A      3.798713  
     275A      3.801933   276A      3.802983   277A      3.816295  
     278A      3.819783   279A      3.862481   280A      3.881080  
     281A      3.885811   282A      3.904522   283A      3.923141  
     284A      3.925155   285A      3.929472   286A      3.937413  
     287A      3.940569   288A      3.948358   289A      3.963244  
     290A      3.999591   291A      4.037640   292A      4.064050  
     293A      4.069553   294A      4.100948   295A      4.116463  
     296A      4.153446   297A      4.156201   298A      4.176507  
     299A      4.181257   300A      4.191107   301A      4.194275  
     302A      4.201236   303A      4.205010   304A      4.219455  
     305A      4.290561   306A      4.303774   307A      4.305580  
     308A      4.310571   309A      4.322760   310A      4.324441  
     311A      4.339813   312A      4.351503   313A      4.354652  
     314A      4.361683   315A      4.391189   316A      4.399509  
     317A      4.410599   318A      4.425946   319A      4.430706  
     320A      4.436775   321A      4.453798   322A      4.481588  
     323A      4.490052   324A      4.498618   325A      4.502464  
     326A      4.504803   327A      4.506782   328A      4.509513  
     329A      4.531250   330A      4.540413   331A      4.545330  
     332A      4.581894   333A      4.583942   334A      4.596703  
     335A      4.602786   336A      4.619575   337A      4.636036  
     338A      4.664880   339A      4.674524   340A      4.677815  
     341A      4.688194   342A      4.692696   343A      4.700441  
     344A      4.715256   345A      4.742953   346A      4.768186  
     347A      4.776684   348A      4.778384   349A      4.794853  
     350A      4.796535   351A      4.800545   352A      4.803397  
     353A      4.806738   354A      4.820481   355A      4.838787  
     356A      4.841082   357A      4.849050   358A      4.877607  
     359A      4.891117   360A      4.892581   361A      4.906895  
     362A      4.918916   363A      4.949604   364A      4.955169  
     365A      4.967872   366A      4.975960   367A      4.979963  
     368A      4.998183   369A      5.014750   370A      5.016778  
     371A      5.034963   372A      5.107241   373A      5.118096  
     374A      5.118766   375A      5.126170   376A      5.145432  
     377A      5.156757   378A      5.195152   379A      5.199179  
     380A      5.246527   381A      5.254103   382A      5.271842  
     383A      5.272476   384A      5.285613   385A      5.303747  
     386A      5.352415   387A      5.383196   388A      5.391441  
     389A      5.393843   390A      5.452994   391A      5.458621  
     392A      5.509849   393A      5.568989   394A      5.577334  
     395A      5.598115   396A      5.601384   397A      5.604385  
     398A      5.619066   399A      5.621463   400A      5.716361  
     401A      5.741344   402A      5.744493   403A      5.769974  
     404A      5.776244   405A      5.790426   406A      5.808222  
     407A      5.824331   408A      5.889240   409A      5.910747  
     410A      5.918787   411A      5.934356   412A      5.944484  
     413A      5.965945   414A      6.008508   415A      6.019066  
     416A      6.076640   417A      6.165329   418A      6.178977  
     419A      6.249631   420A      6.320933   421A      6.329748  
     422A      6.363207   423A      6.410180   424A      6.414774  
     425A      6.445539   426A      6.460625   427A      6.480843  
     428A      6.500007   429A      6.500203   430A      6.542657  
     431A      6.556055   432A      6.601573   433A      6.753669  
     434A      6.895642   435A      6.967598   436A      7.296382  
     437A      7.467150   438A      7.543469   439A      7.585803  
     440A      7.591137   441A      7.666876   442A      7.683639  
     443A      7.790529   444A      7.820233   445A      7.849862  
     446A      7.899948   447A      8.020459   448A      8.158695  
     449A      8.454405   450A      9.528329   451A      9.810289  
     452A      9.874398   453A     13.732234   454A     14.286980  
     455A     14.562592   456A     44.086223   457A     45.068212  
     458A     45.597063  

    Final Occupation by Irrep:
              A 
    DOCC [    13 ]

  @DF-RHF Final Energy:  -118.30807638192711

   => Energetics <=

    Nuclear Repulsion Energy =             82.8172192790526935
    One-Electron Energy =                -321.9885032353257088
    Two-Electron Energy =                 120.8632075743459069
    Total Energy =                       -118.3080763819271084

Computation Completed


Properties will be evaluated at   0.000000,   0.000000,   0.000000 [a0]

Properties computed using the SCF density matrix

  Nuclear Dipole Moment: [e a0]
     X:  -146.7959      Y:     0.0428      Z:   -18.7161

  Electronic Dipole Moment: [e a0]
     X:   146.8041      Y:    -0.0456      Z:    18.6844

  Dipole Moment: [e a0]
     X:     0.0081      Y:    -0.0028      Z:    -0.0317     Total:     0.0328

  Dipole Moment: [D]
     X:     0.0207      Y:    -0.0071      Z:    -0.0805     Total:     0.0834


*** tstop() called on r282 at Wed Sep 15 07:19:02 2021
Module time:
	user time   =      17.60 seconds =       0.29 minutes
	system time =       0.41 seconds =       0.01 minutes
	total time  =         18 seconds =       0.30 minutes
Total time:
	user time   =      51.77 seconds =       0.86 minutes
	system time =       1.40 seconds =       0.02 minutes
	total time  =         53 seconds =       0.88 minutes

  //>>>>>>>>>>>>>>>>>>>>>>>>>>>>>>>>>>>//
  //            Monomer B HF           //
  //<<<<<<<<<<<<<<<<<<<<<<<<<<<<<<<<<<<//


*** tstart() called on r282
*** at Wed Sep 15 07:19:02 2021

   => Loading Basis Set <=

    Name: JUN-CC-PVTZ
    Role: ORBITAL
    Keyword: BASIS
    atoms 1-3, 12-14  entry C          line   217 file /home/r08543048/miniconda3/share/psi4/basis/jun-cc-pvtz.gbs 
    atoms 4-11, 15-22 entry H          line    36 file /home/r08543048/miniconda3/share/psi4/basis/jun-cc-pvtz.gbs 


         ---------------------------------------------------------
                                   SCF
               by Justin Turney, Rob Parrish, Andy Simmonett
                          and Daniel G. A. Smith
                              RHF Reference
                        1 Threads,  20980 MiB Core
         ---------------------------------------------------------

  ==> Geometry <==

    Molecular point group: c1
    Full point group: C1

    Geometry (in Angstrom), charge = 0, multiplicity = 1:

       Center              X                  Y                   Z               Mass       
    ------------   -----------------  -----------------  -----------------  -----------------
      Gh(C)          -3.155787504928    -1.232811168463    -0.043603931274    12.000000000000
      Gh(C)          -2.844809504928    -0.049853168463    -0.952166931274    12.000000000000
      Gh(C)          -2.945764504928     1.279381831537    -0.214486931274    12.000000000000
      Gh(H)          -2.466113504928    -1.264130168463     0.801362068726     1.007825032230
      Gh(H)          -4.166974504928    -1.155257168463     0.358534068726     1.007825032230
      Gh(H)          -3.077097504928    -2.180885168463    -0.575170931274     1.007825032230
      Gh(H)          -3.532080504928    -0.050241168463    -1.800765931274     1.007825032230
      Gh(H)          -1.841288504928    -0.162665168463    -1.367548931274     1.007825032230
      Gh(H)          -2.719383504928     2.121707831537    -0.867962931274     1.007825032230
      Gh(H)          -3.951011504928     1.423307831537     0.184382068726     1.007825032230
      Gh(H)          -2.248952504928     1.310501831537     0.624595068726     1.007825032230
         C            3.155485915072    -1.232999308463     0.043599388726    12.000000000000
         C            2.844949915072    -0.049958308463     0.952206388726    12.000000000000
         C            2.945936915072     1.279231691537     0.214453388726    12.000000000000
         H            2.465571915072    -1.264269308463    -0.801178611274     1.007825032230
         H            4.166571915072    -1.155608308463    -0.358822611274     1.007825032230
         H            3.076789915072    -2.181036308463     0.575230388726     1.007825032230
         H            3.532437915072    -0.050427308463     1.800629388726     1.007825032230
         H            1.841512915072    -0.162582308463     1.367851388726     1.007825032230
         H            2.719921915072     2.121615691537     0.867981388726     1.007825032230
         H            3.951088915072     1.422960691537    -0.184726611274     1.007825032230
         H            2.248872915072     1.310456691537    -0.624405611274     1.007825032230

  Running in c1 symmetry.

  Rotational constants: A =      0.12651  B =      0.02021  C =      0.01838 [cm^-1]
  Rotational constants: A =   3792.77901  B =    605.82263  C =    551.15414 [MHz]
  Nuclear repulsion =   82.817242756398954

  Charge       = 0
  Multiplicity = 1
  Electrons    = 26
  Nalpha       = 13
  Nbeta        = 13

  ==> Algorithm <==

  SCF Algorithm Type is DF.
  DIIS enabled.
  MOM disabled.
  Fractional occupation disabled.
  Guess Type is SAD.
  Energy threshold   = 1.00e-08
  Density threshold  = 1.00e-08
  Integral threshold = 0.00e+00

  ==> Primary Basis <==

  Basis Set: JUN-CC-PVTZ
    Blend: JUN-CC-PVTZ
    Number of shells: 174
    Number of basis function: 458
    Number of Cartesian functions: 510
    Spherical Harmonics?: true
    Max angular momentum: 3

   => Loading Basis Set <=

    Name: (JUN-CC-PVTZ AUX)
    Role: JKFIT
    Keyword: DF_BASIS_SCF
    atoms 1-3, 12-14  entry C          line   152 file /home/r08543048/miniconda3/share/psi4/basis/jun-cc-pvtz-jkfit.gbs 
    atoms 4-11, 15-22 entry H          line    70 file /home/r08543048/miniconda3/share/psi4/basis/jun-cc-pvtz-jkfit.gbs 

  ==> Pre-Iterations <==

   -------------------------------------------------------
    Irrep   Nso     Nmo     Nalpha   Nbeta   Ndocc  Nsocc
   -------------------------------------------------------
     A        458     458       0       0       0       0
   -------------------------------------------------------
    Total     458     458      13      13      13       0
   -------------------------------------------------------

  ==> Integral Setup <==

  ==> DiskDFJK: Density-Fitted J/K Matrices <==

    J tasked:                  Yes
    K tasked:                  Yes
    wK tasked:                  No
    OpenMP threads:              1
    Integrals threads:           1
    Memory [MiB]:            15735
    Algorithm:                Core
    Integral Cache:           LOAD
    Schwarz Cutoff:          1E-12
    Fitting Condition:       1E-10

   => Auxiliary Basis Set <=

  Basis Set: (JUN-CC-PVTZ AUX)
    Blend: JUN-CC-PVTZ-JKFIT
    Number of shells: 334
    Number of basis function: 1050
    Number of Cartesian functions: 1256
    Spherical Harmonics?: true
    Max angular momentum: 4

  Minimum eigenvalue in the overlap matrix is 1.0299099319E-04.
  Using Symmetric Orthogonalization.

  SCF Guess: Superposition of Atomic Densities via on-the-fly atomic UHF.

  ==> Iterations <==

                           Total Energy        Delta E     RMS |[F,P]|

   @DF-RHF iter SAD:  -117.72589470740385   -1.17726e+02   0.00000e+00 
   @DF-RHF iter   1:  -118.14637302000847   -4.20478e-01   1.12527e-03 DIIS
   @DF-RHF iter   2:  -118.27575444161911   -1.29381e-01   5.32283e-04 DIIS
   @DF-RHF iter   3:  -118.30616187459422   -3.04074e-02   8.94435e-05 DIIS
   @DF-RHF iter   4:  -118.30801330041942   -1.85143e-03   1.76460e-05 DIIS
   @DF-RHF iter   5:  -118.30807160347403   -5.83031e-05   4.95814e-06 DIIS
   @DF-RHF iter   6:  -118.30807621916281   -4.61569e-06   8.90024e-07 DIIS
   @DF-RHF iter   7:  -118.30807639036456   -1.71202e-07   1.67833e-07 DIIS
   @DF-RHF iter   8:  -118.30807639785627   -7.49171e-09   2.94218e-08 DIIS
   @DF-RHF iter   9:  -118.30807639808987   -2.33598e-10   5.81183e-09 DIIS
  Energy and wave function converged.


  ==> Post-Iterations <==

    Orbital Energies [Eh]
    ---------------------

    Doubly Occupied:                                                      

       1A    -11.215579     2A    -11.207858     3A    -11.207815  
       4A     -1.054043     5A     -0.924838     6A     -0.799825  
       7A     -0.624736     8A     -0.598265     9A     -0.549395  
      10A     -0.530203    11A     -0.475536    12A     -0.474961  
      13A     -0.467988  

    Virtual:                                                              

      14A      0.032434    15A      0.046046    16A      0.051927  
      17A      0.057847    18A      0.063104    19A      0.067286  
      20A      0.073592    21A      0.086920    22A      0.092721  
      23A      0.099778    24A      0.099914    25A      0.100883  
      26A      0.107254    27A      0.108954    28A      0.112247  
      29A      0.132659    30A      0.135233    31A      0.138049  
      32A      0.143235    33A      0.148720    34A      0.153163  
      35A      0.170957    36A      0.191215    37A      0.195792  
      38A      0.220494    39A      0.233215    40A      0.249753  
      41A      0.257258    42A      0.267768    43A      0.277447  
      44A      0.280646    45A      0.285696    46A      0.290634  
      47A      0.293281    48A      0.295568    49A      0.299946  
      50A      0.313728    51A      0.324169    52A      0.324930  
      53A      0.334065    54A      0.334773    55A      0.339024  
      56A      0.341207    57A      0.349718    58A      0.352179  
      59A      0.354539    60A      0.356197    61A      0.362058  
      62A      0.366335    63A      0.371630    64A      0.382848  
      65A      0.386401    66A      0.394143    67A      0.407060  
      68A      0.416006    69A      0.420199    70A      0.427824  
      71A      0.431397    72A      0.438371    73A      0.442112  
      74A      0.466322    75A      0.478046    76A      0.484396  
      77A      0.490316    78A      0.501980    79A      0.507119  
      80A      0.509176    81A      0.523590    82A      0.533119  
      83A      0.533759    84A      0.545288    85A      0.553728  
      86A      0.562697    87A      0.570108    88A      0.571216  
      89A      0.599627    90A      0.605505    91A      0.621213  
      92A      0.627218    93A      0.634471    94A      0.647713  
      95A      0.660708    96A      0.670895    97A      0.682654  
      98A      0.690017    99A      0.704967   100A      0.720736  
     101A      0.736288   102A      0.765355   103A      0.770301  
     104A      0.771414   105A      0.787819   106A      0.797147  
     107A      0.799149   108A      0.803500   109A      0.812819  
     110A      0.844359   111A      0.872568   112A      0.873106  
     113A      0.883222   114A      0.884684   115A      0.895465  
     116A      0.964035   117A      0.972033   118A      0.975251  
     119A      0.983016   120A      1.004374   121A      1.022272  
     122A      1.047682   123A      1.075251   124A      1.085104  
     125A      1.088584   126A      1.093335   127A      1.105592  
     128A      1.113294   129A      1.128105   130A      1.147809  
     131A      1.151999   132A      1.160765   133A      1.170176  
     134A      1.182170   135A      1.186536   136A      1.199399  
     137A      1.204947   138A      1.215212   139A      1.219726  
     140A      1.257268   141A      1.265493   142A      1.271302  
     143A      1.282263   144A      1.283710   145A      1.298351  
     146A      1.322974   147A      1.326508   148A      1.332471  
     149A      1.343681   150A      1.346728   151A      1.360808  
     152A      1.363514   153A      1.367726   154A      1.370644  
     155A      1.378444   156A      1.391499   157A      1.394963  
     158A      1.405341   159A      1.420182   160A      1.434741  
     161A      1.438968   162A      1.457492   163A      1.471002  
     164A      1.487255   165A      1.514163   166A      1.522543  
     167A      1.527047   168A      1.529855   169A      1.531364  
     170A      1.538031   171A      1.556981   172A      1.563148  
     173A      1.577500   174A      1.585341   175A      1.590884  
     176A      1.603155   177A      1.606767   178A      1.609438  
     179A      1.644666   180A      1.655328   181A      1.681037  
     182A      1.686447   183A      1.691529   184A      1.695998  
     185A      1.699828   186A      1.729130   187A      1.794892  
     188A      1.814310   189A      1.816009   190A      1.821990  
     191A      1.839979   192A      1.849174   193A      1.863213  
     194A      1.896248   195A      1.902235   196A      1.913290  
     197A      1.936678   198A      1.948907   199A      1.984326  
     200A      2.022760   201A      2.057944   202A      2.061515  
     203A      2.100066   204A      2.129437   205A      2.140900  
     206A      2.184142   207A      2.326828   208A      2.346877  
     209A      2.366854   210A      2.398546   211A      2.446889  
     212A      2.475346   213A      2.532099   214A      2.579669  
     215A      2.587595   216A      2.722850   217A      2.732520  
     218A      2.742693   219A      2.768555   220A      2.802764  
     221A      2.814333   222A      2.885357   223A      2.909226  
     224A      2.919613   225A      2.927988   226A      2.934220  
     227A      3.015797   228A      3.069437   229A      3.081262  
     230A      3.118628   231A      3.138775   232A      3.142118  
     233A      3.148743   234A      3.233054   235A      3.234375  
     236A      3.272481   237A      3.293577   238A      3.313667  
     239A      3.361335   240A      3.362729   241A      3.381216  
     242A      3.414857   243A      3.416408   244A      3.416821  
     245A      3.425764   246A      3.465955   247A      3.472191  
     248A      3.479321   249A      3.499554   250A      3.502801  
     251A      3.521259   252A      3.524513   253A      3.529559  
     254A      3.539507   255A      3.549766   256A      3.552544  
     257A      3.557002   258A      3.565629   259A      3.586379  
     260A      3.595260   261A      3.597467   262A      3.605268  
     263A      3.624142   264A      3.639702   265A      3.696731  
     266A      3.698591   267A      3.712497   268A      3.723720  
     269A      3.729264   270A      3.744704   271A      3.771221  
     272A      3.774008   273A      3.786812   274A      3.798714  
     275A      3.801937   276A      3.802990   277A      3.816296  
     278A      3.819778   279A      3.862479   280A      3.881082  
     281A      3.885810   282A      3.904524   283A      3.923141  
     284A      3.925155   285A      3.929466   286A      3.937411  
     287A      3.940568   288A      3.948353   289A      3.963243  
     290A      3.999589   291A      4.037640   292A      4.064052  
     293A      4.069557   294A      4.100945   295A      4.116461  
     296A      4.153443   297A      4.156204   298A      4.176505  
     299A      4.181256   300A      4.191109   301A      4.194270  
     302A      4.201236   303A      4.205020   304A      4.219456  
     305A      4.290561   306A      4.303771   307A      4.305581  
     308A      4.310571   309A      4.322762   310A      4.324441  
     311A      4.339812   312A      4.351501   313A      4.354651  
     314A      4.361682   315A      4.391188   316A      4.399509  
     317A      4.410598   318A      4.425944   319A      4.430701  
     320A      4.436778   321A      4.453787   322A      4.481589  
     323A      4.490052   324A      4.498615   325A      4.502461  
     326A      4.504803   327A      4.506777   328A      4.509518  
     329A      4.531255   330A      4.540412   331A      4.545331  
     332A      4.581896   333A      4.583942   334A      4.596707  
     335A      4.602788   336A      4.619572   337A      4.636038  
     338A      4.664880   339A      4.674522   340A      4.677818  
     341A      4.688198   342A      4.692697   343A      4.700443  
     344A      4.715256   345A      4.742953   346A      4.768185  
     347A      4.776685   348A      4.778379   349A      4.794851  
     350A      4.796535   351A      4.800550   352A      4.803395  
     353A      4.806736   354A      4.820480   355A      4.838789  
     356A      4.841080   357A      4.849052   358A      4.877609  
     359A      4.891122   360A      4.892583   361A      4.906880  
     362A      4.918913   363A      4.949607   364A      4.955172  
     365A      4.967877   366A      4.975956   367A      4.979965  
     368A      4.998184   369A      5.014746   370A      5.016778  
     371A      5.034965   372A      5.107239   373A      5.118096  
     374A      5.118769   375A      5.126173   376A      5.145434  
     377A      5.156764   378A      5.195155   379A      5.199184  
     380A      5.246530   381A      5.254099   382A      5.271839  
     383A      5.272464   384A      5.285616   385A      5.303746  
     386A      5.352420   387A      5.383193   388A      5.391437  
     389A      5.393848   390A      5.452995   391A      5.458620  
     392A      5.509855   393A      5.568991   394A      5.577342  
     395A      5.598119   396A      5.601377   397A      5.604382  
     398A      5.619066   399A      5.621459   400A      5.716366  
     401A      5.741348   402A      5.744486   403A      5.769977  
     404A      5.776244   405A      5.790427   406A      5.808221  
     407A      5.824345   408A      5.889242   409A      5.910742  
     410A      5.918784   411A      5.934359   412A      5.944490  
     413A      5.965943   414A      6.008505   415A      6.019063  
     416A      6.076639   417A      6.165323   418A      6.178976  
     419A      6.249614   420A      6.320935   421A      6.329746  
     422A      6.363202   423A      6.410183   424A      6.414776  
     425A      6.445545   426A      6.460629   427A      6.480844  
     428A      6.500010   429A      6.500203   430A      6.542657  
     431A      6.556053   432A      6.601566   433A      6.753673  
     434A      6.895640   435A      6.967605   436A      7.296375  
     437A      7.467152   438A      7.543475   439A      7.585806  
     440A      7.591132   441A      7.666875   442A      7.683636  
     443A      7.790534   444A      7.820227   445A      7.849859  
     446A      7.899943   447A      8.020462   448A      8.158697  
     449A      8.454406   450A      9.528336   451A      9.810290  
     452A      9.874387   453A     13.732212   454A     14.286981  
     455A     14.562622   456A     44.086275   457A     45.068199  
     458A     45.597007  

    Final Occupation by Irrep:
              A 
    DOCC [    13 ]

  @DF-RHF Final Energy:  -118.30807639808987

   => Energetics <=

    Nuclear Repulsion Energy =             82.8172427563989544
    One-Electron Energy =                -321.9885509078922610
    Two-Electron Energy =                 120.8632317534034257
    Total Energy =                       -118.3080763980898666

Computation Completed


Properties will be evaluated at   0.000000,   0.000000,   0.000000 [a0]

Properties computed using the SCF density matrix

  Nuclear Dipole Moment: [e a0]
     X:   146.7958      Y:     0.0354      Z:    18.7161

  Electronic Dipole Moment: [e a0]
     X:  -146.8040      Y:    -0.0382      Z:   -18.6844

  Dipole Moment: [e a0]
     X:    -0.0081      Y:    -0.0028      Z:     0.0317     Total:     0.0328

  Dipole Moment: [D]
     X:    -0.0207      Y:    -0.0071      Z:     0.0805     Total:     0.0834


*** tstop() called on r282 at Wed Sep 15 07:19:20 2021
Module time:
	user time   =      17.47 seconds =       0.29 minutes
	system time =       0.44 seconds =       0.01 minutes
	total time  =         18 seconds =       0.30 minutes
Total time:
	user time   =      69.24 seconds =       1.15 minutes
	system time =       1.84 seconds =       0.03 minutes
	total time  =         71 seconds =       1.18 minutes
  Constructing Basis Sets for SAPT...

   => Loading Basis Set <=

    Name: (JUN-CC-PVTZ AUX)
    Role: RIFIT
    Keyword: DF_BASIS_SAPT
    atoms 1-3, 12-14  entry C          line   132 file /home/r08543048/miniconda3/share/psi4/basis/jun-cc-pvtz-ri.gbs 
    atoms 4-11, 15-22 entry H          line    30 file /home/r08543048/miniconda3/share/psi4/basis/jun-cc-pvtz-ri.gbs 


  //>>>>>>>>>>>>>>>>>>>>>>>>>>>>>>>>>>>//
  //               SAPT0               //
  //<<<<<<<<<<<<<<<<<<<<<<<<<<<<<<<<<<<//


*** tstart() called on r282
*** at Wed Sep 15 07:19:20 2021

        SAPT0  
    Ed Hohenstein
     6 June 2009

      Orbital Information
  --------------------------
    NSO        =       458
    NMO        =       458
    NRI        =      1062
    NOCC A     =        13
    NOCC B     =        13
    FOCC A     =         0
    FOCC B     =         0
    NVIR A     =       445
    NVIR B     =       445

    Elst10,r            =     0.000007855919 [Eh]
    Exch10              =     0.000003023099 [Eh]
    Exch10 (S^2)        =     0.000003023095 [Eh]

    Iter     Energy [mEh]          dE [mEh]         Residual      Time [s]
       1      -0.00018878       0.000188784       0.069734647             1
       2      -0.00021084       0.000022058       0.027596379             2
       3      -0.00021979       0.000008949       0.005360646             3
       4      -0.00021914      -0.000000653       0.001903558             3
       5      -0.00021873      -0.000000410       0.000272918             4
       6      -0.00021878       0.000000056       0.000050624             5
       7      -0.00021878      -0.000000002       0.000011632             6
       8      -0.00021878      -0.000000001       0.000002912             6
       9      -0.00021878       0.000000000       0.000000689             7

    CHF Iterations converged


    Iter     Energy [mEh]          dE [mEh]         Residual      Time [s]
       1      -0.00018872       0.000188718       0.069716497             1
       2      -0.00021076       0.000022045       0.027587212             1
       3      -0.00021971       0.000008945       0.005359205             2
       4      -0.00021906      -0.000000653       0.001903002             3
       5      -0.00021864      -0.000000410       0.000272834             4
       6      -0.00021870       0.000000056       0.000050605             4
       7      -0.00021870      -0.000000002       0.000011623             5
       8      -0.00021870      -0.000000001       0.000002905             6
       9      -0.00021870       0.000000000       0.000000689             7

    CHF Iterations converged

    Ind20,r (A<-B)      =    -0.000000218781 [Eh]
    Ind20,r (B<-A)      =    -0.000000218698 [Eh]
    Ind20,r             =    -0.000000437479 [Eh]
    Exch-Ind20,r (A<-B) =     0.000000080949 [Eh]
    Exch-Ind20,r (B<-A) =     0.000000080933 [Eh]
    Exch-Ind20,r        =     0.000000161881 [Eh]
    Disp20              =    -0.000362192209 [Eh]
    Disp20 (SS)         =    -0.000181096104 [Eh]
    Disp20 (OS)         =    -0.000181096104 [Eh]
    Exch-Disp20         =     0.000000550750 [Eh]
    Exch-Disp20 (SS)    =     0.000000414231 [Eh]
    Exch-Disp20 (OS)    =     0.000000136519 [Eh]

    SAPT Results 
  --------------------------------------------------------------------------------------------------------
    Electrostatics                  0.00785592 [mEh]       0.00492966 [kcal/mol]       0.02062571 [kJ/mol]
      Elst10,r                      0.00785592 [mEh]       0.00492966 [kcal/mol]       0.02062571 [kJ/mol]

    Exchange                        0.00302310 [mEh]       0.00189702 [kcal/mol]       0.00793714 [kJ/mol]
      Exch10                        0.00302310 [mEh]       0.00189702 [kcal/mol]       0.00793714 [kJ/mol]
      Exch10(S^2)                   0.00302310 [mEh]       0.00189702 [kcal/mol]       0.00793714 [kJ/mol]

    Induction                      -0.00046278 [mEh]      -0.00029040 [kcal/mol]      -0.00121503 [kJ/mol]
      Ind20,r                      -0.00043748 [mEh]      -0.00027452 [kcal/mol]      -0.00114860 [kJ/mol]
      Exch-Ind20,r                  0.00016188 [mEh]       0.00010158 [kcal/mol]       0.00042502 [kJ/mol]
      delta HF,r (2)               -0.00018718 [mEh]      -0.00011746 [kcal/mol]      -0.00049144 [kJ/mol]

    Dispersion                     -0.36164146 [mEh]      -0.22693344 [kcal/mol]      -0.94948952 [kJ/mol]
      Disp20                       -0.36219221 [mEh]      -0.22727904 [kcal/mol]      -0.95093551 [kJ/mol]
      Exch-Disp20                   0.00055075 [mEh]       0.00034560 [kcal/mol]       0.00144599 [kJ/mol]
      Disp20 (SS)                  -0.18109610 [mEh]      -0.11363952 [kcal/mol]      -0.47546776 [kJ/mol]
      Disp20 (OS)                  -0.18109610 [mEh]      -0.11363952 [kcal/mol]      -0.47546776 [kJ/mol]
      Exch-Disp20 (SS)              0.00041423 [mEh]       0.00025993 [kcal/mol]       0.00108756 [kJ/mol]
      Exch-Disp20 (OS)              0.00013652 [mEh]       0.00008567 [kcal/mol]       0.00035843 [kJ/mol]

  Total HF                          0.01041624 [mEh]       0.00653629 [kcal/mol]       0.02734783 [kJ/mol]
  Total SAPT0                      -0.35122522 [mEh]      -0.22039715 [kcal/mol]      -0.92214169 [kJ/mol]

  Special recipe for scaled SAPT0 (see Manual):
    Electrostatics sSAPT0           0.00785592 [mEh]       0.00492966 [kcal/mol]       0.02062571 [kJ/mol]
    Exchange sSAPT0                 0.00302310 [mEh]       0.00189702 [kcal/mol]       0.00793714 [kJ/mol]
    Induction sSAPT0               -0.00046278 [mEh]      -0.00029040 [kcal/mol]      -0.00121503 [kJ/mol]
    Dispersion sSAPT0              -0.36164146 [mEh]      -0.22693344 [kcal/mol]      -0.94948952 [kJ/mol]
  Total sSAPT0                     -0.35122522 [mEh]      -0.22039715 [kcal/mol]      -0.92214169 [kJ/mol]
  --------------------------------------------------------------------------------------------------------

*** tstop() called on r282 at Wed Sep 15 07:20:33 2021
Module time:
	user time   =      62.81 seconds =       1.05 minutes
	system time =      10.09 seconds =       0.17 minutes
	total time  =         73 seconds =       1.22 minutes
Total time:
	user time   =     132.19 seconds =       2.20 minutes
	system time =      11.93 seconds =       0.20 minutes
	total time  =        144 seconds =       2.40 minutes

    Psi4 stopped on: Wednesday, 15 September 2021 07:20AM
    Psi4 wall time for execution: 0:02:24.34

*** Psi4 exiting successfully. Buy a developer a beer!
