
    -----------------------------------------------------------------------
          Psi4: An Open-Source Ab Initio Electronic Structure Package
                               Psi4 1.3.2 release

                         Git: Rev {HEAD} ecbda83 


    R. M. Parrish, L. A. Burns, D. G. A. Smith, A. C. Simmonett,
    A. E. DePrince III, E. G. Hohenstein, U. Bozkaya, A. Yu. Sokolov,
    R. Di Remigio, R. M. Richard, J. F. Gonthier, A. M. James,
    H. R. McAlexander, A. Kumar, M. Saitow, X. Wang, B. P. Pritchard,
    P. Verma, H. F. Schaefer III, K. Patkowski, R. A. King, E. F. Valeev,
    F. A. Evangelista, J. M. Turney, T. D. Crawford, and C. D. Sherrill,
    J. Chem. Theory Comput. 13(7) pp 3185--3197 (2017).
    (doi: 10.1021/acs.jctc.7b00174)


                         Additional Contributions by
    P. Kraus, H. Kruse, M. H. Lechner, M. C. Schieber, R. A. Shaw,
    A. Alenaizan, R. Galvelis, Z. L. Glick, S. Lehtola, and J. P. Misiewicz

    -----------------------------------------------------------------------


    Psi4 started on: Wednesday, 15 September 2021 07:34AM

    Process ID: 5803
    Host:       r282
    PSIDATADIR: /home/r08543048/miniconda3/share/psi4
    Memory:     500.0 MiB
    Threads:    1
    
  ==> Input File <==

--------------------------------------------------------------------------
# Any line starting with the # character is a comment line
#! Sample  computation

memory 22 gb

molecule Dimer {

0 1
 C                 -2.08325863    2.11843719   -0.41432020
 C                 -2.98051563    1.26874619    0.09272080
 C                 -3.09250163   -0.17033781   -0.29743320
 H                 -2.04874063    3.15248019   -0.10024920
 H                 -1.36395363    1.79051119   -1.15420020
 H                 -3.68175363    1.63269519    0.83689680
 H                 -4.08026363   -0.38566581   -0.70807720
 H                 -2.34191563   -0.43125581   -1.04212620
 H                 -2.95887563   -0.82171881    0.56824080
--
0 1
 C                  2.08342263   -2.11845419    0.41484720
 C                  2.98007663   -1.26867119   -0.09310580
 C                  3.09269563    0.17029581    0.29727620
 H                  2.04842663   -3.15239219    0.10048620
 H                  1.36511063   -1.79073419    1.15578220
 H                  3.68030463   -1.63246319   -0.83831280
 H                  2.95794863    0.82192481   -0.56804180
 H                  2.34316063    0.43109481    1.04307120
 H                  4.08103963    0.38542781    0.70662220

units angstrom
no_reorient
symmetry c1
}

set globals{
  basis jun-cc-pvtz
}

energy('sapt0')
--------------------------------------------------------------------------

  Memory set to  20.489 GiB by Python driver.

  //>>>>>>>>>>>>>>>>>>>>>>>>>>>>>>>>>>>//
  //              Dimer HF             //
  //<<<<<<<<<<<<<<<<<<<<<<<<<<<<<<<<<<<//


*** tstart() called on r282
*** at Wed Sep 15 07:34:03 2021

   => Loading Basis Set <=

    Name: JUN-CC-PVTZ
    Role: ORBITAL
    Keyword: BASIS
    atoms 1-3, 10-12 entry C          line   217 file /home/r08543048/miniconda3/share/psi4/basis/jun-cc-pvtz.gbs 
    atoms 4-9, 13-18 entry H          line    36 file /home/r08543048/miniconda3/share/psi4/basis/jun-cc-pvtz.gbs 


         ---------------------------------------------------------
                                   SCF
               by Justin Turney, Rob Parrish, Andy Simmonett
                          and Daniel G. A. Smith
                              RHF Reference
                        1 Threads,  20980 MiB Core
         ---------------------------------------------------------

  ==> Geometry <==

    Molecular point group: c1
    Full point group: C1

    Geometry (in Angstrom), charge = 0, multiplicity = 1:

       Center              X                  Y                   Z               Mass       
    ------------   -----------------  -----------------  -----------------  -----------------
         C           -2.083252919938     2.118436057352    -0.414319162111    12.000000000000
         C           -2.980509919938     1.268745057352     0.092721837889    12.000000000000
         C           -3.092495919938    -0.170338942648    -0.297432162111    12.000000000000
         H           -2.048734919938     3.152479057352    -0.100248162111     1.007825032230
         H           -1.363947919938     1.790510057352    -1.154199162111     1.007825032230
         H           -3.681747919938     1.632694057352     0.836897837889     1.007825032230
         H           -4.080257919938    -0.385666942648    -0.708076162111     1.007825032230
         H           -2.341909919938    -0.431256942648    -1.042125162111     1.007825032230
         H           -2.958869919938    -0.821719942648     0.568241837889     1.007825032230
         C            2.083428340062    -2.118455322648     0.414848237889    12.000000000000
         C            2.980082340062    -1.268672322648    -0.093104762111    12.000000000000
         C            3.092701340062     0.170294677352     0.297277237889    12.000000000000
         H            2.048432340062    -3.152393322648     0.100487237889     1.007825032230
         H            1.365116340062    -1.790735322648     1.155783237889     1.007825032230
         H            3.680310340062    -1.632464322648    -0.838311762111     1.007825032230
         H            2.957954340062     0.821923677352    -0.568040762111     1.007825032230
         H            2.343166340062     0.431093677352     1.043072237889     1.007825032230
         H            4.081045340062     0.385426677352     0.706623237889     1.007825032230

  Running in c1 symmetry.

  Rotational constants: A =      0.14520  B =      0.02280  C =      0.02025 [cm^-1]
  Rotational constants: A =   4353.10666  B =    683.44867  C =    607.04854 [MHz]
  Nuclear repulsion =  192.205887633019756

  Charge       = 0
  Multiplicity = 1
  Electrons    = 48
  Nalpha       = 24
  Nbeta        = 24

  ==> Algorithm <==

  SCF Algorithm Type is DF.
  DIIS enabled.
  MOM disabled.
  Fractional occupation disabled.
  Guess Type is SAD.
  Energy threshold   = 1.00e-08
  Density threshold  = 1.00e-08
  Integral threshold = 0.00e+00

  ==> Primary Basis <==

  Basis Set: JUN-CC-PVTZ
    Blend: JUN-CC-PVTZ
    Number of shells: 150
    Number of basis function: 402
    Number of Cartesian functions: 450
    Spherical Harmonics?: true
    Max angular momentum: 3

   => Loading Basis Set <=

    Name: (JUN-CC-PVTZ AUX)
    Role: JKFIT
    Keyword: DF_BASIS_SCF
    atoms 1-3, 10-12 entry C          line   152 file /home/r08543048/miniconda3/share/psi4/basis/jun-cc-pvtz-jkfit.gbs 
    atoms 4-9, 13-18 entry H          line    70 file /home/r08543048/miniconda3/share/psi4/basis/jun-cc-pvtz-jkfit.gbs 

  ==> Pre-Iterations <==

   -------------------------------------------------------
    Irrep   Nso     Nmo     Nalpha   Nbeta   Ndocc  Nsocc
   -------------------------------------------------------
     A        402     402       0       0       0       0
   -------------------------------------------------------
    Total     402     402      24      24      24       0
   -------------------------------------------------------

  ==> Integral Setup <==

  ==> DiskDFJK: Density-Fitted J/K Matrices <==

    J tasked:                  Yes
    K tasked:                  Yes
    wK tasked:                  No
    OpenMP threads:              1
    Integrals threads:           1
    Memory [MiB]:            15735
    Algorithm:                Core
    Integral Cache:           SAVE
    Schwarz Cutoff:          1E-12
    Fitting Condition:       1E-10

   => Auxiliary Basis Set <=

  Basis Set: (JUN-CC-PVTZ AUX)
    Blend: JUN-CC-PVTZ-JKFIT
    Number of shells: 294
    Number of basis function: 930
    Number of Cartesian functions: 1116
    Spherical Harmonics?: true
    Max angular momentum: 4

  Minimum eigenvalue in the overlap matrix is 4.1340841651E-05.
  Using Symmetric Orthogonalization.

  SCF Guess: Superposition of Atomic Densities via on-the-fly atomic UHF.

  ==> Iterations <==

                           Total Energy        Delta E     RMS |[F,P]|

   @DF-RHF iter SAD:  -232.66780502933119   -2.32668e+02   0.00000e+00 
   @DF-RHF iter   1:  -233.97557075487612   -1.30777e+00   1.61319e-03 DIIS
   @DF-RHF iter   2:  -234.19067521795193   -2.15104e-01   6.94034e-04 DIIS
   @DF-RHF iter   3:  -234.23103484110362   -4.03596e-02   1.24582e-04 DIIS
   @DF-RHF iter   4:  -234.23363047761609   -2.59564e-03   3.70999e-05 DIIS
   @DF-RHF iter   5:  -234.23377644295076   -1.45965e-04   1.00931e-05 DIIS
   @DF-RHF iter   6:  -234.23378881687620   -1.23739e-05   1.83491e-06 DIIS
   @DF-RHF iter   7:  -234.23378945245713   -6.35581e-07   6.71334e-07 DIIS
   @DF-RHF iter   8:  -234.23378953695112   -8.44940e-08   2.35926e-07 DIIS
   @DF-RHF iter   9:  -234.23378954924146   -1.22903e-08   8.73816e-08 DIIS
   @DF-RHF iter  10:  -234.23378955130522   -2.06376e-09   1.98975e-08 DIIS
   @DF-RHF iter  11:  -234.23378955140009   -9.48717e-11   3.87213e-09 DIIS
  Energy and wave function converged.


  ==> Post-Iterations <==

    Orbital Energies [Eh]
    ---------------------

    Doubly Occupied:                                                      

       1A    -11.233970     2A    -11.233967     3A    -11.219906  
       4A    -11.219901     5A    -11.217082     6A    -11.217079  
       7A     -1.064386     8A     -1.064351     9A     -0.932156  
      10A     -0.932098    11A     -0.757645    12A     -0.757490  
      13A     -0.639570    14A     -0.639536    15A     -0.582101  
      16A     -0.581854    17A     -0.567651    18A     -0.567501  
      19A     -0.522632    20A     -0.522599    21A     -0.492705  
      22A     -0.492422    23A     -0.357608    24A     -0.357545  

    Virtual:                                                              

      25A      0.051337    26A      0.054509    27A      0.059840  
      28A      0.066294    29A      0.068204    30A      0.068547  
      31A      0.092221    32A      0.095602    33A      0.096724  
      34A      0.097669    35A      0.105437    36A      0.112322  
      37A      0.116157    38A      0.120815    39A      0.124430  
      40A      0.139272    41A      0.139970    42A      0.146183  
      43A      0.155013    44A      0.164192    45A      0.185520  
      46A      0.190185    47A      0.194671    48A      0.199209  
      49A      0.205273    50A      0.215748    51A      0.246112  
      52A      0.246782    53A      0.257331    54A      0.267195  
      55A      0.271396    56A      0.278411    57A      0.284794  
      58A      0.297353    59A      0.302667    60A      0.312505  
      61A      0.330492    62A      0.331806    63A      0.337050  
      64A      0.339524    65A      0.347136    66A      0.349769  
      67A      0.351870    68A      0.354798    69A      0.358870  
      70A      0.364685    71A      0.373471    72A      0.379754  
      73A      0.383650    74A      0.388393    75A      0.406863  
      76A      0.408608    77A      0.408730    78A      0.412805  
      79A      0.432391    80A      0.438127    81A      0.447725  
      82A      0.448145    83A      0.461278    84A      0.467277  
      85A      0.482326    86A      0.488305    87A      0.499223  
      88A      0.506117    89A      0.526139    90A      0.528887  
      91A      0.533519    92A      0.537957    93A      0.538762  
      94A      0.548394    95A      0.589731    96A      0.596058  
      97A      0.676473    98A      0.683383    99A      0.684363  
     100A      0.685422   101A      0.693133   102A      0.694349  
     103A      0.700233   104A      0.716845   105A      0.729534  
     106A      0.730803   107A      0.740525   108A      0.743566  
     109A      0.759802   110A      0.769442   111A      0.777128  
     112A      0.779709   113A      0.799875   114A      0.805675  
     115A      0.836931   116A      0.839228   117A      0.841095  
     118A      0.842510   119A      0.845318   120A      0.851542  
     121A      0.859899   122A      0.871361   123A      0.883609  
     124A      0.884507   125A      0.938895   126A      0.939743  
     127A      0.946454   128A      0.962339   129A      0.981810  
     130A      0.982821   131A      1.011258   132A      1.021070  
     133A      1.050363   134A      1.068752   135A      1.075137  
     136A      1.077885   137A      1.102850   138A      1.105182  
     139A      1.114542   140A      1.118419   141A      1.132835  
     142A      1.136730   143A      1.149764   144A      1.151814  
     145A      1.159834   146A      1.174254   147A      1.217602  
     148A      1.218739   149A      1.263814   150A      1.268723  
     151A      1.277467   152A      1.278499   153A      1.335781  
     154A      1.339935   155A      1.346044   156A      1.348608  
     157A      1.361457   158A      1.373297   159A      1.396364  
     160A      1.398455   161A      1.403809   162A      1.423593  
     163A      1.427725   164A      1.438900   165A      1.467704  
     166A      1.472615   167A      1.504222   168A      1.510090  
     169A      1.513550   170A      1.516072   171A      1.556073  
     172A      1.561242   173A      1.596687   174A      1.604641  
     175A      1.611765   176A      1.612238   177A      1.624792  
     178A      1.628139   179A      1.635379   180A      1.647228  
     181A      1.718797   182A      1.722736   183A      1.723867  
     184A      1.725861   185A      1.774455   186A      1.780588  
     187A      1.829781   188A      1.832531   189A      1.869322  
     190A      1.870022   191A      1.886594   192A      1.891726  
     193A      2.000529   194A      2.020303   195A      2.046496  
     196A      2.050463   197A      2.195279   198A      2.197032  
     199A      2.572487   200A      2.572806   201A      2.677560  
     202A      2.682815   203A      2.721594   204A      2.727678  
     205A      2.759577   206A      2.763337   207A      2.764413  
     208A      2.769295   209A      2.791387   210A      2.794127  
     211A      2.826061   212A      2.832905   213A      2.840996  
     214A      2.848839   215A      2.893616   216A      2.896899  
     217A      2.928236   218A      2.937712   219A      2.989817  
     220A      2.991298   221A      3.036111   222A      3.037845  
     223A      3.045947   224A      3.050569   225A      3.067222  
     226A      3.069132   227A      3.072520   228A      3.082816  
     229A      3.142955   230A      3.145413   231A      3.158882  
     232A      3.165066   233A      3.173648   234A      3.175652  
     235A      3.179294   236A      3.193456   237A      3.219895  
     238A      3.230453   239A      3.244800   240A      3.248686  
     241A      3.281031   242A      3.282356   243A      3.292797  
     244A      3.300740   245A      3.312839   246A      3.318459  
     247A      3.323419   248A      3.324602   249A      3.364113  
     250A      3.368745   251A      3.378870   252A      3.379470  
     253A      3.421964   254A      3.423275   255A      3.427932  
     256A      3.432753   257A      3.483260   258A      3.484599  
     259A      3.488520   260A      3.492772   261A      3.497540  
     262A      3.498390   263A      3.506481   264A      3.509076  
     265A      3.579027   266A      3.579253   267A      3.582335  
     268A      3.582968   269A      3.634074   270A      3.634269  
     271A      3.654409   272A      3.654607   273A      3.660164  
     274A      3.660201   275A      3.725751   276A      3.730551  
     277A      3.754288   278A      3.754897   279A      3.781023  
     280A      3.782297   281A      3.784083   282A      3.785760  
     283A      3.793004   284A      3.797594   285A      3.840156  
     286A      3.840399   287A      3.894872   288A      3.895667  
     289A      3.960165   290A      3.962618   291A      3.984497  
     292A      3.989182   293A      4.038557   294A      4.041875  
     295A      4.042497   296A      4.045781   297A      4.080765  
     298A      4.081823   299A      4.119458   300A      4.120706  
     301A      4.135922   302A      4.141625   303A      4.196472  
     304A      4.201449   305A      4.233065   306A      4.233558  
     307A      4.274631   308A      4.277806   309A      4.285836  
     310A      4.287168   311A      4.299344   312A      4.315056  
     313A      4.352649   314A      4.362047   315A      4.364619  
     316A      4.365713   317A      4.375782   318A      4.376601  
     319A      4.400694   320A      4.403535   321A      4.428114  
     322A      4.429825   323A      4.431960   324A      4.432827  
     325A      4.492943   326A      4.496218   327A      4.500208  
     328A      4.511899   329A      4.580173   330A      4.587756  
     331A      4.616373   332A      4.617409   333A      4.626517  
     334A      4.626851   335A      4.676679   336A      4.677675  
     337A      4.770568   338A      4.770761   339A      4.794231  
     340A      4.800229   341A      4.825536   342A      4.825630  
     343A      4.888681   344A      4.891027   345A      4.904452  
     346A      4.906525   347A      5.027109   348A      5.027886  
     349A      5.061186   350A      5.061480   351A      5.172250  
     352A      5.172831   353A      5.192094   354A      5.192178  
     355A      5.204742   356A      5.212096   357A      5.293501  
     358A      5.294045   359A      5.315864   360A      5.317958  
     361A      5.352413   362A      5.354030   363A      5.381668  
     364A      5.383791   365A      5.420235   366A      5.420770  
     367A      5.468836   368A      5.470243   369A      5.563453  
     370A      5.564160   371A      5.617421   372A      5.619595  
     373A      5.667392   374A      5.671880   375A      5.678794  
     376A      5.679699   377A      5.747002   378A      5.747116  
     379A      5.775634   380A      5.777409   381A      5.841960  
     382A      5.844739   383A      5.942563   384A      5.948969  
     385A      6.070746   386A      6.075460   387A      6.354316  
     388A      6.362198   389A      6.434377   390A      6.438814  
     391A      6.441176   392A      6.446242   393A      6.505829  
     394A      6.508254   395A      6.696986   396A      6.697201  
     397A     12.044802   398A     12.048804   399A     14.446987  
     400A     14.480535   401A     15.234124   402A     15.237336  

    Final Occupation by Irrep:
              A 
    DOCC [    24 ]

  @DF-RHF Final Energy:  -234.23378955140009

   => Energetics <=

    Nuclear Repulsion Energy =            192.2058876330197563
    One-Electron Energy =                -694.5318438490867266
    Two-Electron Energy =                 268.0921666646668768
    Total Energy =                       -234.2337895514000934

Computation Completed


Properties will be evaluated at   0.000000,   0.000000,   0.000000 [a0]

Properties computed using the SCF density matrix

  Nuclear Dipole Moment: [e a0]
     X:     0.0005      Y:    -0.0001      Z:     0.0001

  Electronic Dipole Moment: [e a0]
     X:    -0.0005      Y:     0.0001      Z:    -0.0002

  Dipole Moment: [e a0]
     X:    -0.0000      Y:    -0.0000      Z:    -0.0001     Total:     0.0001

  Dipole Moment: [D]
     X:    -0.0000      Y:    -0.0000      Z:    -0.0002     Total:     0.0002


*** tstop() called on r282 at Wed Sep 15 07:34:27 2021
Module time:
	user time   =      23.22 seconds =       0.39 minutes
	system time =       0.69 seconds =       0.01 minutes
	total time  =         24 seconds =       0.40 minutes
Total time:
	user time   =      23.22 seconds =       0.39 minutes
	system time =       0.69 seconds =       0.01 minutes
	total time  =         24 seconds =       0.40 minutes

  //>>>>>>>>>>>>>>>>>>>>>>>>>>>>>>>>>>>//
  //            Monomer A HF           //
  //<<<<<<<<<<<<<<<<<<<<<<<<<<<<<<<<<<<//


*** tstart() called on r282
*** at Wed Sep 15 07:34:27 2021

   => Loading Basis Set <=

    Name: JUN-CC-PVTZ
    Role: ORBITAL
    Keyword: BASIS
    atoms 1-3, 10-12 entry C          line   217 file /home/r08543048/miniconda3/share/psi4/basis/jun-cc-pvtz.gbs 
    atoms 4-9, 13-18 entry H          line    36 file /home/r08543048/miniconda3/share/psi4/basis/jun-cc-pvtz.gbs 


         ---------------------------------------------------------
                                   SCF
               by Justin Turney, Rob Parrish, Andy Simmonett
                          and Daniel G. A. Smith
                              RHF Reference
                        1 Threads,  20980 MiB Core
         ---------------------------------------------------------

  ==> Geometry <==

    Molecular point group: c1
    Full point group: C1

    Geometry (in Angstrom), charge = 0, multiplicity = 1:

       Center              X                  Y                   Z               Mass       
    ------------   -----------------  -----------------  -----------------  -----------------
         C           -2.083252919938     2.118436057352    -0.414319162111    12.000000000000
         C           -2.980509919938     1.268745057352     0.092721837889    12.000000000000
         C           -3.092495919938    -0.170338942648    -0.297432162111    12.000000000000
         H           -2.048734919938     3.152479057352    -0.100248162111     1.007825032230
         H           -1.363947919938     1.790510057352    -1.154199162111     1.007825032230
         H           -3.681747919938     1.632694057352     0.836897837889     1.007825032230
         H           -4.080257919938    -0.385666942648    -0.708076162111     1.007825032230
         H           -2.341909919938    -0.431256942648    -1.042125162111     1.007825032230
         H           -2.958869919938    -0.821719942648     0.568241837889     1.007825032230
      Gh(C)           2.083428340062    -2.118455322648     0.414848237889    12.000000000000
      Gh(C)           2.980082340062    -1.268672322648    -0.093104762111    12.000000000000
      Gh(C)           3.092701340062     0.170294677352     0.297277237889    12.000000000000
      Gh(H)           2.048432340062    -3.152393322648     0.100487237889     1.007825032230
      Gh(H)           1.365116340062    -1.790735322648     1.155783237889     1.007825032230
      Gh(H)           3.680310340062    -1.632464322648    -0.838311762111     1.007825032230
      Gh(H)           2.957954340062     0.821923677352    -0.568040762111     1.007825032230
      Gh(H)           2.343166340062     0.431093677352     1.043072237889     1.007825032230
      Gh(H)           4.081045340062     0.385426677352     0.706623237889     1.007825032230

  Running in c1 symmetry.

  Rotational constants: A =      0.14520  B =      0.02280  C =      0.02025 [cm^-1]
  Rotational constants: A =   4353.10666  B =    683.44867  C =    607.04854 [MHz]
  Nuclear repulsion =   70.871491972997745

  Charge       = 0
  Multiplicity = 1
  Electrons    = 24
  Nalpha       = 12
  Nbeta        = 12

  ==> Algorithm <==

  SCF Algorithm Type is DF.
  DIIS enabled.
  MOM disabled.
  Fractional occupation disabled.
  Guess Type is SAD.
  Energy threshold   = 1.00e-08
  Density threshold  = 1.00e-08
  Integral threshold = 0.00e+00

  ==> Primary Basis <==

  Basis Set: JUN-CC-PVTZ
    Blend: JUN-CC-PVTZ
    Number of shells: 150
    Number of basis function: 402
    Number of Cartesian functions: 450
    Spherical Harmonics?: true
    Max angular momentum: 3

   => Loading Basis Set <=

    Name: (JUN-CC-PVTZ AUX)
    Role: JKFIT
    Keyword: DF_BASIS_SCF
    atoms 1-3, 10-12 entry C          line   152 file /home/r08543048/miniconda3/share/psi4/basis/jun-cc-pvtz-jkfit.gbs 
    atoms 4-9, 13-18 entry H          line    70 file /home/r08543048/miniconda3/share/psi4/basis/jun-cc-pvtz-jkfit.gbs 

  ==> Pre-Iterations <==

   -------------------------------------------------------
    Irrep   Nso     Nmo     Nalpha   Nbeta   Ndocc  Nsocc
   -------------------------------------------------------
     A        402     402       0       0       0       0
   -------------------------------------------------------
    Total     402     402      12      12      12       0
   -------------------------------------------------------

  ==> Integral Setup <==

  ==> DiskDFJK: Density-Fitted J/K Matrices <==

    J tasked:                  Yes
    K tasked:                  Yes
    wK tasked:                  No
    OpenMP threads:              1
    Integrals threads:           1
    Memory [MiB]:            15735
    Algorithm:                Core
    Integral Cache:           LOAD
    Schwarz Cutoff:          1E-12
    Fitting Condition:       1E-10

   => Auxiliary Basis Set <=

  Basis Set: (JUN-CC-PVTZ AUX)
    Blend: JUN-CC-PVTZ-JKFIT
    Number of shells: 294
    Number of basis function: 930
    Number of Cartesian functions: 1116
    Spherical Harmonics?: true
    Max angular momentum: 4

  Minimum eigenvalue in the overlap matrix is 4.1340841651E-05.
  Using Symmetric Orthogonalization.

  SCF Guess: Superposition of Atomic Densities via on-the-fly atomic UHF.

  ==> Iterations <==

                           Total Energy        Delta E     RMS |[F,P]|

   @DF-RHF iter SAD:  -116.33324382341240   -1.16333e+02   0.00000e+00 
   @DF-RHF iter   1:  -116.98770847596299   -6.54465e-01   1.14073e-03 DIIS
   @DF-RHF iter   2:  -117.09536662934116   -1.07658e-01   4.89916e-04 DIIS
   @DF-RHF iter   3:  -117.11547739384474   -2.01108e-02   8.80055e-05 DIIS
   @DF-RHF iter   4:  -117.11677133627471   -1.29394e-03   2.64937e-05 DIIS
   @DF-RHF iter   5:  -117.11684520537953   -7.38691e-05   7.12230e-06 DIIS
   @DF-RHF iter   6:  -117.11685140594443   -6.20056e-06   1.28317e-06 DIIS
   @DF-RHF iter   7:  -117.11685171329498   -3.07351e-07   4.70940e-07 DIIS
   @DF-RHF iter   8:  -117.11685175383828   -4.05433e-08   1.63026e-07 DIIS
   @DF-RHF iter   9:  -117.11685175964500   -5.80673e-09   5.93325e-08 DIIS
   @DF-RHF iter  10:  -117.11685176058515   -9.40148e-10   1.34554e-08 DIIS
   @DF-RHF iter  11:  -117.11685176062903   -4.38831e-11   2.37900e-09 DIIS
  Energy and wave function converged.


  ==> Post-Iterations <==

    Orbital Energies [Eh]
    ---------------------

    Doubly Occupied:                                                      

       1A    -11.234392     2A    -11.220817     3A    -11.217532  
       4A     -1.064935     5A     -0.932796     6A     -0.758097  
       7A     -0.640070     8A     -0.582621     9A     -0.568359  
      10A     -0.523408    11A     -0.493157    12A     -0.357996  

    Virtual:                                                              

      13A      0.034038    14A      0.046307    15A      0.056153  
      16A      0.060647    17A      0.063942    18A      0.066188  
      19A      0.083620    20A      0.089254    21A      0.093619  
      22A      0.096363    23A      0.102733    24A      0.110507  
      25A      0.114468    26A      0.119450    27A      0.126961  
      28A      0.128917    29A      0.136002    30A      0.140947  
      31A      0.151955    32A      0.157077    33A      0.161833  
      34A      0.171466    35A      0.187081    36A      0.196616  
      37A      0.207236    38A      0.223027    39A      0.244977  
      40A      0.254795    41A      0.260361    42A      0.270079  
      43A      0.272228    44A      0.285010    45A      0.291844  
      46A      0.296137    47A      0.308209    48A      0.309683  
      49A      0.324156    50A      0.333671    51A      0.337335  
      52A      0.338815    53A      0.340661    54A      0.347233  
      55A      0.352940    56A      0.354810    57A      0.362216  
      58A      0.367809    59A      0.379120    60A      0.383801  
      61A      0.394722    62A      0.397850    63A      0.399968  
      64A      0.401970    65A      0.415174    66A      0.415377  
      67A      0.430205    68A      0.436418    69A      0.441799  
      70A      0.454127    71A      0.459867    72A      0.470959  
      73A      0.483117    74A      0.496228    75A      0.505419  
      76A      0.511958    77A      0.525795    78A      0.528252  
      79A      0.532948    80A      0.540382    81A      0.550379  
      82A      0.563294    83A      0.576691    84A      0.596685  
      85A      0.609149    86A      0.617285    87A      0.636393  
      88A      0.658031    89A      0.681112    90A      0.686816  
      91A      0.691906    92A      0.695022    93A      0.705915  
      94A      0.722536    95A      0.727833    96A      0.734036  
      97A      0.748347    98A      0.766843    99A      0.774274  
     100A      0.801920   101A      0.803432   102A      0.822982  
     103A      0.839497   104A      0.845299   105A      0.855387  
     106A      0.864327   107A      0.876366   108A      0.938765  
     109A      0.949298   110A      0.974128   111A      0.985951  
     112A      1.001146   113A      1.034915   114A      1.051914  
     115A      1.065610   116A      1.073823   117A      1.096583  
     118A      1.098002   119A      1.111035   120A      1.118166  
     121A      1.130411   122A      1.133347   123A      1.141281  
     124A      1.148897   125A      1.151546   126A      1.165164  
     127A      1.205031   128A      1.208670   129A      1.214986  
     130A      1.223356   131A      1.235896   132A      1.246803  
     133A      1.247861   134A      1.267231   135A      1.275946  
     136A      1.285704   137A      1.305692   138A      1.316290  
     139A      1.328763   140A      1.336169   141A      1.341175  
     142A      1.348940   143A      1.362729   144A      1.368899  
     145A      1.390436   146A      1.400297   147A      1.413092  
     148A      1.425660   149A      1.428295   150A      1.443307  
     151A      1.461520   152A      1.467516   153A      1.478419  
     154A      1.498517   155A      1.507248   156A      1.512171  
     157A      1.538995   158A      1.542803   159A      1.557376  
     160A      1.561995   161A      1.596779   162A      1.598880  
     163A      1.606776   164A      1.613923   165A      1.624456  
     166A      1.627754   167A      1.639834   168A      1.655716  
     169A      1.659026   170A      1.722217   171A      1.723922  
     172A      1.745288   173A      1.777657   174A      1.790920  
     175A      1.831924   176A      1.850774   177A      1.871129  
     178A      1.887644   179A      1.963804   180A      1.986593  
     181A      2.008912   182A      2.043966   183A      2.046088  
     184A      2.061581   185A      2.082250   186A      2.195773  
     187A      2.218155   188A      2.218589   189A      2.331008  
     190A      2.347972   191A      2.432772   192A      2.511992  
     193A      2.527357   194A      2.574556   195A      2.666078  
     196A      2.680672   197A      2.724233   198A      2.762483  
     199A      2.765992   200A      2.792521   201A      2.830681  
     202A      2.843653   203A      2.886054   204A      2.895449  
     205A      2.932439   206A      2.990517   207A      3.036523  
     208A      3.047752   209A      3.068626   210A      3.073665  
     211A      3.143388   212A      3.162323   213A      3.173949  
     214A      3.185689   215A      3.224119   216A      3.246280  
     217A      3.282084   218A      3.292405   219A      3.314503  
     220A      3.322808   221A      3.364798   222A      3.378359  
     223A      3.395191   224A      3.421451   225A      3.428365  
     226A      3.430982   227A      3.483287   228A      3.489346  
     229A      3.492057   230A      3.496754   231A      3.507062  
     232A      3.531372   233A      3.541203   234A      3.575431  
     235A      3.579851   236A      3.580691   237A      3.619780  
     238A      3.626830   239A      3.635118   240A      3.653569  
     241A      3.659433   242A      3.676494   243A      3.680007  
     244A      3.693392   245A      3.727523   246A      3.750509  
     247A      3.753960   248A      3.777318   249A      3.781029  
     250A      3.784059   251A      3.794235   252A      3.823713  
     253A      3.838912   254A      3.853829   255A      3.874376  
     256A      3.894859   257A      3.919794   258A      3.960250  
     259A      3.965423   260A      3.985870   261A      3.988929  
     262A      4.031600   263A      4.039504   264A      4.041764  
     265A      4.052840   266A      4.061393   267A      4.080252  
     268A      4.088195   269A      4.111592   270A      4.120015  
     271A      4.137587   272A      4.156433   273A      4.171482  
     274A      4.180303   275A      4.198065   276A      4.230847  
     277A      4.248923   278A      4.256629   279A      4.276713  
     280A      4.284999   281A      4.292338   282A      4.305613  
     283A      4.341991   284A      4.357116   285A      4.363545  
     286A      4.373201   287A      4.375413   288A      4.401044  
     289A      4.412176   290A      4.428588   291A      4.431183  
     292A      4.438493   293A      4.446203   294A      4.494676  
     295A      4.497945   296A      4.506524   297A      4.511703  
     298A      4.520333   299A      4.559649   300A      4.577112  
     301A      4.583960   302A      4.596455   303A      4.615110  
     304A      4.624394   305A      4.636822   306A      4.644252  
     307A      4.676432   308A      4.703185   309A      4.709472  
     310A      4.738573   311A      4.747712   312A      4.761830  
     313A      4.769986   314A      4.780814   315A      4.795656  
     316A      4.798230   317A      4.815206   318A      4.820494  
     319A      4.825414   320A      4.874666   321A      4.881765  
     322A      4.889173   323A      4.890965   324A      4.905749  
     325A      4.941686   326A      4.956823   327A      4.984493  
     328A      5.018226   329A      5.025022   330A      5.029317  
     331A      5.059818   332A      5.060968   333A      5.137130  
     334A      5.159612   335A      5.172093   336A      5.191790  
     337A      5.206566   338A      5.215221   339A      5.293065  
     340A      5.301274   341A      5.316888   342A      5.352712  
     343A      5.382286   344A      5.395728   345A      5.419785  
     346A      5.461142   347A      5.468963   348A      5.497526  
     349A      5.527935   350A      5.552439   351A      5.563094  
     352A      5.617574   353A      5.667150   354A      5.671658  
     355A      5.678376   356A      5.746181   357A      5.775527  
     358A      5.787854   359A      5.822067   360A      5.842688  
     361A      5.880793   362A      5.944984   363A      5.984581  
     364A      6.029229   365A      6.072260   366A      6.123656  
     367A      6.132510   368A      6.183612   369A      6.235473  
     370A      6.299985   371A      6.358182   372A      6.365440  
     373A      6.375150   374A      6.435815   375A      6.442526  
     376A      6.506308   377A      6.593989   378A      6.696365  
     379A      6.708714   380A      6.718870   381A      6.833557  
     382A      7.078940   383A      7.371522   384A      7.410865  
     385A      7.519113   386A      7.591855   387A      7.638525  
     388A      7.803940   389A      7.906930   390A      7.975862  
     391A      8.088713   392A      8.283060   393A      8.705289  
     394A      9.337269   395A      9.814378   396A     10.183522  
     397A     12.046448   398A     14.462937   399A     15.235274  
     400A     40.413167   401A     45.599074   402A     46.983433  

    Final Occupation by Irrep:
              A 
    DOCC [    12 ]

  @DF-RHF Final Energy:  -117.11685176062903

   => Energetics <=

    Nuclear Repulsion Energy =             70.8714919729977453
    One-Electron Energy =                -296.7883270434723499
    Two-Electron Energy =                 108.7999833098455724
    Total Energy =                       -117.1168517606290322

Computation Completed


Properties will be evaluated at   0.000000,   0.000000,   0.000000 [a0]

Properties computed using the SCF density matrix

  Nuclear Dipole Moment: [e a0]
     X:  -123.6127      Y:    45.8034      Z:   -10.0414

  Electronic Dipole Moment: [e a0]
     X:   123.5301      Y:   -45.9458      Z:    10.0667

  Dipole Moment: [e a0]
     X:    -0.0826      Y:    -0.1424      Z:     0.0253     Total:     0.1666

  Dipole Moment: [D]
     X:    -0.2100      Y:    -0.3621      Z:     0.0642     Total:     0.4235


*** tstop() called on r282 at Wed Sep 15 07:34:39 2021
Module time:
	user time   =      11.74 seconds =       0.20 minutes
	system time =       0.30 seconds =       0.01 minutes
	total time  =         12 seconds =       0.20 minutes
Total time:
	user time   =      34.96 seconds =       0.58 minutes
	system time =       0.99 seconds =       0.02 minutes
	total time  =         36 seconds =       0.60 minutes

  //>>>>>>>>>>>>>>>>>>>>>>>>>>>>>>>>>>>//
  //            Monomer B HF           //
  //<<<<<<<<<<<<<<<<<<<<<<<<<<<<<<<<<<<//


*** tstart() called on r282
*** at Wed Sep 15 07:34:39 2021

   => Loading Basis Set <=

    Name: JUN-CC-PVTZ
    Role: ORBITAL
    Keyword: BASIS
    atoms 1-3, 10-12 entry C          line   217 file /home/r08543048/miniconda3/share/psi4/basis/jun-cc-pvtz.gbs 
    atoms 4-9, 13-18 entry H          line    36 file /home/r08543048/miniconda3/share/psi4/basis/jun-cc-pvtz.gbs 


         ---------------------------------------------------------
                                   SCF
               by Justin Turney, Rob Parrish, Andy Simmonett
                          and Daniel G. A. Smith
                              RHF Reference
                        1 Threads,  20980 MiB Core
         ---------------------------------------------------------

  ==> Geometry <==

    Molecular point group: c1
    Full point group: C1

    Geometry (in Angstrom), charge = 0, multiplicity = 1:

       Center              X                  Y                   Z               Mass       
    ------------   -----------------  -----------------  -----------------  -----------------
      Gh(C)          -2.083252919938     2.118436057352    -0.414319162111    12.000000000000
      Gh(C)          -2.980509919938     1.268745057352     0.092721837889    12.000000000000
      Gh(C)          -3.092495919938    -0.170338942648    -0.297432162111    12.000000000000
      Gh(H)          -2.048734919938     3.152479057352    -0.100248162111     1.007825032230
      Gh(H)          -1.363947919938     1.790510057352    -1.154199162111     1.007825032230
      Gh(H)          -3.681747919938     1.632694057352     0.836897837889     1.007825032230
      Gh(H)          -4.080257919938    -0.385666942648    -0.708076162111     1.007825032230
      Gh(H)          -2.341909919938    -0.431256942648    -1.042125162111     1.007825032230
      Gh(H)          -2.958869919938    -0.821719942648     0.568241837889     1.007825032230
         C            2.083428340062    -2.118455322648     0.414848237889    12.000000000000
         C            2.980082340062    -1.268672322648    -0.093104762111    12.000000000000
         C            3.092701340062     0.170294677352     0.297277237889    12.000000000000
         H            2.048432340062    -3.152393322648     0.100487237889     1.007825032230
         H            1.365116340062    -1.790735322648     1.155783237889     1.007825032230
         H            3.680310340062    -1.632464322648    -0.838311762111     1.007825032230
         H            2.957954340062     0.821923677352    -0.568040762111     1.007825032230
         H            2.343166340062     0.431093677352     1.043072237889     1.007825032230
         H            4.081045340062     0.385426677352     0.706623237889     1.007825032230

  Running in c1 symmetry.

  Rotational constants: A =      0.14520  B =      0.02280  C =      0.02025 [cm^-1]
  Rotational constants: A =   4353.10666  B =    683.44867  C =    607.04854 [MHz]
  Nuclear repulsion =   70.871383723929796

  Charge       = 0
  Multiplicity = 1
  Electrons    = 24
  Nalpha       = 12
  Nbeta        = 12

  ==> Algorithm <==

  SCF Algorithm Type is DF.
  DIIS enabled.
  MOM disabled.
  Fractional occupation disabled.
  Guess Type is SAD.
  Energy threshold   = 1.00e-08
  Density threshold  = 1.00e-08
  Integral threshold = 0.00e+00

  ==> Primary Basis <==

  Basis Set: JUN-CC-PVTZ
    Blend: JUN-CC-PVTZ
    Number of shells: 150
    Number of basis function: 402
    Number of Cartesian functions: 450
    Spherical Harmonics?: true
    Max angular momentum: 3

   => Loading Basis Set <=

    Name: (JUN-CC-PVTZ AUX)
    Role: JKFIT
    Keyword: DF_BASIS_SCF
    atoms 1-3, 10-12 entry C          line   152 file /home/r08543048/miniconda3/share/psi4/basis/jun-cc-pvtz-jkfit.gbs 
    atoms 4-9, 13-18 entry H          line    70 file /home/r08543048/miniconda3/share/psi4/basis/jun-cc-pvtz-jkfit.gbs 

  ==> Pre-Iterations <==

   -------------------------------------------------------
    Irrep   Nso     Nmo     Nalpha   Nbeta   Ndocc  Nsocc
   -------------------------------------------------------
     A        402     402       0       0       0       0
   -------------------------------------------------------
    Total     402     402      12      12      12       0
   -------------------------------------------------------

  ==> Integral Setup <==

  ==> DiskDFJK: Density-Fitted J/K Matrices <==

    J tasked:                  Yes
    K tasked:                  Yes
    wK tasked:                  No
    OpenMP threads:              1
    Integrals threads:           1
    Memory [MiB]:            15735
    Algorithm:                Core
    Integral Cache:           LOAD
    Schwarz Cutoff:          1E-12
    Fitting Condition:       1E-10

   => Auxiliary Basis Set <=

  Basis Set: (JUN-CC-PVTZ AUX)
    Blend: JUN-CC-PVTZ-JKFIT
    Number of shells: 294
    Number of basis function: 930
    Number of Cartesian functions: 1116
    Spherical Harmonics?: true
    Max angular momentum: 4

  Minimum eigenvalue in the overlap matrix is 4.1340841651E-05.
  Using Symmetric Orthogonalization.

  SCF Guess: Superposition of Atomic Densities via on-the-fly atomic UHF.

  ==> Iterations <==

                           Total Energy        Delta E     RMS |[F,P]|

   @DF-RHF iter SAD:  -116.33323949018842   -1.16333e+02   0.00000e+00 
   @DF-RHF iter   1:  -116.98770848339004   -6.54469e-01   1.14073e-03 DIIS
   @DF-RHF iter   2:  -117.09536677499003   -1.07658e-01   4.89916e-04 DIIS
   @DF-RHF iter   3:  -117.11547757791504   -2.01108e-02   8.80059e-05 DIIS
   @DF-RHF iter   4:  -117.11677153140494   -1.29395e-03   2.64945e-05 DIIS
   @DF-RHF iter   5:  -117.11684540439074   -7.38730e-05   7.12231e-06 DIIS
   @DF-RHF iter   6:  -117.11685160504180   -6.20065e-06   1.28319e-06 DIIS
   @DF-RHF iter   7:  -117.11685191240242   -3.07361e-07   4.70955e-07 DIIS
   @DF-RHF iter   8:  -117.11685195294613   -4.05437e-08   1.63031e-07 DIIS
   @DF-RHF iter   9:  -117.11685195875603   -5.80989e-09   5.93336e-08 DIIS
   @DF-RHF iter  10:  -117.11685195969557   -9.39536e-10   1.34553e-08 DIIS
   @DF-RHF iter  11:  -117.11685195973909   -4.35278e-11   2.37895e-09 DIIS
  Energy and wave function converged.


  ==> Post-Iterations <==

    Orbital Energies [Eh]
    ---------------------

    Doubly Occupied:                                                      

       1A    -11.234392     2A    -11.220818     3A    -11.217532  
       4A     -1.064934     5A     -0.932798     6A     -0.758096  
       7A     -0.640068     8A     -0.582625     9A     -0.568359  
      10A     -0.523408    11A     -0.493155    12A     -0.357996  

    Virtual:                                                              

      13A      0.034043    14A      0.046309    15A      0.056150  
      16A      0.060643    17A      0.063943    18A      0.066191  
      19A      0.083608    20A      0.089255    21A      0.093616  
      22A      0.096377    23A      0.102734    24A      0.110509  
      25A      0.114463    26A      0.119443    27A      0.126973  
      28A      0.128903    29A      0.136007    30A      0.140949  
      31A      0.151946    32A      0.157106    33A      0.161850  
      34A      0.171475    35A      0.187078    36A      0.196609  
      37A      0.207229    38A      0.223016    39A      0.244990  
      40A      0.254781    41A      0.260359    42A      0.270042  
      43A      0.272243    44A      0.285025    45A      0.291827  
      46A      0.296150    47A      0.308202    48A      0.309689  
      49A      0.324161    50A      0.333654    51A      0.337352  
      52A      0.338805    53A      0.340684    54A      0.347219  
      55A      0.352933    56A      0.354810    57A      0.362218  
      58A      0.367822    59A      0.379114    60A      0.383841  
      61A      0.394732    62A      0.397843    63A      0.399982  
      64A      0.401965    65A      0.415178    66A      0.415341  
      67A      0.430189    68A      0.436448    69A      0.441797  
      70A      0.454164    71A      0.459888    72A      0.470965  
      73A      0.483121    74A      0.496238    75A      0.505407  
      76A      0.511966    77A      0.525761    78A      0.528264  
      79A      0.532941    80A      0.540365    81A      0.550352  
      82A      0.563289    83A      0.576697    84A      0.596715  
      85A      0.609149    86A      0.617279    87A      0.636384  
      88A      0.658048    89A      0.681112    90A      0.686817  
      91A      0.691912    92A      0.695024    93A      0.705948  
      94A      0.722542    95A      0.727784    96A      0.734054  
      97A      0.748359    98A      0.766836    99A      0.774278  
     100A      0.801906   101A      0.803437   102A      0.822965  
     103A      0.839507   104A      0.845303   105A      0.855380  
     106A      0.864330   107A      0.876383   108A      0.938750  
     109A      0.949305   110A      0.974120   111A      0.985940  
     112A      1.001172   113A      1.034927   114A      1.051909  
     115A      1.065639   116A      1.073827   117A      1.096582  
     118A      1.098030   119A      1.111055   120A      1.118161  
     121A      1.130412   122A      1.133336   123A      1.141285  
     124A      1.148902   125A      1.151521   126A      1.165147  
     127A      1.205025   128A      1.208649   129A      1.214972  
     130A      1.223428   131A      1.235892   132A      1.246801  
     133A      1.247844   134A      1.267229   135A      1.275926  
     136A      1.285702   137A      1.305732   138A      1.316290  
     139A      1.328756   140A      1.336159   141A      1.341173  
     142A      1.348958   143A      1.362734   144A      1.368903  
     145A      1.390427   146A      1.400284   147A      1.413079  
     148A      1.425684   149A      1.428302   150A      1.443302  
     151A      1.461525   152A      1.467524   153A      1.478408  
     154A      1.498532   155A      1.507262   156A      1.512177  
     157A      1.538998   158A      1.542796   159A      1.557357  
     160A      1.562005   161A      1.596787   162A      1.598869  
     163A      1.606749   164A      1.613896   165A      1.624476  
     166A      1.627777   167A      1.639853   168A      1.655729  
     169A      1.659009   170A      1.722217   171A      1.723918  
     172A      1.745287   173A      1.777652   174A      1.790925  
     175A      1.831940   176A      1.850764   177A      1.871145  
     178A      1.887643   179A      1.963810   180A      1.986614  
     181A      2.008904   182A      2.043963   183A      2.046086  
     184A      2.061557   185A      2.082248   186A      2.195785  
     187A      2.218162   188A      2.218588   189A      2.331011  
     190A      2.347970   191A      2.432777   192A      2.512003  
     193A      2.527356   194A      2.574573   195A      2.666067  
     196A      2.680679   197A      2.724257   198A      2.762491  
     199A      2.765982   200A      2.792530   201A      2.830692  
     202A      2.843654   203A      2.886053   204A      2.895458  
     205A      2.932446   206A      2.990533   207A      3.036521  
     208A      3.047754   209A      3.068623   210A      3.073674  
     211A      3.143383   212A      3.162327   213A      3.173953  
     214A      3.185696   215A      3.224109   216A      3.246281  
     217A      3.282086   218A      3.292397   219A      3.314500  
     220A      3.322807   221A      3.364794   222A      3.378354  
     223A      3.395186   224A      3.421447   225A      3.428359  
     226A      3.430990   227A      3.483276   228A      3.489359  
     229A      3.492056   230A      3.496754   231A      3.507068  
     232A      3.531374   233A      3.541195   234A      3.575437  
     235A      3.579852   236A      3.580700   237A      3.619779  
     238A      3.626823   239A      3.635115   240A      3.653558  
     241A      3.659427   242A      3.676498   243A      3.679994  
     244A      3.693397   245A      3.727525   246A      3.750513  
     247A      3.753965   248A      3.777323   249A      3.781033  
     250A      3.784047   251A      3.794237   252A      3.823719  
     253A      3.838918   254A      3.853839   255A      3.874380  
     256A      3.894849   257A      3.919805   258A      3.960249  
     259A      3.965420   260A      3.985857   261A      3.988939  
     262A      4.031602   263A      4.039514   264A      4.041775  
     265A      4.052841   266A      4.061395   267A      4.080249  
     268A      4.088202   269A      4.111607   270A      4.120004  
     271A      4.137616   272A      4.156428   273A      4.171484  
     274A      4.180315   275A      4.198058   276A      4.230849  
     277A      4.248911   278A      4.256642   279A      4.276723  
     280A      4.285003   281A      4.292338   282A      4.305625  
     283A      4.341993   284A      4.357104   285A      4.363542  
     286A      4.373204   287A      4.375407   288A      4.401042  
     289A      4.412197   290A      4.428590   291A      4.431178  
     292A      4.438491   293A      4.446195   294A      4.494678  
     295A      4.497941   296A      4.506514   297A      4.511705  
     298A      4.520351   299A      4.559654   300A      4.577111  
     301A      4.583969   302A      4.596455   303A      4.615098  
     304A      4.624396   305A      4.636836   306A      4.644264  
     307A      4.676423   308A      4.703192   309A      4.709475  
     310A      4.738565   311A      4.747662   312A      4.761828  
     313A      4.769980   314A      4.780816   315A      4.795670  
     316A      4.798225   317A      4.815208   318A      4.820497  
     319A      4.825425   320A      4.874676   321A      4.881769  
     322A      4.889156   323A      4.890979   324A      4.905752  
     325A      4.941693   326A      4.956819   327A      4.984507  
     328A      5.018230   329A      5.025027   330A      5.029308  
     331A      5.059820   332A      5.060976   333A      5.137132  
     334A      5.159605   335A      5.172082   336A      5.191797  
     337A      5.206562   338A      5.215227   339A      5.293065  
     340A      5.301285   341A      5.316885   342A      5.352712  
     343A      5.382292   344A      5.395731   345A      5.419783  
     346A      5.461146   347A      5.468963   348A      5.497524  
     349A      5.527943   350A      5.552437   351A      5.563081  
     352A      5.617571   353A      5.667147   354A      5.671671  
     355A      5.678376   356A      5.746175   357A      5.775535  
     358A      5.787864   359A      5.822065   360A      5.842681  
     361A      5.880804   362A      5.944964   363A      5.984574  
     364A      6.029238   365A      6.072281   366A      6.123658  
     367A      6.132512   368A      6.183615   369A      6.235508  
     370A      6.299990   371A      6.358199   372A      6.365439  
     373A      6.375153   374A      6.435809   375A      6.442528  
     376A      6.506297   377A      6.593989   378A      6.696376  
     379A      6.708729   380A      6.718856   381A      6.833566  
     382A      7.078957   383A      7.371512   384A      7.410861  
     385A      7.519110   386A      7.591856   387A      7.638516  
     388A      7.803955   389A      7.906956   390A      7.975855  
     391A      8.088746   392A      8.283059   393A      8.705275  
     394A      9.337272   395A      9.814375   396A     10.183522  
     397A     12.046439   398A     14.462914   399A     15.235278  
     400A     40.413200   401A     45.599128   402A     46.983410  

    Final Occupation by Irrep:
              A 
    DOCC [    12 ]

  @DF-RHF Final Energy:  -117.11685195973909

   => Energetics <=

    Nuclear Repulsion Energy =             70.8713837239297959
    One-Electron Energy =                -296.7881069309511304
    Two-Electron Energy =                 108.7998712472822405
    Total Energy =                       -117.1168519597390940

Computation Completed


Properties will be evaluated at   0.000000,   0.000000,   0.000000 [a0]

Properties computed using the SCF density matrix

  Nuclear Dipole Moment: [e a0]
     X:   123.6132      Y:   -45.8035      Z:    10.0415

  Electronic Dipole Moment: [e a0]
     X:  -123.5306      Y:    45.9459      Z:   -10.0668

  Dipole Moment: [e a0]
     X:     0.0826      Y:     0.1425      Z:    -0.0253     Total:     0.1666

  Dipole Moment: [D]
     X:     0.2100      Y:     0.3621      Z:    -0.0644     Total:     0.4235


*** tstop() called on r282 at Wed Sep 15 07:34:51 2021
Module time:
	user time   =      11.81 seconds =       0.20 minutes
	system time =       0.32 seconds =       0.01 minutes
	total time  =         12 seconds =       0.20 minutes
Total time:
	user time   =      46.77 seconds =       0.78 minutes
	system time =       1.31 seconds =       0.02 minutes
	total time  =         48 seconds =       0.80 minutes
  Constructing Basis Sets for SAPT...

   => Loading Basis Set <=

    Name: (JUN-CC-PVTZ AUX)
    Role: RIFIT
    Keyword: DF_BASIS_SAPT
    atoms 1-3, 10-12 entry C          line   132 file /home/r08543048/miniconda3/share/psi4/basis/jun-cc-pvtz-ri.gbs 
    atoms 4-9, 13-18 entry H          line    30 file /home/r08543048/miniconda3/share/psi4/basis/jun-cc-pvtz-ri.gbs 


  //>>>>>>>>>>>>>>>>>>>>>>>>>>>>>>>>>>>//
  //               SAPT0               //
  //<<<<<<<<<<<<<<<<<<<<<<<<<<<<<<<<<<<//


*** tstart() called on r282
*** at Wed Sep 15 07:34:51 2021

        SAPT0  
    Ed Hohenstein
     6 June 2009

      Orbital Information
  --------------------------
    NSO        =       402
    NMO        =       402
    NRI        =       942
    NOCC A     =        12
    NOCC B     =        12
    FOCC A     =         0
    FOCC B     =         0
    NVIR A     =       390
    NVIR B     =       390

    Elst10,r            =    -0.000090588562 [Eh]
    Exch10              =     0.000010414666 [Eh]
    Exch10 (S^2)        =     0.000010414619 [Eh]

    Iter     Energy [mEh]          dE [mEh]         Residual      Time [s]
       1      -0.00276055       0.002760552       0.286781138             0
       2      -0.00322240       0.000461847       0.113514106             1
       3      -0.00334753       0.000125128       0.021665106             1
       4      -0.00333716      -0.000010367       0.010516063             2
       5      -0.00333075      -0.000006413       0.002480368             2
       6      -0.00333179       0.000001038       0.001328360             3
       7      -0.00333242       0.000000631       0.000287767             3
       8      -0.00333227      -0.000000147       0.000062570             4
       9      -0.00333226      -0.000000004       0.000015366             4
      10      -0.00333227       0.000000004       0.000004860             5
      11      -0.00333227       0.000000001       0.000001051             5
      12      -0.00333227      -0.000000000       0.000000266             5

    CHF Iterations converged


    Iter     Energy [mEh]          dE [mEh]         Residual      Time [s]
       1      -0.00275630       0.002756299       0.286423087             1
       2      -0.00321727       0.000460973       0.113381370             1
       3      -0.00334210       0.000124824       0.021652896             2
       4      -0.00333180      -0.000010292       0.010513841             2
       5      -0.00332538      -0.000006424       0.002481770             3
       6      -0.00332641       0.000001025       0.001327617             3
       7      -0.00332704       0.000000634       0.000287476             4
       8      -0.00332689      -0.000000147       0.000062566             4
       9      -0.00332689      -0.000000004       0.000015380             5
      10      -0.00332689       0.000000004       0.000004860             5
      11      -0.00332689       0.000000001       0.000001052             6
      12      -0.00332689      -0.000000000       0.000000267             6

    CHF Iterations converged

    Ind20,r (A<-B)      =    -0.000003332269 [Eh]
    Ind20,r (B<-A)      =    -0.000003326893 [Eh]
    Ind20,r             =    -0.000006659162 [Eh]
    Exch-Ind20,r (A<-B) =     0.000000803552 [Eh]
    Exch-Ind20,r (B<-A) =     0.000000805189 [Eh]
    Exch-Ind20,r        =     0.000001608741 [Eh]
    Disp20              =    -0.000406155261 [Eh]
    Disp20 (SS)         =    -0.000203077631 [Eh]
    Disp20 (OS)         =    -0.000203077631 [Eh]
    Exch-Disp20         =     0.000002010138 [Eh]
    Exch-Disp20 (SS)    =     0.000001457412 [Eh]
    Exch-Disp20 (OS)    =     0.000000552726 [Eh]

    SAPT Results 
  --------------------------------------------------------------------------------------------------------
    Electrostatics                 -0.09058856 [mEh]      -0.05684518 [kcal/mol]      -0.23784024 [kJ/mol]
      Elst10,r                     -0.09058856 [mEh]      -0.05684518 [kcal/mol]      -0.23784024 [kJ/mol]

    Exchange                        0.01041467 [mEh]       0.00653530 [kcal/mol]       0.02734370 [kJ/mol]
      Exch10                        0.01041467 [mEh]       0.00653530 [kcal/mol]       0.02734370 [kJ/mol]
      Exch10(S^2)                   0.01041462 [mEh]       0.00653527 [kcal/mol]       0.02734358 [kJ/mol]

    Induction                      -0.00565714 [mEh]      -0.00354991 [kcal/mol]      -0.01485281 [kJ/mol]
      Ind20,r                      -0.00665916 [mEh]      -0.00417869 [kcal/mol]      -0.01748363 [kJ/mol]
      Exch-Ind20,r                  0.00160874 [mEh]       0.00100950 [kcal/mol]       0.00422375 [kJ/mol]
      delta HF,r (2)               -0.00060671 [mEh]      -0.00038072 [kcal/mol]      -0.00159293 [kJ/mol]

    Dispersion                     -0.40414512 [mEh]      -0.25360489 [kcal/mol]      -1.06108288 [kJ/mol]
      Disp20                       -0.40615526 [mEh]      -0.25486627 [kcal/mol]      -1.06636049 [kJ/mol]
      Exch-Disp20                   0.00201014 [mEh]       0.00126138 [kcal/mol]       0.00527762 [kJ/mol]
      Disp20 (SS)                  -0.20307763 [mEh]      -0.12743314 [kcal/mol]      -0.53318025 [kJ/mol]
      Disp20 (OS)                  -0.20307763 [mEh]      -0.12743314 [kcal/mol]      -0.53318025 [kJ/mol]
      Exch-Disp20 (SS)              0.00145741 [mEh]       0.00091454 [kcal/mol]       0.00382643 [kJ/mol]
      Exch-Disp20 (OS)              0.00055273 [mEh]       0.00034684 [kcal/mol]       0.00145118 [kJ/mol]

  Total HF                         -0.08583103 [mEh]      -0.05385979 [kcal/mol]      -0.22534934 [kJ/mol]
  Total SAPT0                      -0.48997616 [mEh]      -0.30746468 [kcal/mol]      -1.28643222 [kJ/mol]

  Special recipe for scaled SAPT0 (see Manual):
    Electrostatics sSAPT0          -0.09058856 [mEh]      -0.05684518 [kcal/mol]      -0.23784024 [kJ/mol]
    Exchange sSAPT0                 0.01041467 [mEh]       0.00653530 [kcal/mol]       0.02734370 [kJ/mol]
    Induction sSAPT0               -0.00565711 [mEh]      -0.00354989 [kcal/mol]      -0.01485275 [kJ/mol]
    Dispersion sSAPT0              -0.40414510 [mEh]      -0.25360488 [kcal/mol]      -1.06108280 [kJ/mol]
  Total sSAPT0                     -0.48997611 [mEh]      -0.30746465 [kcal/mol]      -1.28643209 [kJ/mol]
  --------------------------------------------------------------------------------------------------------

*** tstop() called on r282 at Wed Sep 15 07:35:40 2021
Module time:
	user time   =      40.89 seconds =       0.68 minutes
	system time =       7.95 seconds =       0.13 minutes
	total time  =         49 seconds =       0.82 minutes
Total time:
	user time   =      87.78 seconds =       1.46 minutes
	system time =       9.26 seconds =       0.15 minutes
	total time  =         97 seconds =       1.62 minutes

    Psi4 stopped on: Wednesday, 15 September 2021 07:35AM
    Psi4 wall time for execution: 0:01:37.19

*** Psi4 exiting successfully. Buy a developer a beer!
