
    -----------------------------------------------------------------------
          Psi4: An Open-Source Ab Initio Electronic Structure Package
                               Psi4 1.3.2 release

                         Git: Rev {HEAD} ecbda83 


    R. M. Parrish, L. A. Burns, D. G. A. Smith, A. C. Simmonett,
    A. E. DePrince III, E. G. Hohenstein, U. Bozkaya, A. Yu. Sokolov,
    R. Di Remigio, R. M. Richard, J. F. Gonthier, A. M. James,
    H. R. McAlexander, A. Kumar, M. Saitow, X. Wang, B. P. Pritchard,
    P. Verma, H. F. Schaefer III, K. Patkowski, R. A. King, E. F. Valeev,
    F. A. Evangelista, J. M. Turney, T. D. Crawford, and C. D. Sherrill,
    J. Chem. Theory Comput. 13(7) pp 3185--3197 (2017).
    (doi: 10.1021/acs.jctc.7b00174)


                         Additional Contributions by
    P. Kraus, H. Kruse, M. H. Lechner, M. C. Schieber, R. A. Shaw,
    A. Alenaizan, R. Galvelis, Z. L. Glick, S. Lehtola, and J. P. Misiewicz

    -----------------------------------------------------------------------


    Psi4 started on: Wednesday, 15 September 2021 07:26AM

    Process ID: 5539
    Host:       r282
    PSIDATADIR: /home/r08543048/miniconda3/share/psi4
    Memory:     500.0 MiB
    Threads:    1
    
  ==> Input File <==

--------------------------------------------------------------------------
# Any line starting with the # character is a comment line
#! Sample  computation

memory 22 gb

molecule Dimer {

0 1
 C                 -1.56242347    1.58882577   -0.31067428
 C                 -2.45968047    0.73913477    0.19636672
 C                 -2.57166647   -0.69994923   -0.19378728
 H                 -1.52790547    2.62286877    0.00339672
 H                 -0.84311847    1.26089977   -1.05055428
 H                 -3.16091847    1.10308377    0.94054272
 H                 -3.55942847   -0.91527723   -0.60443128
 H                 -1.82108047   -0.96086723   -0.93848028
 H                 -2.43804047   -1.35133023    0.67188672
--
0 1
 C                  1.56258747   -1.58884277    0.31120128
 C                  2.45924147   -0.73905977   -0.19675172
 C                  2.57186047    0.69990723    0.19363028
 H                  1.52759147   -2.62278077   -0.00315972
 H                  0.84427547   -1.26112277    1.05213628
 H                  3.15946947   -1.10285177   -0.94195872
 H                  2.43711347    1.35153623   -0.67168772
 H                  1.82232547    0.96070623    0.93942528
 H                  3.56020447    0.91503923    0.60297628

units angstrom
no_reorient
symmetry c1
}

set globals{
  basis jun-cc-pvtz
}

energy('sapt0')
--------------------------------------------------------------------------

  Memory set to  20.489 GiB by Python driver.

  //>>>>>>>>>>>>>>>>>>>>>>>>>>>>>>>>>>>//
  //              Dimer HF             //
  //<<<<<<<<<<<<<<<<<<<<<<<<<<<<<<<<<<<//


*** tstart() called on r282
*** at Wed Sep 15 07:26:17 2021

   => Loading Basis Set <=

    Name: JUN-CC-PVTZ
    Role: ORBITAL
    Keyword: BASIS
    atoms 1-3, 10-12 entry C          line   217 file /home/r08543048/miniconda3/share/psi4/basis/jun-cc-pvtz.gbs 
    atoms 4-9, 13-18 entry H          line    36 file /home/r08543048/miniconda3/share/psi4/basis/jun-cc-pvtz.gbs 


         ---------------------------------------------------------
                                   SCF
               by Justin Turney, Rob Parrish, Andy Simmonett
                          and Daniel G. A. Smith
                              RHF Reference
                        1 Threads,  20980 MiB Core
         ---------------------------------------------------------

  ==> Geometry <==

    Molecular point group: c1
    Full point group: C1

    Geometry (in Angstrom), charge = 0, multiplicity = 1:

       Center              X                  Y                   Z               Mass       
    ------------   -----------------  -----------------  -----------------  -----------------
         C           -1.562417759938     1.588824637352    -0.310673242111    12.000000000000
         C           -2.459674759938     0.739133637352     0.196367757889    12.000000000000
         C           -2.571660759938    -0.699950362648    -0.193786242111    12.000000000000
         H           -1.527899759938     2.622867637352     0.003397757889     1.007825032230
         H           -0.843112759938     1.260898637352    -1.050553242111     1.007825032230
         H           -3.160912759938     1.103082637352     0.940543757889     1.007825032230
         H           -3.559422759938    -0.915278362648    -0.604430242111     1.007825032230
         H           -1.821074759938    -0.960868362648    -0.938479242111     1.007825032230
         H           -2.438034759938    -1.351331362648     0.671887757889     1.007825032230
         C            1.562593180062    -1.588843902648     0.311202317889    12.000000000000
         C            2.459247180062    -0.739060902648    -0.196750682111    12.000000000000
         C            2.571866180062     0.699906097352     0.193631317889    12.000000000000
         H            1.527597180062    -2.622781902648    -0.003158682111     1.007825032230
         H            0.844281180062    -1.261123902648     1.052137317889     1.007825032230
         H            3.159475180062    -1.102852902648    -0.941957682111     1.007825032230
         H            2.437119180062     1.351535097352    -0.671686682111     1.007825032230
         H            1.822331180062     0.960705097352     0.939426317889     1.007825032230
         H            3.560210180062     0.915038097352     0.602977317889     1.007825032230

  Running in c1 symmetry.

  Rotational constants: A =      0.15002  B =      0.03701  C =      0.03090 [cm^-1]
  Rotational constants: A =   4497.54620  B =   1109.39475  C =    926.22695 [MHz]
  Nuclear repulsion =  205.717724479222483

  Charge       = 0
  Multiplicity = 1
  Electrons    = 48
  Nalpha       = 24
  Nbeta        = 24

  ==> Algorithm <==

  SCF Algorithm Type is DF.
  DIIS enabled.
  MOM disabled.
  Fractional occupation disabled.
  Guess Type is SAD.
  Energy threshold   = 1.00e-08
  Density threshold  = 1.00e-08
  Integral threshold = 0.00e+00

  ==> Primary Basis <==

  Basis Set: JUN-CC-PVTZ
    Blend: JUN-CC-PVTZ
    Number of shells: 150
    Number of basis function: 402
    Number of Cartesian functions: 450
    Spherical Harmonics?: true
    Max angular momentum: 3

   => Loading Basis Set <=

    Name: (JUN-CC-PVTZ AUX)
    Role: JKFIT
    Keyword: DF_BASIS_SCF
    atoms 1-3, 10-12 entry C          line   152 file /home/r08543048/miniconda3/share/psi4/basis/jun-cc-pvtz-jkfit.gbs 
    atoms 4-9, 13-18 entry H          line    70 file /home/r08543048/miniconda3/share/psi4/basis/jun-cc-pvtz-jkfit.gbs 

  ==> Pre-Iterations <==

   -------------------------------------------------------
    Irrep   Nso     Nmo     Nalpha   Nbeta   Ndocc  Nsocc
   -------------------------------------------------------
     A        402     402       0       0       0       0
   -------------------------------------------------------
    Total     402     402      24      24      24       0
   -------------------------------------------------------

  ==> Integral Setup <==

  ==> DiskDFJK: Density-Fitted J/K Matrices <==

    J tasked:                  Yes
    K tasked:                  Yes
    wK tasked:                  No
    OpenMP threads:              1
    Integrals threads:           1
    Memory [MiB]:            15735
    Algorithm:                Core
    Integral Cache:           SAVE
    Schwarz Cutoff:          1E-12
    Fitting Condition:       1E-10

   => Auxiliary Basis Set <=

  Basis Set: (JUN-CC-PVTZ AUX)
    Blend: JUN-CC-PVTZ-JKFIT
    Number of shells: 294
    Number of basis function: 930
    Number of Cartesian functions: 1116
    Spherical Harmonics?: true
    Max angular momentum: 4

  Minimum eigenvalue in the overlap matrix is 3.9400420887E-05.
  Using Symmetric Orthogonalization.

  SCF Guess: Superposition of Atomic Densities via on-the-fly atomic UHF.

  ==> Iterations <==

                           Total Energy        Delta E     RMS |[F,P]|

   @DF-RHF iter SAD:  -232.69181926687079   -2.32692e+02   0.00000e+00 
   @DF-RHF iter   1:  -233.97588723253074   -1.28407e+00   1.61060e-03 DIIS
   @DF-RHF iter   2:  -234.19054409077370   -2.14657e-01   6.93197e-04 DIIS
   @DF-RHF iter   3:  -234.23086828220332   -4.03242e-02   1.24600e-04 DIIS
   @DF-RHF iter   4:  -234.23348619177887   -2.61791e-03   3.52912e-05 DIIS
   @DF-RHF iter   5:  -234.23362198048289   -1.35789e-04   1.02497e-05 DIIS
   @DF-RHF iter   6:  -234.23363434508420   -1.23646e-05   1.90322e-06 DIIS
   @DF-RHF iter   7:  -234.23363504971030   -7.04626e-07   7.11740e-07 DIIS
   @DF-RHF iter   8:  -234.23363514917975   -9.94694e-08   2.54585e-07 DIIS
   @DF-RHF iter   9:  -234.23363516407198   -1.48922e-08   9.56871e-08 DIIS
   @DF-RHF iter  10:  -234.23363516656792   -2.49594e-09   2.15909e-08 DIIS
   @DF-RHF iter  11:  -234.23363516667968   -1.11754e-10   4.88226e-09 DIIS
  Energy and wave function converged.


  ==> Post-Iterations <==

    Orbital Energies [Eh]
    ---------------------

    Doubly Occupied:                                                      

       1A    -11.233293     2A    -11.233286     3A    -11.218945  
       4A    -11.218935     5A    -11.216375     6A    -11.216367  
       7A     -1.064076     8A     -1.063282     9A     -0.931928  
      10A     -0.930894    11A     -0.757964    12A     -0.755828  
      13A     -0.639124    14A     -0.638696    15A     -0.582364  
      16A     -0.580347    17A     -0.567235    18A     -0.566290  
      19A     -0.521942    20A     -0.521555    21A     -0.492427  
      22A     -0.491087    23A     -0.358025    24A     -0.356133  

    Virtual:                                                              

      25A      0.052228    26A      0.055487    27A      0.058558  
      28A      0.068460    29A      0.068533    30A      0.071485  
      31A      0.092547    32A      0.095832    33A      0.103607  
      34A      0.105022    35A      0.112142    36A      0.117387  
      37A      0.123515    38A      0.127023    39A      0.129727  
      40A      0.141079    41A      0.148029    42A      0.153663  
      43A      0.164413    44A      0.175494    45A      0.177970  
      46A      0.194506    47A      0.197420    48A      0.202389  
      49A      0.203903    50A      0.221913    51A      0.246972  
      52A      0.252212    53A      0.256919    54A      0.268965  
      55A      0.282378    56A      0.288346    57A      0.292094  
      58A      0.302311    59A      0.314680    60A      0.322026  
      61A      0.327348    62A      0.338880    63A      0.343956  
      64A      0.346747    65A      0.347866    66A      0.357486  
      67A      0.358265    68A      0.365529    69A      0.377086  
      70A      0.380783    71A      0.385595    72A      0.393517  
      73A      0.403283    74A      0.403650    75A      0.415154  
      76A      0.415291    77A      0.418518    78A      0.419346  
      79A      0.452137    80A      0.454265    81A      0.468246  
      82A      0.474317    83A      0.477860    84A      0.490942  
      85A      0.500447    86A      0.516795    87A      0.518694  
      88A      0.527522    89A      0.536689    90A      0.538961  
      91A      0.540750    92A      0.552450    93A      0.569356  
      94A      0.575536    95A      0.606246    96A      0.632827  
      97A      0.667580    98A      0.678637    99A      0.684862  
     100A      0.692884   101A      0.701786   102A      0.709570  
     103A      0.722672   104A      0.742362   105A      0.745084  
     106A      0.751428   107A      0.755198   108A      0.768575  
     109A      0.770376   110A      0.775958   111A      0.786911  
     112A      0.794229   113A      0.815566   114A      0.817341  
     115A      0.838302   116A      0.843209   117A      0.851392  
     118A      0.857696   119A      0.865288   120A      0.882636  
     121A      0.888038   122A      0.889234   123A      0.918908  
     124A      0.928638   125A      0.946924   126A      0.949813  
     127A      0.963810   128A      0.978797   129A      0.991920  
     130A      0.997428   131A      1.027210   132A      1.061414  
     133A      1.074524   134A      1.082100   135A      1.097613  
     136A      1.100226   137A      1.104753   138A      1.112478  
     139A      1.121721   140A      1.139068   141A      1.144233  
     142A      1.158836   143A      1.159563   144A      1.168355  
     145A      1.211042   146A      1.233172   147A      1.245002  
     148A      1.257385   149A      1.265739   150A      1.276334  
     151A      1.287383   152A      1.287560   153A      1.339481  
     154A      1.354881   155A      1.369778   156A      1.370331  
     157A      1.393651   158A      1.400278   159A      1.406802  
     160A      1.421732   161A      1.424661   162A      1.442001  
     163A      1.455937   164A      1.473235   165A      1.479668  
     166A      1.490954   167A      1.509925   168A      1.522336  
     169A      1.524374   170A      1.536789   171A      1.564712  
     172A      1.576184   173A      1.617463   174A      1.620418  
     175A      1.626975   176A      1.630503   177A      1.642336  
     178A      1.651198   179A      1.665415   180A      1.669400  
     181A      1.724498   182A      1.729060   183A      1.738867  
     184A      1.748015   185A      1.777473   186A      1.792036  
     187A      1.838034   188A      1.855123   189A      1.882783  
     190A      1.883245   191A      1.900473   192A      1.906519  
     193A      2.022712   194A      2.027241   195A      2.051083  
     196A      2.061403   197A      2.200147   198A      2.208655  
     199A      2.570732   200A      2.613611   201A      2.674891  
     202A      2.705257   203A      2.734503   204A      2.749486  
     205A      2.769443   206A      2.770182   207A      2.782648  
     208A      2.789665   209A      2.814671   210A      2.817478  
     211A      2.841382   212A      2.845151   213A      2.860538  
     214A      2.878767   215A      2.901707   216A      2.924648  
     217A      2.951530   218A      2.964559   219A      2.996189  
     220A      2.999780   221A      3.037584   222A      3.046044  
     223A      3.052233   224A      3.053756   225A      3.074943  
     226A      3.082963   227A      3.086869   228A      3.097530  
     229A      3.147531   230A      3.148876   231A      3.170818  
     232A      3.173402   233A      3.187390   234A      3.191232  
     235A      3.202264   236A      3.210642   237A      3.243314  
     238A      3.251865   239A      3.254664   240A      3.258167  
     241A      3.292132   242A      3.295226   243A      3.300609  
     244A      3.315255   245A      3.316486   246A      3.323259  
     247A      3.332125   248A      3.358644   249A      3.377998  
     250A      3.380743   251A      3.393292   252A      3.419217  
     253A      3.426673   254A      3.429522   255A      3.441558  
     256A      3.442015   257A      3.484361   258A      3.486109  
     259A      3.496710   260A      3.502809   261A      3.508743  
     262A      3.512669   263A      3.524949   264A      3.526901  
     265A      3.583194   266A      3.584385   267A      3.592682  
     268A      3.595410   269A      3.640415   270A      3.644939  
     271A      3.652376   272A      3.668247   273A      3.672312  
     274A      3.676138   275A      3.734818   276A      3.740595  
     277A      3.757025   278A      3.758126   279A      3.786833  
     280A      3.788195   281A      3.795495   282A      3.797616  
     283A      3.806395   284A      3.809600   285A      3.845983  
     286A      3.850505   287A      3.901101   288A      3.906532  
     289A      3.968077   290A      3.969421   291A      3.991052  
     292A      3.999106   293A      4.042723   294A      4.046522  
     295A      4.049257   296A      4.053742   297A      4.086196  
     298A      4.089427   299A      4.126689   300A      4.132234  
     301A      4.145115   302A      4.158813   303A      4.202014  
     304A      4.207117   305A      4.237675   306A      4.257126  
     307A      4.278596   308A      4.286226   309A      4.288031  
     310A      4.307901   311A      4.318440   312A      4.357134  
     313A      4.368277   314A      4.368364   315A      4.375134  
     316A      4.381250   317A      4.392648   318A      4.400993  
     319A      4.406165   320A      4.407834   321A      4.433686  
     322A      4.444843   323A      4.448476   324A      4.468257  
     325A      4.502284   326A      4.502937   327A      4.510228  
     328A      4.537225   329A      4.587402   330A      4.594727  
     331A      4.619402   332A      4.625364   333A      4.633819  
     334A      4.638339   335A      4.678983   336A      4.682425  
     337A      4.767289   338A      4.782055   339A      4.803803  
     340A      4.804892   341A      4.831089   342A      4.831497  
     343A      4.890026   344A      4.904625   345A      4.909621  
     346A      4.913411   347A      5.030009   348A      5.036097  
     349A      5.062094   350A      5.073399   351A      5.175553  
     352A      5.176121   353A      5.189648   354A      5.204939  
     355A      5.215249   356A      5.226390   357A      5.294621  
     358A      5.299860   359A      5.320018   360A      5.324737  
     361A      5.358799   362A      5.359176   363A      5.389470  
     364A      5.392958   365A      5.422409   366A      5.424648  
     367A      5.473320   368A      5.474167   369A      5.566851  
     370A      5.567575   371A      5.620528   372A      5.623934  
     373A      5.674896   374A      5.679589   375A      5.684851  
     376A      5.685327   377A      5.754313   378A      5.755228  
     379A      5.777283   380A      5.785555   381A      5.847189  
     382A      5.850519   383A      5.957075   384A      5.957108  
     385A      6.072341   386A      6.085272   387A      6.364256  
     388A      6.386004   389A      6.437511   390A      6.449450  
     391A      6.451689   392A      6.457344   393A      6.511173  
     394A      6.520472   395A      6.699144   396A      6.700866  
     397A     12.075337   398A     12.092391   399A     14.496933  
     400A     14.552653   401A     15.252196   402A     15.273264  

    Final Occupation by Irrep:
              A 
    DOCC [    24 ]

  @DF-RHF Final Energy:  -234.23363516667968

   => Energetics <=

    Nuclear Repulsion Energy =            205.7177244792224826
    One-Electron Energy =                -721.5899199277562275
    Two-Electron Energy =                 281.6385602818540406
    Total Energy =                       -234.2336351666796759

Computation Completed


Properties will be evaluated at   0.000000,   0.000000,   0.000000 [a0]

Properties computed using the SCF density matrix

  Nuclear Dipole Moment: [e a0]
     X:     0.0005      Y:    -0.0001      Z:     0.0001

  Electronic Dipole Moment: [e a0]
     X:    -0.0005      Y:     0.0001      Z:    -0.0001

  Dipole Moment: [e a0]
     X:     0.0000      Y:    -0.0000      Z:    -0.0000     Total:     0.0001

  Dipole Moment: [D]
     X:     0.0001      Y:    -0.0001      Z:    -0.0001     Total:     0.0002


*** tstop() called on r282 at Wed Sep 15 07:26:43 2021
Module time:
	user time   =      25.67 seconds =       0.43 minutes
	system time =       0.72 seconds =       0.01 minutes
	total time  =         26 seconds =       0.43 minutes
Total time:
	user time   =      25.67 seconds =       0.43 minutes
	system time =       0.72 seconds =       0.01 minutes
	total time  =         26 seconds =       0.43 minutes

  //>>>>>>>>>>>>>>>>>>>>>>>>>>>>>>>>>>>//
  //            Monomer A HF           //
  //<<<<<<<<<<<<<<<<<<<<<<<<<<<<<<<<<<<//


*** tstart() called on r282
*** at Wed Sep 15 07:26:43 2021

   => Loading Basis Set <=

    Name: JUN-CC-PVTZ
    Role: ORBITAL
    Keyword: BASIS
    atoms 1-3, 10-12 entry C          line   217 file /home/r08543048/miniconda3/share/psi4/basis/jun-cc-pvtz.gbs 
    atoms 4-9, 13-18 entry H          line    36 file /home/r08543048/miniconda3/share/psi4/basis/jun-cc-pvtz.gbs 


         ---------------------------------------------------------
                                   SCF
               by Justin Turney, Rob Parrish, Andy Simmonett
                          and Daniel G. A. Smith
                              RHF Reference
                        1 Threads,  20980 MiB Core
         ---------------------------------------------------------

  ==> Geometry <==

    Molecular point group: c1
    Full point group: C1

    Geometry (in Angstrom), charge = 0, multiplicity = 1:

       Center              X                  Y                   Z               Mass       
    ------------   -----------------  -----------------  -----------------  -----------------
         C           -1.562417759938     1.588824637352    -0.310673242111    12.000000000000
         C           -2.459674759938     0.739133637352     0.196367757889    12.000000000000
         C           -2.571660759938    -0.699950362648    -0.193786242111    12.000000000000
         H           -1.527899759938     2.622867637352     0.003397757889     1.007825032230
         H           -0.843112759938     1.260898637352    -1.050553242111     1.007825032230
         H           -3.160912759938     1.103082637352     0.940543757889     1.007825032230
         H           -3.559422759938    -0.915278362648    -0.604430242111     1.007825032230
         H           -1.821074759938    -0.960868362648    -0.938479242111     1.007825032230
         H           -2.438034759938    -1.351331362648     0.671887757889     1.007825032230
      Gh(C)           1.562593180062    -1.588843902648     0.311202317889    12.000000000000
      Gh(C)           2.459247180062    -0.739060902648    -0.196750682111    12.000000000000
      Gh(C)           2.571866180062     0.699906097352     0.193631317889    12.000000000000
      Gh(H)           1.527597180062    -2.622781902648    -0.003158682111     1.007825032230
      Gh(H)           0.844281180062    -1.261123902648     1.052137317889     1.007825032230
      Gh(H)           3.159475180062    -1.102852902648    -0.941957682111     1.007825032230
      Gh(H)           2.437119180062     1.351535097352    -0.671686682111     1.007825032230
      Gh(H)           1.822331180062     0.960705097352     0.939426317889     1.007825032230
      Gh(H)           3.560210180062     0.915038097352     0.602977317889     1.007825032230

  Running in c1 symmetry.

  Rotational constants: A =      0.15002  B =      0.03701  C =      0.03090 [cm^-1]
  Rotational constants: A =   4497.54620  B =   1109.39475  C =    926.22695 [MHz]
  Nuclear repulsion =   70.871491972997745

  Charge       = 0
  Multiplicity = 1
  Electrons    = 24
  Nalpha       = 12
  Nbeta        = 12

  ==> Algorithm <==

  SCF Algorithm Type is DF.
  DIIS enabled.
  MOM disabled.
  Fractional occupation disabled.
  Guess Type is SAD.
  Energy threshold   = 1.00e-08
  Density threshold  = 1.00e-08
  Integral threshold = 0.00e+00

  ==> Primary Basis <==

  Basis Set: JUN-CC-PVTZ
    Blend: JUN-CC-PVTZ
    Number of shells: 150
    Number of basis function: 402
    Number of Cartesian functions: 450
    Spherical Harmonics?: true
    Max angular momentum: 3

   => Loading Basis Set <=

    Name: (JUN-CC-PVTZ AUX)
    Role: JKFIT
    Keyword: DF_BASIS_SCF
    atoms 1-3, 10-12 entry C          line   152 file /home/r08543048/miniconda3/share/psi4/basis/jun-cc-pvtz-jkfit.gbs 
    atoms 4-9, 13-18 entry H          line    70 file /home/r08543048/miniconda3/share/psi4/basis/jun-cc-pvtz-jkfit.gbs 

  ==> Pre-Iterations <==

   -------------------------------------------------------
    Irrep   Nso     Nmo     Nalpha   Nbeta   Ndocc  Nsocc
   -------------------------------------------------------
     A        402     402       0       0       0       0
   -------------------------------------------------------
    Total     402     402      12      12      12       0
   -------------------------------------------------------

  ==> Integral Setup <==

  ==> DiskDFJK: Density-Fitted J/K Matrices <==

    J tasked:                  Yes
    K tasked:                  Yes
    wK tasked:                  No
    OpenMP threads:              1
    Integrals threads:           1
    Memory [MiB]:            15735
    Algorithm:                Core
    Integral Cache:           LOAD
    Schwarz Cutoff:          1E-12
    Fitting Condition:       1E-10

   => Auxiliary Basis Set <=

  Basis Set: (JUN-CC-PVTZ AUX)
    Blend: JUN-CC-PVTZ-JKFIT
    Number of shells: 294
    Number of basis function: 930
    Number of Cartesian functions: 1116
    Spherical Harmonics?: true
    Max angular momentum: 4

  Minimum eigenvalue in the overlap matrix is 3.9400420887E-05.
  Using Symmetric Orthogonalization.

  SCF Guess: Superposition of Atomic Densities via on-the-fly atomic UHF.

  ==> Iterations <==

                           Total Energy        Delta E     RMS |[F,P]|

   @DF-RHF iter SAD:  -116.33324436000362   -1.16333e+02   0.00000e+00 
   @DF-RHF iter   1:  -116.98771895581217   -6.54475e-01   1.14074e-03 DIIS
   @DF-RHF iter   2:  -117.09537783978800   -1.07659e-01   4.89941e-04 DIIS
   @DF-RHF iter   3:  -117.11549099758524   -2.01132e-02   8.80106e-05 DIIS
   @DF-RHF iter   4:  -117.11678518201708   -1.29418e-03   2.64929e-05 DIIS
   @DF-RHF iter   5:  -117.11685906151308   -7.38795e-05   7.12426e-06 DIIS
   @DF-RHF iter   6:  -117.11686526638907   -6.20488e-06   1.28357e-06 DIIS
   @DF-RHF iter   7:  -117.11686557408713   -3.07698e-07   4.71220e-07 DIIS
   @DF-RHF iter   8:  -117.11686561469340   -4.06063e-08   1.63105e-07 DIIS
   @DF-RHF iter   9:  -117.11686562050676   -5.81336e-09   5.93372e-08 DIIS
   @DF-RHF iter  10:  -117.11686562144791   -9.41156e-10   1.34699e-08 DIIS
   @DF-RHF iter  11:  -117.11686562149247   -4.45510e-11   2.38008e-09 DIIS
  Energy and wave function converged.


  ==> Post-Iterations <==

    Orbital Energies [Eh]
    ---------------------

    Doubly Occupied:                                                      

       1A    -11.234392     2A    -11.220818     3A    -11.217536  
       4A     -1.064936     5A     -0.932797     6A     -0.758098  
       7A     -0.640071     8A     -0.582623     9A     -0.568360  
      10A     -0.523409    11A     -0.493157    12A     -0.357998  

    Virtual:                                                              

      13A      0.035589    14A      0.047155    15A      0.055912  
      16A      0.061788    17A      0.067319    18A      0.068161  
      19A      0.088525    20A      0.092939    21A      0.095158  
      22A      0.102668    23A      0.106642    24A      0.114301  
      25A      0.118617    26A      0.124626    27A      0.130468  
      28A      0.139727    29A      0.140665    30A      0.148287  
      31A      0.155390    32A      0.162330    33A      0.169646  
      34A      0.171723    35A      0.187989    36A      0.201730  
      37A      0.210413    38A      0.237120    39A      0.242238  
      40A      0.249781    41A      0.260413    42A      0.272473  
      43A      0.278445    44A      0.283758    45A      0.295012  
      46A      0.303225    47A      0.317536    48A      0.323288  
      49A      0.328422    50A      0.333798    51A      0.343611  
      52A      0.346755    53A      0.353328    54A      0.355451  
      55A      0.360454    56A      0.363510    57A      0.373063  
      58A      0.383322    59A      0.387129    60A      0.394190  
      61A      0.403188    62A      0.410354    63A      0.417892  
      64A      0.425255    65A      0.430564    66A      0.438202  
      67A      0.441326    68A      0.455049    69A      0.464854  
      70A      0.473296    71A      0.488220    72A      0.496917  
      73A      0.507213    74A      0.515101    75A      0.523673  
      76A      0.536280    77A      0.538701    78A      0.547586  
      79A      0.552834    80A      0.561084    81A      0.574091  
      82A      0.576732    83A      0.605115    84A      0.606341  
      85A      0.617982    86A      0.642636    87A      0.653097  
      88A      0.664113    89A      0.688492    90A      0.698195  
      91A      0.706350    92A      0.710287    93A      0.725746  
      94A      0.740862    95A      0.747818    96A      0.754707  
      97A      0.765165    98A      0.779358    99A      0.783555  
     100A      0.810280   101A      0.820090   102A      0.828881  
     103A      0.844289   104A      0.859819   105A      0.868502  
     106A      0.886176   107A      0.905469   108A      0.942894  
     109A      0.961800   110A      0.983430   111A      1.001568  
     112A      1.023690   113A      1.052918   114A      1.071945  
     115A      1.089219   116A      1.094427   117A      1.104802  
     118A      1.114807   119A      1.119735   120A      1.124255  
     121A      1.137380   122A      1.146613   123A      1.154046  
     124A      1.162830   125A      1.186446   126A      1.202307  
     127A      1.213097   128A      1.227998   129A      1.239449  
     130A      1.242519   131A      1.257437   132A      1.263063  
     133A      1.267290   134A      1.292487   135A      1.307978  
     136A      1.320862   137A      1.324763   138A      1.330475  
     139A      1.340863   140A      1.347855   141A      1.367042  
     142A      1.379612   143A      1.389029   144A      1.400559  
     145A      1.402924   146A      1.415019   147A      1.425877  
     148A      1.447109   149A      1.450683   150A      1.460315  
     151A      1.488250   152A      1.492828   153A      1.500246  
     154A      1.517747   155A      1.532800   156A      1.540746  
     157A      1.545600   158A      1.563549   159A      1.579748  
     160A      1.584388   161A      1.605064   162A      1.617356  
     163A      1.622477   164A      1.630625   165A      1.639780  
     166A      1.655168   167A      1.666063   168A      1.671348  
     169A      1.686736   170A      1.733559   171A      1.740650  
     172A      1.758486   173A      1.780666   174A      1.799376  
     175A      1.844526   176A      1.865361   177A      1.890347  
     178A      1.896034   179A      1.970416   180A      1.998074  
     181A      2.021271   182A      2.053844   183A      2.058521  
     184A      2.077029   185A      2.092861   186A      2.200756  
     187A      2.224368   188A      2.239177   189A      2.338547  
     190A      2.359245   191A      2.440227   192A      2.517206  
     193A      2.537815   194A      2.598298   195A      2.669619  
     196A      2.699309   197A      2.748183   198A      2.772364  
     199A      2.785199   200A      2.814843   201A      2.842693  
     202A      2.871735   203A      2.893725   204A      2.909858  
     205A      2.958911   206A      2.997673   207A      3.042058  
     208A      3.056073   209A      3.075491   210A      3.085673  
     211A      3.151872   212A      3.167519   213A      3.182708  
     214A      3.205965   215A      3.236027   216A      3.250413  
     217A      3.290060   218A      3.306757   219A      3.321957  
     220A      3.339504   221A      3.379922   222A      3.385108  
     223A      3.412824   224A      3.424156   225A      3.433954  
     226A      3.437994   227A      3.485714   228A      3.492988  
     229A      3.496389   230A      3.509344   231A      3.534545  
     232A      3.541220   233A      3.559655   234A      3.582887  
     235A      3.583481   236A      3.588261   237A      3.621621  
     238A      3.637794   239A      3.648703   240A      3.659647  
     241A      3.668158   242A      3.689491   243A      3.698900  
     244A      3.704133   245A      3.733689   246A      3.756554  
     247A      3.764004   248A      3.784116   249A      3.785951  
     250A      3.791674   251A      3.802295   252A      3.832435  
     253A      3.847333   254A      3.863727   255A      3.881392  
     256A      3.900812   257A      3.923445   258A      3.964691  
     259A      3.976998   260A      3.992430   261A      4.001823  
     262A      4.034405   263A      4.044781   264A      4.053482  
     265A      4.067089   266A      4.082936   267A      4.086142  
     268A      4.099351   269A      4.125023   270A      4.147915  
     271A      4.153767   272A      4.163268   273A      4.179139  
     274A      4.196812   275A      4.205456   276A      4.243693  
     277A      4.261948   278A      4.270887   279A      4.286320  
     280A      4.299218   281A      4.309126   282A      4.321210  
     283A      4.348868   284A      4.366398   285A      4.372190  
     286A      4.387072   287A      4.393167   288A      4.404782  
     289A      4.426740   290A      4.434791   291A      4.445489  
     292A      4.450789   293A      4.462468   294A      4.500646  
     295A      4.508982   296A      4.517110   297A      4.520711  
     298A      4.533619   299A      4.566447   300A      4.581412  
     301A      4.603687   302A      4.609182   303A      4.619250  
     304A      4.628796   305A      4.655920   306A      4.667330  
     307A      4.680386   308A      4.715430   309A      4.718598  
     310A      4.758403   311A      4.762115   312A      4.773977  
     313A      4.790209   314A      4.795869   315A      4.801599  
     316A      4.808663   317A      4.830420   318A      4.836825  
     319A      4.838163   320A      4.882205   321A      4.894558  
     322A      4.901750   323A      4.912487   324A      4.926332  
     325A      4.949908   326A      4.965428   327A      4.996648  
     328A      5.024128   329A      5.030942   330A      5.044452  
     331A      5.063600   332A      5.071240   333A      5.142089  
     334A      5.166437   335A      5.174901   336A      5.197270  
     337A      5.217245   338A      5.228511   339A      5.296122  
     340A      5.307079   341A      5.322721   342A      5.357550  
     343A      5.390482   344A      5.398135   345A      5.422080  
     346A      5.464653   347A      5.472801   348A      5.505125  
     349A      5.529956   350A      5.557315   351A      5.565819  
     352A      5.620360   353A      5.673345   354A      5.678712  
     355A      5.682351   356A      5.752720   357A      5.778681  
     358A      5.790630   359A      5.827896   360A      5.847353  
     361A      5.885529   362A      5.955951   363A      5.990175  
     364A      6.031282   365A      6.077404   366A      6.129795  
     367A      6.136847   368A      6.198290   369A      6.240664  
     370A      6.309684   371A      6.362072   372A      6.381772  
     373A      6.385373   374A      6.442248   375A      6.452810  
     376A      6.513736   377A      6.608307   378A      6.698415  
     379A      6.715841   380A      6.740217   381A      6.840210  
     382A      7.082377   383A      7.379557   384A      7.417832  
     385A      7.534660   386A      7.597648   387A      7.644740  
     388A      7.810810   389A      7.911484   390A      7.979157  
     391A      8.096971   392A      8.285242   393A      8.717836  
     394A      9.354691   395A      9.834651   396A     10.191086  
     397A     12.083881   398A     14.523579   399A     15.261200  
     400A     40.474713   401A     45.707339   402A     47.033808  

    Final Occupation by Irrep:
              A 
    DOCC [    12 ]

  @DF-RHF Final Energy:  -117.11686562149247

   => Energetics <=

    Nuclear Repulsion Energy =             70.8714919729977453
    One-Electron Energy =                -296.7883254926965719
    Two-Electron Energy =                 108.7999678982063614
    Total Energy =                       -117.1168656214924653

Computation Completed


Properties will be evaluated at   0.000000,   0.000000,   0.000000 [a0]

Properties computed using the SCF density matrix

  Nuclear Dipole Moment: [e a0]
     X:   -99.9910      Y:    21.7837      Z:    -5.3407

  Electronic Dipole Moment: [e a0]
     X:    99.9084      Y:   -21.9259      Z:     5.3662

  Dipole Moment: [e a0]
     X:    -0.0827      Y:    -0.1422      Z:     0.0255     Total:     0.1665

  Dipole Moment: [D]
     X:    -0.2101      Y:    -0.3615      Z:     0.0648     Total:     0.4231


*** tstop() called on r282 at Wed Sep 15 07:26:57 2021
Module time:
	user time   =      12.81 seconds =       0.21 minutes
	system time =       0.34 seconds =       0.01 minutes
	total time  =         14 seconds =       0.23 minutes
Total time:
	user time   =      38.48 seconds =       0.64 minutes
	system time =       1.06 seconds =       0.02 minutes
	total time  =         40 seconds =       0.67 minutes

  //>>>>>>>>>>>>>>>>>>>>>>>>>>>>>>>>>>>//
  //            Monomer B HF           //
  //<<<<<<<<<<<<<<<<<<<<<<<<<<<<<<<<<<<//


*** tstart() called on r282
*** at Wed Sep 15 07:26:57 2021

   => Loading Basis Set <=

    Name: JUN-CC-PVTZ
    Role: ORBITAL
    Keyword: BASIS
    atoms 1-3, 10-12 entry C          line   217 file /home/r08543048/miniconda3/share/psi4/basis/jun-cc-pvtz.gbs 
    atoms 4-9, 13-18 entry H          line    36 file /home/r08543048/miniconda3/share/psi4/basis/jun-cc-pvtz.gbs 


         ---------------------------------------------------------
                                   SCF
               by Justin Turney, Rob Parrish, Andy Simmonett
                          and Daniel G. A. Smith
                              RHF Reference
                        1 Threads,  20980 MiB Core
         ---------------------------------------------------------

  ==> Geometry <==

    Molecular point group: c1
    Full point group: C1

    Geometry (in Angstrom), charge = 0, multiplicity = 1:

       Center              X                  Y                   Z               Mass       
    ------------   -----------------  -----------------  -----------------  -----------------
      Gh(C)          -1.562417759938     1.588824637352    -0.310673242111    12.000000000000
      Gh(C)          -2.459674759938     0.739133637352     0.196367757889    12.000000000000
      Gh(C)          -2.571660759938    -0.699950362648    -0.193786242111    12.000000000000
      Gh(H)          -1.527899759938     2.622867637352     0.003397757889     1.007825032230
      Gh(H)          -0.843112759938     1.260898637352    -1.050553242111     1.007825032230
      Gh(H)          -3.160912759938     1.103082637352     0.940543757889     1.007825032230
      Gh(H)          -3.559422759938    -0.915278362648    -0.604430242111     1.007825032230
      Gh(H)          -1.821074759938    -0.960868362648    -0.938479242111     1.007825032230
      Gh(H)          -2.438034759938    -1.351331362648     0.671887757889     1.007825032230
         C            1.562593180062    -1.588843902648     0.311202317889    12.000000000000
         C            2.459247180062    -0.739060902648    -0.196750682111    12.000000000000
         C            2.571866180062     0.699906097352     0.193631317889    12.000000000000
         H            1.527597180062    -2.622781902648    -0.003158682111     1.007825032230
         H            0.844281180062    -1.261123902648     1.052137317889     1.007825032230
         H            3.159475180062    -1.102852902648    -0.941957682111     1.007825032230
         H            2.437119180062     1.351535097352    -0.671686682111     1.007825032230
         H            1.822331180062     0.960705097352     0.939426317889     1.007825032230
         H            3.560210180062     0.915038097352     0.602977317889     1.007825032230

  Running in c1 symmetry.

  Rotational constants: A =      0.15002  B =      0.03701  C =      0.03090 [cm^-1]
  Rotational constants: A =   4497.54620  B =   1109.39475  C =    926.22695 [MHz]
  Nuclear repulsion =   70.871383723929796

  Charge       = 0
  Multiplicity = 1
  Electrons    = 24
  Nalpha       = 12
  Nbeta        = 12

  ==> Algorithm <==

  SCF Algorithm Type is DF.
  DIIS enabled.
  MOM disabled.
  Fractional occupation disabled.
  Guess Type is SAD.
  Energy threshold   = 1.00e-08
  Density threshold  = 1.00e-08
  Integral threshold = 0.00e+00

  ==> Primary Basis <==

  Basis Set: JUN-CC-PVTZ
    Blend: JUN-CC-PVTZ
    Number of shells: 150
    Number of basis function: 402
    Number of Cartesian functions: 450
    Spherical Harmonics?: true
    Max angular momentum: 3

   => Loading Basis Set <=

    Name: (JUN-CC-PVTZ AUX)
    Role: JKFIT
    Keyword: DF_BASIS_SCF
    atoms 1-3, 10-12 entry C          line   152 file /home/r08543048/miniconda3/share/psi4/basis/jun-cc-pvtz-jkfit.gbs 
    atoms 4-9, 13-18 entry H          line    70 file /home/r08543048/miniconda3/share/psi4/basis/jun-cc-pvtz-jkfit.gbs 

  ==> Pre-Iterations <==

   -------------------------------------------------------
    Irrep   Nso     Nmo     Nalpha   Nbeta   Ndocc  Nsocc
   -------------------------------------------------------
     A        402     402       0       0       0       0
   -------------------------------------------------------
    Total     402     402      12      12      12       0
   -------------------------------------------------------

  ==> Integral Setup <==

  ==> DiskDFJK: Density-Fitted J/K Matrices <==

    J tasked:                  Yes
    K tasked:                  Yes
    wK tasked:                  No
    OpenMP threads:              1
    Integrals threads:           1
    Memory [MiB]:            15735
    Algorithm:                Core
    Integral Cache:           LOAD
    Schwarz Cutoff:          1E-12
    Fitting Condition:       1E-10

   => Auxiliary Basis Set <=

  Basis Set: (JUN-CC-PVTZ AUX)
    Blend: JUN-CC-PVTZ-JKFIT
    Number of shells: 294
    Number of basis function: 930
    Number of Cartesian functions: 1116
    Spherical Harmonics?: true
    Max angular momentum: 4

  Minimum eigenvalue in the overlap matrix is 3.9400420887E-05.
  Using Symmetric Orthogonalization.

  SCF Guess: Superposition of Atomic Densities via on-the-fly atomic UHF.

  ==> Iterations <==

                           Total Energy        Delta E     RMS |[F,P]|

   @DF-RHF iter SAD:  -116.33324002661361   -1.16333e+02   0.00000e+00 
   @DF-RHF iter   1:  -116.98771897993748   -6.54479e-01   1.14074e-03 DIIS
   @DF-RHF iter   2:  -117.09537800078184   -1.07659e-01   4.89942e-04 DIIS
   @DF-RHF iter   3:  -117.11549119620960   -2.01132e-02   8.80110e-05 DIIS
   @DF-RHF iter   4:  -117.11678539227424   -1.29420e-03   2.64937e-05 DIIS
   @DF-RHF iter   5:  -117.11685927570991   -7.38834e-05   7.12427e-06 DIIS
   @DF-RHF iter   6:  -117.11686548068542   -6.20498e-06   1.28360e-06 DIIS
   @DF-RHF iter   7:  -117.11686578839068   -3.07705e-07   4.71237e-07 DIIS
   @DF-RHF iter   8:  -117.11686582900076   -4.06101e-08   1.63111e-07 DIIS
   @DF-RHF iter   9:  -117.11686583481824   -5.81748e-09   5.93383e-08 DIIS
   @DF-RHF iter  10:  -117.11686583575749   -9.39252e-10   1.34699e-08 DIIS
   @DF-RHF iter  11:  -117.11686583580017   -4.26752e-11   2.38003e-09 DIIS
  Energy and wave function converged.


  ==> Post-Iterations <==

    Orbital Energies [Eh]
    ---------------------

    Doubly Occupied:                                                      

       1A    -11.234392     2A    -11.220819     3A    -11.217536  
       4A     -1.064936     5A     -0.932799     6A     -0.758097  
       7A     -0.640069     8A     -0.582626     9A     -0.568359  
      10A     -0.523409    11A     -0.493156    12A     -0.357998  

    Virtual:                                                              

      13A      0.035595    14A      0.047157    15A      0.055910  
      16A      0.061785    17A      0.067324    18A      0.068159  
      19A      0.088516    20A      0.092942    21A      0.095145  
      22A      0.102681    23A      0.106641    24A      0.114305  
      25A      0.118616    26A      0.124625    27A      0.130477  
      28A      0.139710    29A      0.140668    30A      0.148292  
      31A      0.155378    32A      0.162342    33A      0.169677  
      34A      0.171732    35A      0.187978    36A      0.201734  
      37A      0.210406    38A      0.237070    39A      0.242281  
      40A      0.249784    41A      0.260431    42A      0.272467  
      43A      0.278447    44A      0.283775    45A      0.295037  
      46A      0.303186    47A      0.317560    48A      0.323313  
      49A      0.328395    50A      0.333796    51A      0.343607  
      52A      0.346762    53A      0.353341    54A      0.355437  
      55A      0.360473    56A      0.363510    57A      0.373034  
      58A      0.383333    59A      0.387115    60A      0.394203  
      61A      0.403168    62A      0.410366    63A      0.417868  
      64A      0.425192    65A      0.430581    66A      0.438241  
      67A      0.441368    68A      0.455003    69A      0.464846  
      70A      0.473278    71A      0.488228    72A      0.496912  
      73A      0.507242    74A      0.515117    75A      0.523701  
      76A      0.536247    77A      0.538736    78A      0.547575  
      79A      0.552813    80A      0.561094    81A      0.574072  
      82A      0.576780    83A      0.605139    84A      0.606333  
      85A      0.617970    86A      0.642649    87A      0.653111  
      88A      0.664122    89A      0.688482    90A      0.698202  
      91A      0.706359    92A      0.710277    93A      0.725817  
      94A      0.740854    95A      0.747854    96A      0.754638  
      97A      0.765154    98A      0.779337    99A      0.783563  
     100A      0.810251   101A      0.820073   102A      0.828875  
     103A      0.844289   104A      0.859874   105A      0.868530  
     106A      0.886229   107A      0.905466   108A      0.942882  
     109A      0.961811   110A      0.983466   111A      1.001571  
     112A      1.023699   113A      1.052992   114A      1.071923  
     115A      1.089242   116A      1.094434   117A      1.104813  
     118A      1.114796   119A      1.119751   120A      1.124251  
     121A      1.137373   122A      1.146636   123A      1.154035  
     124A      1.162765   125A      1.186504   126A      1.202383  
     127A      1.213125   128A      1.227893   129A      1.239501  
     130A      1.242478   131A      1.257431   132A      1.263050  
     133A      1.267271   134A      1.292427   135A      1.307914  
     136A      1.320944   137A      1.324774   138A      1.330500  
     139A      1.340840   140A      1.347815   141A      1.366897  
     142A      1.379618   143A      1.388988   144A      1.400637  
     145A      1.402943   146A      1.414982   147A      1.425859  
     148A      1.447160   149A      1.450714   150A      1.460343  
     151A      1.488232   152A      1.492884   153A      1.500282  
     154A      1.517767   155A      1.532746   156A      1.540834  
     157A      1.545627   158A      1.563494   159A      1.579746  
     160A      1.584381   161A      1.605044   162A      1.617369  
     163A      1.622480   164A      1.630605   165A      1.639835  
     166A      1.655187   167A      1.666021   168A      1.671247  
     169A      1.686854   170A      1.733548   171A      1.740671  
     172A      1.758502   173A      1.780640   174A      1.799366  
     175A      1.844540   176A      1.865359   177A      1.890332  
     178A      1.896028   179A      1.970418   180A      1.998099  
     181A      2.021245   182A      2.053873   183A      2.058501  
     184A      2.077008   185A      2.092838   186A      2.200757  
     187A      2.224384   188A      2.239172   189A      2.338574  
     190A      2.359221   191A      2.440263   192A      2.517222  
     193A      2.537833   194A      2.598350   195A      2.669619  
     196A      2.699336   197A      2.748228   198A      2.772368  
     199A      2.785236   200A      2.814900   201A      2.842709  
     202A      2.871748   203A      2.893707   204A      2.909899  
     205A      2.958960   206A      2.997718   207A      3.042062  
     208A      3.056071   209A      3.075502   210A      3.085684  
     211A      3.151833   212A      3.167513   213A      3.182730  
     214A      3.206022   215A      3.235984   216A      3.250419  
     217A      3.290064   218A      3.306745   219A      3.321954  
     220A      3.339535   221A      3.379927   222A      3.385076  
     223A      3.412787   224A      3.424150   225A      3.433951  
     226A      3.438004   227A      3.485699   228A      3.492985  
     229A      3.496414   230A      3.509334   231A      3.534511  
     232A      3.541235   233A      3.559626   234A      3.582910  
     235A      3.583484   236A      3.588261   237A      3.621615  
     238A      3.637810   239A      3.648644   240A      3.659640  
     241A      3.668146   242A      3.689473   243A      3.698884  
     244A      3.704137   245A      3.733681   246A      3.756558  
     247A      3.764000   248A      3.784118   249A      3.785981  
     250A      3.791652   251A      3.802295   252A      3.832436  
     253A      3.847333   254A      3.863737   255A      3.881391  
     256A      3.900802   257A      3.923457   258A      3.964679  
     259A      3.977011   260A      3.992415   261A      4.001861  
     262A      4.034422   263A      4.044779   264A      4.053514  
     265A      4.067104   266A      4.082947   267A      4.086120  
     268A      4.099353   269A      4.125012   270A      4.147903  
     271A      4.153881   272A      4.163263   273A      4.179122  
     274A      4.196844   275A      4.205435   276A      4.243716  
     277A      4.261964   278A      4.270898   279A      4.286326  
     280A      4.299263   281A      4.309133   282A      4.321232  
     283A      4.348842   284A      4.366367   285A      4.372169  
     286A      4.387133   287A      4.393182   288A      4.404778  
     289A      4.426782   290A      4.434799   291A      4.445456  
     292A      4.450758   293A      4.462425   294A      4.500648  
     295A      4.508979   296A      4.517112   297A      4.520730  
     298A      4.533645   299A      4.566429   300A      4.581410  
     301A      4.603715   302A      4.609201   303A      4.619274  
     304A      4.628810   305A      4.655923   306A      4.667349  
     307A      4.680401   308A      4.715441   309A      4.718599  
     310A      4.758402   311A      4.762057   312A      4.773930  
     313A      4.790177   314A      4.795886   315A      4.801572  
     316A      4.808713   317A      4.830460   318A      4.836815  
     319A      4.838192   320A      4.882233   321A      4.894580  
     322A      4.901739   323A      4.912475   324A      4.926302  
     325A      4.949930   326A      4.965411   327A      4.996666  
     328A      5.024152   329A      5.030961   330A      5.044369  
     331A      5.063599   332A      5.071250   333A      5.142089  
     334A      5.166426   335A      5.174893   336A      5.197269  
     337A      5.217249   338A      5.228527   339A      5.296121  
     340A      5.307091   341A      5.322728   342A      5.357537  
     343A      5.390465   344A      5.398143   345A      5.422083  
     346A      5.464667   347A      5.472800   348A      5.505110  
     349A      5.529966   350A      5.557327   351A      5.565803  
     352A      5.620347   353A      5.673366   354A      5.678712  
     355A      5.682354   356A      5.752723   357A      5.778688  
     358A      5.790640   359A      5.827883   360A      5.847350  
     361A      5.885541   362A      5.955928   363A      5.990160  
     364A      6.031296   365A      6.077434   366A      6.129808  
     367A      6.136855   368A      6.198278   369A      6.240692  
     370A      6.309680   371A      6.362098   372A      6.381796  
     373A      6.385370   374A      6.442234   375A      6.452821  
     376A      6.513736   377A      6.608320   378A      6.698425  
     379A      6.715869   380A      6.740218   381A      6.840232  
     382A      7.082392   383A      7.379544   384A      7.417824  
     385A      7.534603   386A      7.597651   387A      7.644753  
     388A      7.810816   389A      7.911514   390A      7.979161  
     391A      8.097004   392A      8.285241   393A      8.717840  
     394A      9.354695   395A      9.834634   396A     10.191102  
     397A     12.083851   398A     14.523613   399A     15.261212  
     400A     40.474789   401A     45.707276   402A     47.033747  

    Final Occupation by Irrep:
              A 
    DOCC [    12 ]

  @DF-RHF Final Energy:  -117.11686583580017

   => Energetics <=

    Nuclear Repulsion Energy =             70.8713837239297959
    One-Electron Energy =                -296.7881056051326141
    Two-Electron Energy =                 108.7998560454026489
    Total Energy =                       -117.1168658358001693

Computation Completed


Properties will be evaluated at   0.000000,   0.000000,   0.000000 [a0]

Properties computed using the SCF density matrix

  Nuclear Dipole Moment: [e a0]
     X:    99.9916      Y:   -21.7838      Z:     5.3408

  Electronic Dipole Moment: [e a0]
     X:   -99.9089      Y:    21.9260      Z:    -5.3664

  Dipole Moment: [e a0]
     X:     0.0826      Y:     0.1422      Z:    -0.0256     Total:     0.1665

  Dipole Moment: [D]
     X:     0.2100      Y:     0.3615      Z:    -0.0650     Total:     0.4231


*** tstop() called on r282 at Wed Sep 15 07:27:11 2021
Module time:
	user time   =      13.79 seconds =       0.23 minutes
	system time =       0.33 seconds =       0.01 minutes
	total time  =         14 seconds =       0.23 minutes
Total time:
	user time   =      52.28 seconds =       0.87 minutes
	system time =       1.39 seconds =       0.02 minutes
	total time  =         54 seconds =       0.90 minutes
  Constructing Basis Sets for SAPT...

   => Loading Basis Set <=

    Name: (JUN-CC-PVTZ AUX)
    Role: RIFIT
    Keyword: DF_BASIS_SAPT
    atoms 1-3, 10-12 entry C          line   132 file /home/r08543048/miniconda3/share/psi4/basis/jun-cc-pvtz-ri.gbs 
    atoms 4-9, 13-18 entry H          line    30 file /home/r08543048/miniconda3/share/psi4/basis/jun-cc-pvtz-ri.gbs 


  //>>>>>>>>>>>>>>>>>>>>>>>>>>>>>>>>>>>//
  //               SAPT0               //
  //<<<<<<<<<<<<<<<<<<<<<<<<<<<<<<<<<<<//


*** tstart() called on r282
*** at Wed Sep 15 07:27:11 2021

        SAPT0  
    Ed Hohenstein
     6 June 2009

      Orbital Information
  --------------------------
    NSO        =       402
    NMO        =       402
    NRI        =       942
    NOCC A     =        12
    NOCC B     =        12
    FOCC A     =         0
    FOCC B     =         0
    NVIR A     =       390
    NVIR B     =       390

    Elst10,r            =    -0.000530416494 [Eh]
    Exch10              =     0.000717919103 [Eh]
    Exch10 (S^2)        =     0.000717597794 [Eh]

    Iter     Energy [mEh]          dE [mEh]         Residual      Time [s]
       1      -0.07771398       0.077713982       1.139487567             0
       2      -0.09250576       0.014791779       0.371695611             0
       3      -0.09372632       0.001220556       0.089440576             1
       4      -0.09342452      -0.000301793       0.035766041             1
       5      -0.09333759      -0.000086938       0.007660561             2
       6      -0.09335305       0.000015461       0.003194960             2
       7      -0.09336132       0.000008275       0.000855703             3
       8      -0.09335825      -0.000003070       0.000209260             3
       9      -0.09335858       0.000000324       0.000060764             4
      10      -0.09335863       0.000000051       0.000016585             4
      11      -0.09335861      -0.000000019       0.000004431             5
      12      -0.09335861      -0.000000003       0.000001004             5
      13      -0.09335861       0.000000001       0.000000251             6

    CHF Iterations converged


    Iter     Energy [mEh]          dE [mEh]         Residual      Time [s]
       1      -0.07775822       0.077758217       1.139535897             0
       2      -0.09257504       0.014816818       0.371651000             0
       3      -0.09379269       0.001217654       0.089542213             1
       4      -0.09349077      -0.000301922       0.035804287             1
       5      -0.09340368      -0.000087086       0.007664897             2
       6      -0.09341918       0.000015495       0.003190303             2
       7      -0.09342743       0.000008258       0.000854631             3
       8      -0.09342437      -0.000003065       0.000209227             3
       9      -0.09342469       0.000000324       0.000060722             4
      10      -0.09342474       0.000000051       0.000016579             4
      11      -0.09342473      -0.000000019       0.000004440             5
      12      -0.09342472      -0.000000003       0.000001007             5
      13      -0.09342472       0.000000001       0.000000251             5

    CHF Iterations converged

    Ind20,r (A<-B)      =    -0.000093358608 [Eh]
    Ind20,r (B<-A)      =    -0.000093424725 [Eh]
    Ind20,r             =    -0.000186783332 [Eh]
    Exch-Ind20,r (A<-B) =     0.000073219383 [Eh]
    Exch-Ind20,r (B<-A) =     0.000073315741 [Eh]
    Exch-Ind20,r        =     0.000146535124 [Eh]
    Disp20              =    -0.002261806328 [Eh]
    Disp20 (SS)         =    -0.001130903164 [Eh]
    Disp20 (OS)         =    -0.001130903164 [Eh]
    Exch-Disp20         =     0.000109233339 [Eh]
    Exch-Disp20 (SS)    =     0.000073728862 [Eh]
    Exch-Disp20 (OS)    =     0.000035504477 [Eh]

    SAPT Results 
  --------------------------------------------------------------------------------------------------------
    Electrostatics                 -0.53041649 [mEh]      -0.33284138 [kcal/mol]      -1.39260831 [kJ/mol]
      Elst10,r                     -0.53041649 [mEh]      -0.33284138 [kcal/mol]      -1.39260831 [kJ/mol]

    Exchange                        0.71791910 [mEh]       0.45050104 [kcal/mol]       1.88489635 [kJ/mol]
      Exch10                        0.71791910 [mEh]       0.45050104 [kcal/mol]       1.88489635 [kJ/mol]
      Exch10(S^2)                   0.71759779 [mEh]       0.45029941 [kcal/mol]       1.88405275 [kJ/mol]

    Induction                      -0.09121200 [mEh]      -0.05723639 [kcal/mol]      -0.23947706 [kJ/mol]
      Ind20,r                      -0.18678333 [mEh]      -0.11720831 [kcal/mol]      -0.49039957 [kJ/mol]
      Exch-Ind20,r                  0.14653512 [mEh]       0.09195218 [kcal/mol]       0.38472792 [kJ/mol]
      delta HF,r (2)               -0.05096379 [mEh]      -0.03198026 [kcal/mol]      -0.13380541 [kJ/mol]

    Dispersion                     -2.15257299 [mEh]      -1.35075994 [kcal/mol]      -5.65157960 [kJ/mol]
      Disp20                       -2.26180633 [mEh]      -1.41930490 [kcal/mol]      -5.93837170 [kJ/mol]
      Exch-Disp20                   0.10923334 [mEh]       0.06854496 [kcal/mol]       0.28679209 [kJ/mol]
      Disp20 (SS)                  -1.13090316 [mEh]      -0.70965245 [kcal/mol]      -2.96918585 [kJ/mol]
      Disp20 (OS)                  -1.13090316 [mEh]      -0.70965245 [kcal/mol]      -2.96918585 [kJ/mol]
      Exch-Disp20 (SS)              0.07372886 [mEh]       0.04626556 [kcal/mol]       0.19357510 [kJ/mol]
      Exch-Disp20 (OS)              0.03550448 [mEh]       0.02227940 [kcal/mol]       0.09321699 [kJ/mol]

  Total HF                          0.09629061 [mEh]       0.06042327 [kcal/mol]       0.25281097 [kJ/mol]
  Total SAPT0                      -2.05628238 [mEh]      -1.29033667 [kcal/mol]      -5.39876863 [kJ/mol]

  Special recipe for scaled SAPT0 (see Manual):
    Electrostatics sSAPT0          -0.53041649 [mEh]      -0.33284138 [kcal/mol]      -1.39260831 [kJ/mol]
    Exchange sSAPT0                 0.71791910 [mEh]       0.45050104 [kcal/mol]       1.88489635 [kJ/mol]
    Induction sSAPT0               -0.09101507 [mEh]      -0.05711282 [kcal/mol]      -0.23896004 [kJ/mol]
    Dispersion sSAPT0              -2.15242619 [mEh]      -1.35066783 [kcal/mol]      -5.65119419 [kJ/mol]
  Total sSAPT0                     -2.05593866 [mEh]      -1.29012098 [kcal/mol]      -5.39786620 [kJ/mol]
  --------------------------------------------------------------------------------------------------------

*** tstop() called on r282 at Wed Sep 15 07:28:02 2021
Module time:
	user time   =      42.20 seconds =       0.70 minutes
	system time =       8.47 seconds =       0.14 minutes
	total time  =         51 seconds =       0.85 minutes
Total time:
	user time   =      94.60 seconds =       1.58 minutes
	system time =       9.86 seconds =       0.16 minutes
	total time  =        105 seconds =       1.75 minutes

    Psi4 stopped on: Wednesday, 15 September 2021 07:28AM
    Psi4 wall time for execution: 0:01:44.71

*** Psi4 exiting successfully. Buy a developer a beer!
