
    -----------------------------------------------------------------------
          Psi4: An Open-Source Ab Initio Electronic Structure Package
                               Psi4 1.3.2 release

                         Git: Rev {HEAD} ecbda83 


    R. M. Parrish, L. A. Burns, D. G. A. Smith, A. C. Simmonett,
    A. E. DePrince III, E. G. Hohenstein, U. Bozkaya, A. Yu. Sokolov,
    R. Di Remigio, R. M. Richard, J. F. Gonthier, A. M. James,
    H. R. McAlexander, A. Kumar, M. Saitow, X. Wang, B. P. Pritchard,
    P. Verma, H. F. Schaefer III, K. Patkowski, R. A. King, E. F. Valeev,
    F. A. Evangelista, J. M. Turney, T. D. Crawford, and C. D. Sherrill,
    J. Chem. Theory Comput. 13(7) pp 3185--3197 (2017).
    (doi: 10.1021/acs.jctc.7b00174)


                         Additional Contributions by
    P. Kraus, H. Kruse, M. H. Lechner, M. C. Schieber, R. A. Shaw,
    A. Alenaizan, R. Galvelis, Z. L. Glick, S. Lehtola, and J. P. Misiewicz

    -----------------------------------------------------------------------


    Psi4 started on: Wednesday, 15 September 2021 07:40AM

    Process ID: 6142
    Host:       r282
    PSIDATADIR: /home/r08543048/miniconda3/share/psi4
    Memory:     500.0 MiB
    Threads:    1
    
  ==> Input File <==

--------------------------------------------------------------------------
# Any line starting with the # character is a comment line
#! Sample  computation

memory 22 gb

molecule Dimer {

0 1
 C                 -1.21520003    1.23575149   -0.24157700
 C                 -2.11245703    0.38606049    0.26546400
 C                 -2.22444303   -1.05302351   -0.12469000
 H                 -1.18068203    2.26979449    0.07249400
 H                 -0.49589503    0.90782549   -0.98145700
 H                 -2.81369503    0.75000949    1.00964000
 H                 -3.21220503   -1.26835151   -0.53533400
 H                 -1.47385703   -1.31394151   -0.86938300
 H                 -2.09081703   -1.70440451    0.74098400
--
0 1
 C                  1.21536403   -1.23576849    0.24210400
 C                  2.11201803   -0.38598549   -0.26584900
 C                  2.22463703    1.05298151    0.12453300
 H                  1.18036803   -2.26970649   -0.07225700
 H                  0.49705203   -0.90804849    0.98303900
 H                  2.81224603   -0.74977749   -1.01105600
 H                  2.08989003    1.70461051   -0.74078500
 H                  1.47510203    1.31378051    0.87032800
 H                  3.21298103    1.26811351    0.53387900

units angstrom
no_reorient
symmetry c1
}

set globals{
  basis jun-cc-pvtz
}

energy('sapt0')
--------------------------------------------------------------------------

  Memory set to  20.489 GiB by Python driver.

  //>>>>>>>>>>>>>>>>>>>>>>>>>>>>>>>>>>>//
  //              Dimer HF             //
  //<<<<<<<<<<<<<<<<<<<<<<<<<<<<<<<<<<<//


*** tstart() called on r282
*** at Wed Sep 15 07:40:06 2021

   => Loading Basis Set <=

    Name: JUN-CC-PVTZ
    Role: ORBITAL
    Keyword: BASIS
    atoms 1-3, 10-12 entry C          line   217 file /home/r08543048/miniconda3/share/psi4/basis/jun-cc-pvtz.gbs 
    atoms 4-9, 13-18 entry H          line    36 file /home/r08543048/miniconda3/share/psi4/basis/jun-cc-pvtz.gbs 


         ---------------------------------------------------------
                                   SCF
               by Justin Turney, Rob Parrish, Andy Simmonett
                          and Daniel G. A. Smith
                              RHF Reference
                        1 Threads,  20980 MiB Core
         ---------------------------------------------------------

  ==> Geometry <==

    Molecular point group: c1
    Full point group: C1

    Geometry (in Angstrom), charge = 0, multiplicity = 1:

       Center              X                  Y                   Z               Mass       
    ------------   -----------------  -----------------  -----------------  -----------------
         C           -1.215194319938     1.235750357352    -0.241575962111    12.000000000000
         C           -2.112451319938     0.386059357352     0.265465037889    12.000000000000
         C           -2.224437319938    -1.053024642648    -0.124688962111    12.000000000000
         H           -1.180676319938     2.269793357352     0.072495037889     1.007825032230
         H           -0.495889319938     0.907824357352    -0.981455962111     1.007825032230
         H           -2.813689319938     0.750008357352     1.009641037889     1.007825032230
         H           -3.212199319938    -1.268352642648    -0.535332962111     1.007825032230
         H           -1.473851319938    -1.313942642648    -0.869381962111     1.007825032230
         H           -2.090811319938    -1.704405642648     0.740985037889     1.007825032230
         C            1.215369740062    -1.235769622648     0.242105037889    12.000000000000
         C            2.112023740062    -0.385986622648    -0.265847962111    12.000000000000
         C            2.224642740062     1.052980377352     0.124534037889    12.000000000000
         H            1.180373740062    -2.269707622648    -0.072255962111     1.007825032230
         H            0.497057740062    -0.908049622648     0.983040037889     1.007825032230
         H            2.812251740062    -0.749778622648    -1.011054962111     1.007825032230
         H            2.089895740062     1.704609377352    -0.740783962111     1.007825032230
         H            1.475107740062     1.313779377352     0.870329037889     1.007825032230
         H            3.212986740062     1.268112377352     0.533880037889     1.007825032230

  Running in c1 symmetry.

  Rotational constants: A =      0.16385  B =      0.05177  C =      0.04140 [cm^-1]
  Rotational constants: A =   4912.17962  B =   1552.05521  C =   1241.27947 [MHz]
  Nuclear repulsion =  218.468210521158795

  Charge       = 0
  Multiplicity = 1
  Electrons    = 48
  Nalpha       = 24
  Nbeta        = 24

  ==> Algorithm <==

  SCF Algorithm Type is DF.
  DIIS enabled.
  MOM disabled.
  Fractional occupation disabled.
  Guess Type is SAD.
  Energy threshold   = 1.00e-08
  Density threshold  = 1.00e-08
  Integral threshold = 0.00e+00

  ==> Primary Basis <==

  Basis Set: JUN-CC-PVTZ
    Blend: JUN-CC-PVTZ
    Number of shells: 150
    Number of basis function: 402
    Number of Cartesian functions: 450
    Spherical Harmonics?: true
    Max angular momentum: 3

   => Loading Basis Set <=

    Name: (JUN-CC-PVTZ AUX)
    Role: JKFIT
    Keyword: DF_BASIS_SCF
    atoms 1-3, 10-12 entry C          line   152 file /home/r08543048/miniconda3/share/psi4/basis/jun-cc-pvtz-jkfit.gbs 
    atoms 4-9, 13-18 entry H          line    70 file /home/r08543048/miniconda3/share/psi4/basis/jun-cc-pvtz-jkfit.gbs 

  ==> Pre-Iterations <==

   -------------------------------------------------------
    Irrep   Nso     Nmo     Nalpha   Nbeta   Ndocc  Nsocc
   -------------------------------------------------------
     A        402     402       0       0       0       0
   -------------------------------------------------------
    Total     402     402      24      24      24       0
   -------------------------------------------------------

  ==> Integral Setup <==

  ==> DiskDFJK: Density-Fitted J/K Matrices <==

    J tasked:                  Yes
    K tasked:                  Yes
    wK tasked:                  No
    OpenMP threads:              1
    Integrals threads:           1
    Memory [MiB]:            15735
    Algorithm:                Core
    Integral Cache:           SAVE
    Schwarz Cutoff:          1E-12
    Fitting Condition:       1E-10

   => Auxiliary Basis Set <=

  Basis Set: (JUN-CC-PVTZ AUX)
    Blend: JUN-CC-PVTZ-JKFIT
    Number of shells: 294
    Number of basis function: 930
    Number of Cartesian functions: 1116
    Spherical Harmonics?: true
    Max angular momentum: 4

  Minimum eigenvalue in the overlap matrix is 3.5662682402E-05.
  Using Symmetric Orthogonalization.

  SCF Guess: Superposition of Atomic Densities via on-the-fly atomic UHF.

  ==> Iterations <==

                           Total Energy        Delta E     RMS |[F,P]|

   @DF-RHF iter SAD:  -232.82911784289897   -2.32829e+02   0.00000e+00 
   @DF-RHF iter   1:  -233.97144700161826   -1.14233e+00   1.60301e-03 DIIS
   @DF-RHF iter   2:  -234.18596436328630   -2.14517e-01   6.88519e-04 DIIS
   @DF-RHF iter   3:  -234.22597515699781   -4.00108e-02   1.25030e-04 DIIS
   @DF-RHF iter   4:  -234.22867158220774   -2.69643e-03   2.95130e-05 DIIS
   @DF-RHF iter   5:  -234.22877986743009   -1.08285e-04   1.03551e-05 DIIS
   @DF-RHF iter   6:  -234.22879171033466   -1.18429e-05   2.12261e-06 DIIS
   @DF-RHF iter   7:  -234.22879268425649   -9.73922e-07   9.01107e-07 DIIS
   @DF-RHF iter   8:  -234.22879285587373   -1.71617e-07   3.12902e-07 DIIS
   @DF-RHF iter   9:  -234.22879288127842   -2.54047e-08   1.12498e-07 DIIS
   @DF-RHF iter  10:  -234.22879288460965   -3.33122e-09   2.42830e-08 DIIS
   @DF-RHF iter  11:  -234.22879288474226   -1.32616e-10   5.86349e-09 DIIS
  Energy and wave function converged.


  ==> Post-Iterations <==

    Orbital Energies [Eh]
    ---------------------

    Doubly Occupied:                                                      

       1A    -11.231199     2A    -11.231188     3A    -11.217860  
       4A    -11.217845     5A    -11.214517     6A    -11.214499  
       7A     -1.065624     8A     -1.060025     9A     -0.933079  
      10A     -0.928377    11A     -0.760846    12A     -0.751454  
      13A     -0.638938    14A     -0.637704    15A     -0.584592  
      16A     -0.581184    17A     -0.564482    18A     -0.563128  
      19A     -0.522753    20A     -0.519073    21A     -0.490721  
      22A     -0.490437    23A     -0.360669    24A     -0.350762  

    Virtual:                                                              

      25A      0.052840    26A      0.054191    27A      0.057934  
      28A      0.067211    29A      0.070024    30A      0.073717  
      31A      0.092125    32A      0.096045    33A      0.104179  
      34A      0.107247    35A      0.116656    36A      0.121238  
      37A      0.125881    38A      0.132725    39A      0.139873  
      40A      0.144995    41A      0.153315    42A      0.158407  
      43A      0.171635    44A      0.176515    45A      0.180387  
      46A      0.188190    47A      0.199548    48A      0.203463  
      49A      0.206785    50A      0.226126    51A      0.250345  
      52A      0.256340    53A      0.273364    54A      0.284668  
      55A      0.293142    56A      0.295317    57A      0.309116  
      58A      0.315926    59A      0.318647    60A      0.332643  
      61A      0.339120    62A      0.340594    63A      0.345562  
      64A      0.349968    65A      0.354569    66A      0.364744  
      67A      0.364950    68A      0.373660    69A      0.379873  
      70A      0.386202    71A      0.402869    72A      0.410841  
      73A      0.415276    74A      0.418182    75A      0.419411  
      76A      0.428198    77A      0.435387    78A      0.443733  
      79A      0.460976    80A      0.462677    81A      0.485298  
      82A      0.490076    83A      0.492766    84A      0.517298  
      85A      0.517679    86A      0.521892    87A      0.527227  
      88A      0.540290    89A      0.542909    90A      0.554489  
      91A      0.565540    92A      0.573601    93A      0.586661  
      94A      0.599128    95A      0.620209    96A      0.621503  
      97A      0.677401    98A      0.683264    99A      0.706763  
     100A      0.712275   101A      0.714513   102A      0.725067  
     103A      0.733284   104A      0.735539   105A      0.748119  
     106A      0.750505   107A      0.764818   108A      0.768476  
     109A      0.769702   110A      0.801739   111A      0.811957  
     112A      0.819062   113A      0.828636   114A      0.833571  
     115A      0.852939   116A      0.857223   117A      0.866010  
     118A      0.871628   119A      0.892764   120A      0.899367  
     121A      0.907690   122A      0.926472   123A      0.932584  
     124A      0.936576   125A      0.967247   126A      0.968126  
     127A      0.971041   128A      0.994275   129A      0.998082  
     130A      1.020208   131A      1.050592   132A      1.061497  
     133A      1.078168   134A      1.081428   135A      1.102336  
     136A      1.116042   137A      1.120534   138A      1.135897  
     139A      1.147315   140A      1.161521   141A      1.170841  
     142A      1.190553   143A      1.206110   144A      1.217023  
     145A      1.237933   146A      1.248416   147A      1.254011  
     148A      1.273263   149A      1.313937   150A      1.330664  
     151A      1.332941   152A      1.336285   153A      1.361064  
     154A      1.364423   155A      1.383785   156A      1.389731  
     157A      1.420473   158A      1.423721   159A      1.445721  
     160A      1.446817   161A      1.485975   162A      1.489110  
     163A      1.502854   164A      1.508251   165A      1.508270  
     166A      1.550625   167A      1.556240   168A      1.566854  
     169A      1.577058   170A      1.593612   171A      1.603646  
     172A      1.617450   173A      1.619410   174A      1.624739  
     175A      1.635976   176A      1.645494   177A      1.668512  
     178A      1.672966   179A      1.676261   180A      1.692419  
     181A      1.746705   182A      1.754089   183A      1.767673  
     184A      1.781122   185A      1.790054   186A      1.811363  
     187A      1.868097   188A      1.872258   189A      1.887441  
     190A      1.906466   191A      1.924090   192A      1.925888  
     193A      2.044796   194A      2.048395   195A      2.066934  
     196A      2.077183   197A      2.215354   198A      2.219255  
     199A      2.594816   200A      2.670161   201A      2.712013  
     202A      2.735481   203A      2.767922   204A      2.774143  
     205A      2.782950   206A      2.790325   207A      2.820510  
     208A      2.829325   209A      2.830793   210A      2.846534  
     211A      2.865899   212A      2.879675   213A      2.907500  
     214A      2.916476   215A      2.931134   216A      2.941174  
     217A      2.971700   218A      3.000718   219A      3.013550  
     220A      3.042007   221A      3.058228   222A      3.069196  
     223A      3.069965   224A      3.076791   225A      3.104453  
     226A      3.105231   227A      3.119732   228A      3.124089  
     229A      3.156573   230A      3.160668   231A      3.181326  
     232A      3.183801   233A      3.193837   234A      3.203551  
     235A      3.230226   236A      3.244700   237A      3.259765  
     238A      3.274125   239A      3.284135   240A      3.293043  
     241A      3.305224   242A      3.315794   243A      3.321117  
     244A      3.334599   245A      3.335308   246A      3.346878  
     247A      3.348818   248A      3.390113   249A      3.405130  
     250A      3.410783   251A      3.412823   252A      3.422879  
     253A      3.433649   254A      3.443956   255A      3.453864  
     256A      3.458176   257A      3.480171   258A      3.497605  
     259A      3.517854   260A      3.519239   261A      3.538725  
     262A      3.546402   263A      3.554729   264A      3.569618  
     265A      3.592615   266A      3.602706   267A      3.608904  
     268A      3.620854   269A      3.642407   270A      3.658823  
     271A      3.688354   272A      3.693444   273A      3.719320  
     274A      3.729175   275A      3.752476   276A      3.754031  
     277A      3.760989   278A      3.791578   279A      3.795742  
     280A      3.796405   281A      3.816894   282A      3.820989  
     283A      3.825648   284A      3.860678   285A      3.866318  
     286A      3.866931   287A      3.908169   288A      3.953348  
     289A      3.976471   290A      3.984935   291A      3.995308  
     292A      4.025913   293A      4.048943   294A      4.075919  
     295A      4.077707   296A      4.086223   297A      4.095217  
     298A      4.099580   299A      4.146017   300A      4.149523  
     301A      4.156700   302A      4.183627   303A      4.213139  
     304A      4.222790   305A      4.277658   306A      4.282687  
     307A      4.299294   308A      4.303474   309A      4.330422  
     310A      4.338333   311A      4.350326   312A      4.362061  
     313A      4.371732   314A      4.381830   315A      4.396629  
     316A      4.405269   317A      4.416601   318A      4.421485  
     319A      4.445949   320A      4.447554   321A      4.464501  
     322A      4.500199   323A      4.503640   324A      4.517446  
     325A      4.540724   326A      4.544983   327A      4.555800  
     328A      4.570107   329A      4.606800   330A      4.620932  
     331A      4.627360   332A      4.640398   333A      4.656463  
     334A      4.694462   335A      4.696704   336A      4.747623  
     337A      4.786493   338A      4.790164   339A      4.824647  
     340A      4.843049   341A      4.843221   342A      4.853786  
     343A      4.906603   344A      4.920332   345A      4.923818  
     346A      4.950587   347A      5.038490   348A      5.055047  
     349A      5.075286   350A      5.089440   351A      5.180725  
     352A      5.188180   353A      5.196805   354A      5.217829  
     355A      5.228313   356A      5.230091   357A      5.307392  
     358A      5.307804   359A      5.328568   360A      5.335911  
     361A      5.358842   362A      5.381116   363A      5.391274  
     364A      5.416370   365A      5.440697   366A      5.443465  
     367A      5.484391   368A      5.492383   369A      5.567682  
     370A      5.576140   371A      5.626429   372A      5.631638  
     373A      5.686307   374A      5.693079   375A      5.694341  
     376A      5.712918   377A      5.764044   378A      5.773132  
     379A      5.782699   380A      5.793633   381A      5.855128  
     382A      5.859601   383A      5.971575   384A      5.974299  
     385A      6.095239   386A      6.102460   387A      6.376733  
     388A      6.415051   389A      6.450414   390A      6.455926  
     391A      6.473756   392A      6.479420   393A      6.525605  
     394A      6.530063   395A      6.704955   396A      6.706207  
     397A     12.143672   398A     12.250584   399A     14.691845  
     400A     14.705825   401A     15.329291   402A     15.435498  

    Final Occupation by Irrep:
              A 
    DOCC [    24 ]

  @DF-RHF Final Energy:  -234.22879288474226

   => Energetics <=

    Nuclear Repulsion Energy =            218.4682105211587952
    One-Electron Energy =                -747.1320974420822267
    Two-Electron Energy =                 294.4350940361812263
    Total Energy =                       -234.2287928847422336

Computation Completed


Properties will be evaluated at   0.000000,   0.000000,   0.000000 [a0]

Properties computed using the SCF density matrix

  Nuclear Dipole Moment: [e a0]
     X:     0.0005      Y:    -0.0001      Z:     0.0001

  Electronic Dipole Moment: [e a0]
     X:    -0.0004      Y:     0.0001      Z:    -0.0001

  Dipole Moment: [e a0]
     X:     0.0001      Y:    -0.0000      Z:    -0.0000     Total:     0.0001

  Dipole Moment: [D]
     X:     0.0003      Y:    -0.0001      Z:    -0.0001     Total:     0.0003


*** tstop() called on r282 at Wed Sep 15 07:40:35 2021
Module time:
	user time   =      27.59 seconds =       0.46 minutes
	system time =       0.82 seconds =       0.01 minutes
	total time  =         29 seconds =       0.48 minutes
Total time:
	user time   =      27.59 seconds =       0.46 minutes
	system time =       0.82 seconds =       0.01 minutes
	total time  =         29 seconds =       0.48 minutes

  //>>>>>>>>>>>>>>>>>>>>>>>>>>>>>>>>>>>//
  //            Monomer A HF           //
  //<<<<<<<<<<<<<<<<<<<<<<<<<<<<<<<<<<<//


*** tstart() called on r282
*** at Wed Sep 15 07:40:35 2021

   => Loading Basis Set <=

    Name: JUN-CC-PVTZ
    Role: ORBITAL
    Keyword: BASIS
    atoms 1-3, 10-12 entry C          line   217 file /home/r08543048/miniconda3/share/psi4/basis/jun-cc-pvtz.gbs 
    atoms 4-9, 13-18 entry H          line    36 file /home/r08543048/miniconda3/share/psi4/basis/jun-cc-pvtz.gbs 


         ---------------------------------------------------------
                                   SCF
               by Justin Turney, Rob Parrish, Andy Simmonett
                          and Daniel G. A. Smith
                              RHF Reference
                        1 Threads,  20980 MiB Core
         ---------------------------------------------------------

  ==> Geometry <==

    Molecular point group: c1
    Full point group: C1

    Geometry (in Angstrom), charge = 0, multiplicity = 1:

       Center              X                  Y                   Z               Mass       
    ------------   -----------------  -----------------  -----------------  -----------------
         C           -1.215194319938     1.235750357352    -0.241575962111    12.000000000000
         C           -2.112451319938     0.386059357352     0.265465037889    12.000000000000
         C           -2.224437319938    -1.053024642648    -0.124688962111    12.000000000000
         H           -1.180676319938     2.269793357352     0.072495037889     1.007825032230
         H           -0.495889319938     0.907824357352    -0.981455962111     1.007825032230
         H           -2.813689319938     0.750008357352     1.009641037889     1.007825032230
         H           -3.212199319938    -1.268352642648    -0.535332962111     1.007825032230
         H           -1.473851319938    -1.313942642648    -0.869381962111     1.007825032230
         H           -2.090811319938    -1.704405642648     0.740985037889     1.007825032230
      Gh(C)           1.215369740062    -1.235769622648     0.242105037889    12.000000000000
      Gh(C)           2.112023740062    -0.385986622648    -0.265847962111    12.000000000000
      Gh(C)           2.224642740062     1.052980377352     0.124534037889    12.000000000000
      Gh(H)           1.180373740062    -2.269707622648    -0.072255962111     1.007825032230
      Gh(H)           0.497057740062    -0.908049622648     0.983040037889     1.007825032230
      Gh(H)           2.812251740062    -0.749778622648    -1.011054962111     1.007825032230
      Gh(H)           2.089895740062     1.704609377352    -0.740783962111     1.007825032230
      Gh(H)           1.475107740062     1.313779377352     0.870329037889     1.007825032230
      Gh(H)           3.212986740062     1.268112377352     0.533880037889     1.007825032230

  Running in c1 symmetry.

  Rotational constants: A =      0.16385  B =      0.05177  C =      0.04140 [cm^-1]
  Rotational constants: A =   4912.17962  B =   1552.05521  C =   1241.27947 [MHz]
  Nuclear repulsion =   70.871491972997745

  Charge       = 0
  Multiplicity = 1
  Electrons    = 24
  Nalpha       = 12
  Nbeta        = 12

  ==> Algorithm <==

  SCF Algorithm Type is DF.
  DIIS enabled.
  MOM disabled.
  Fractional occupation disabled.
  Guess Type is SAD.
  Energy threshold   = 1.00e-08
  Density threshold  = 1.00e-08
  Integral threshold = 0.00e+00

  ==> Primary Basis <==

  Basis Set: JUN-CC-PVTZ
    Blend: JUN-CC-PVTZ
    Number of shells: 150
    Number of basis function: 402
    Number of Cartesian functions: 450
    Spherical Harmonics?: true
    Max angular momentum: 3

   => Loading Basis Set <=

    Name: (JUN-CC-PVTZ AUX)
    Role: JKFIT
    Keyword: DF_BASIS_SCF
    atoms 1-3, 10-12 entry C          line   152 file /home/r08543048/miniconda3/share/psi4/basis/jun-cc-pvtz-jkfit.gbs 
    atoms 4-9, 13-18 entry H          line    70 file /home/r08543048/miniconda3/share/psi4/basis/jun-cc-pvtz-jkfit.gbs 

  ==> Pre-Iterations <==

   -------------------------------------------------------
    Irrep   Nso     Nmo     Nalpha   Nbeta   Ndocc  Nsocc
   -------------------------------------------------------
     A        402     402       0       0       0       0
   -------------------------------------------------------
    Total     402     402      12      12      12       0
   -------------------------------------------------------

  ==> Integral Setup <==

  ==> DiskDFJK: Density-Fitted J/K Matrices <==

    J tasked:                  Yes
    K tasked:                  Yes
    wK tasked:                  No
    OpenMP threads:              1
    Integrals threads:           1
    Memory [MiB]:            15735
    Algorithm:                Core
    Integral Cache:           LOAD
    Schwarz Cutoff:          1E-12
    Fitting Condition:       1E-10

   => Auxiliary Basis Set <=

  Basis Set: (JUN-CC-PVTZ AUX)
    Blend: JUN-CC-PVTZ-JKFIT
    Number of shells: 294
    Number of basis function: 930
    Number of Cartesian functions: 1116
    Spherical Harmonics?: true
    Max angular momentum: 4

  Minimum eigenvalue in the overlap matrix is 3.5662682402E-05.
  Using Symmetric Orthogonalization.

  SCF Guess: Superposition of Atomic Densities via on-the-fly atomic UHF.

  ==> Iterations <==

                           Total Energy        Delta E     RMS |[F,P]|

   @DF-RHF iter SAD:  -116.33324543673048   -1.16333e+02   0.00000e+00 
   @DF-RHF iter   1:  -116.98773926487348   -6.54494e-01   1.14075e-03 DIIS
   @DF-RHF iter   2:  -117.09539970337867   -1.07660e-01   4.89951e-04 DIIS
   @DF-RHF iter   3:  -117.11551412606458   -2.01144e-02   8.80168e-05 DIIS
   @DF-RHF iter   4:  -117.11680853928515   -1.29441e-03   2.64922e-05 DIIS
   @DF-RHF iter   5:  -117.11688243517622   -7.38959e-05   7.12666e-06 DIIS
   @DF-RHF iter   6:  -117.11688864777354   -6.21260e-06   1.28420e-06 DIIS
   @DF-RHF iter   7:  -117.11688895616136   -3.08388e-07   4.71657e-07 DIIS
   @DF-RHF iter   8:  -117.11688899686565   -4.07043e-08   1.63273e-07 DIIS
   @DF-RHF iter   9:  -117.11688900269628   -5.83063e-09   5.93892e-08 DIIS
   @DF-RHF iter  10:  -117.11688900363897   -9.42691e-10   1.34837e-08 DIIS
   @DF-RHF iter  11:  -117.11688900368003   -4.10552e-11   2.38401e-09 DIIS
  Energy and wave function converged.


  ==> Post-Iterations <==

    Orbital Energies [Eh]
    ---------------------

    Doubly Occupied:                                                      

       1A    -11.234384     2A    -11.220813     3A    -11.217524  
       4A     -1.064927     5A     -0.932788     6A     -0.758087  
       7A     -0.640060     8A     -0.582612     9A     -0.568357  
      10A     -0.523399    11A     -0.493146    12A     -0.357997  

    Virtual:                                                              

      13A      0.036914    14A      0.048154    15A      0.055497  
      16A      0.061279    17A      0.068497    18A      0.071058  
      19A      0.088793    20A      0.096251    21A      0.097887  
      22A      0.105165    23A      0.109459    24A      0.117875  
      25A      0.122368    26A      0.127708    27A      0.133205  
      28A      0.145265    29A      0.146669    30A      0.153545  
      31A      0.157626    32A      0.166727    33A      0.171470  
      34A      0.175985    35A      0.186052    36A      0.204067  
      37A      0.212902    38A      0.239278    39A      0.248473  
      40A      0.259459    41A      0.263642    42A      0.276002  
      43A      0.285693    44A      0.290003    45A      0.301762  
      46A      0.318643    47A      0.323014    48A      0.327099  
      49A      0.338654    50A      0.342619    51A      0.344878  
      52A      0.357298    53A      0.360937    54A      0.366832  
      55A      0.374343    56A      0.377336    57A      0.382835  
      58A      0.386852    59A      0.398386    60A      0.406095  
      61A      0.413837    62A      0.419849    63A      0.433388  
      64A      0.443452    65A      0.446473    66A      0.456896  
      67A      0.464789    68A      0.469902    69A      0.487633  
      70A      0.489605    71A      0.503286    72A      0.513261  
      73A      0.519815    74A      0.531473    75A      0.534364  
      76A      0.548273    77A      0.562886    78A      0.569236  
      79A      0.576721    80A      0.582661    81A      0.599472  
      82A      0.600699    83A      0.617396    84A      0.624002  
      85A      0.633891    86A      0.636397    87A      0.652197  
      88A      0.674516    89A      0.688916    90A      0.711092  
      91A      0.715515    92A      0.721417    93A      0.738129  
      94A      0.740986    95A      0.759718    96A      0.771456  
      97A      0.787721    98A      0.797141    99A      0.804595  
     100A      0.824501   101A      0.835242   102A      0.841559  
     103A      0.848822   104A      0.879582   105A      0.883191  
     106A      0.909805   107A      0.925933   108A      0.945290  
     109A      0.969218   110A      0.990045   111A      1.015929  
     112A      1.058823   113A      1.072209   114A      1.078368  
     115A      1.084692   116A      1.103859   117A      1.113723  
     118A      1.123010   119A      1.137724   120A      1.145561  
     121A      1.152176   122A      1.168538   123A      1.178528  
     124A      1.190915   125A      1.202362   126A      1.222954  
     127A      1.229218   128A      1.252076   129A      1.259504  
     130A      1.270595   131A      1.279466   132A      1.304209  
     133A      1.309878   134A      1.322830   135A      1.327339  
     136A      1.334435   137A      1.337213   138A      1.346212  
     139A      1.370235   140A      1.379597   141A      1.391546  
     142A      1.398999   143A      1.400297   144A      1.429114  
     145A      1.444172   146A      1.457565   147A      1.464385  
     148A      1.477733   149A      1.486315   150A      1.508640  
     151A      1.514998   152A      1.529595   153A      1.535063  
     154A      1.559273   155A      1.571316   156A      1.580899  
     157A      1.596215   158A      1.610170   159A      1.613787  
     160A      1.626431   161A      1.630742   162A      1.641441  
     163A      1.653360   164A      1.668792   165A      1.688642  
     166A      1.692540   167A      1.702024   168A      1.721616  
     169A      1.725484   170A      1.757291   171A      1.763696  
     172A      1.785488   173A      1.804085   174A      1.828777  
     175A      1.865017   176A      1.893851   177A      1.913933  
     178A      1.935002   179A      1.991249   180A      2.014875  
     181A      2.041014   182A      2.057043   183A      2.077066  
     184A      2.114813   185A      2.122321   186A      2.218407  
     187A      2.240210   188A      2.254325   189A      2.353212  
     190A      2.373430   191A      2.457748   192A      2.525931  
     193A      2.551020   194A      2.639049   195A      2.680740  
     196A      2.749568   197A      2.776184   198A      2.816245  
     199A      2.833562   200A      2.861780   201A      2.877378  
     202A      2.894833   203A      2.920745   204A      2.929584  
     205A      3.016249   206A      3.021100   207A      3.059410  
     208A      3.079967   209A      3.092789   210A      3.104458  
     211A      3.171407   212A      3.176289   213A      3.205169  
     214A      3.238288   215A      3.252680   216A      3.266249  
     217A      3.298520   218A      3.316340   219A      3.328771  
     220A      3.353495   221A      3.385919   222A      3.395998  
     223A      3.417174   224A      3.430730   225A      3.453235  
     226A      3.460298   227A      3.486150   228A      3.501454  
     229A      3.521389   230A      3.529372   231A      3.545487  
     232A      3.562839   233A      3.576472   234A      3.597747  
     235A      3.614795   236A      3.622299   237A      3.638412  
     238A      3.649656   239A      3.671579   240A      3.684770  
     241A      3.702300   242A      3.716920   243A      3.724852  
     244A      3.740556   245A      3.755399   246A      3.773855  
     247A      3.775697   248A      3.786458   249A      3.798905  
     250A      3.815436   251A      3.826716   252A      3.851928  
     253A      3.860202   254A      3.877701   255A      3.898347  
     256A      3.926495   257A      3.940414   258A      3.975514  
     259A      3.995079   260A      4.002168   261A      4.041114  
     262A      4.049825   263A      4.072389   264A      4.076043  
     265A      4.078127   266A      4.098553   267A      4.106168  
     268A      4.123883   269A      4.147790   270A      4.158809  
     271A      4.173941   272A      4.182831   273A      4.203374  
     274A      4.216949   275A      4.223927   276A      4.273860  
     277A      4.274931   278A      4.284619   279A      4.297368  
     280A      4.302996   281A      4.342182   282A      4.357028  
     283A      4.371423   284A      4.382312   285A      4.394873  
     286A      4.409728   287A      4.414162   288A      4.429574  
     289A      4.443701   290A      4.473524   291A      4.479778  
     292A      4.489167   293A      4.499122   294A      4.515582  
     295A      4.522936   296A      4.543414   297A      4.553220  
     298A      4.569129   299A      4.583040   300A      4.603225  
     301A      4.625961   302A      4.628596   303A      4.638737  
     304A      4.665316   305A      4.669786   306A      4.689149  
     307A      4.715279   308A      4.729562   309A      4.742981  
     310A      4.778873   311A      4.790676   312A      4.802822  
     313A      4.810204   314A      4.811958   315A      4.825154  
     316A      4.842471   317A      4.862001   318A      4.876242  
     319A      4.901056   320A      4.920267   321A      4.922158  
     322A      4.939712   323A      4.954348   324A      4.961239  
     325A      4.987534   326A      4.999559   327A      5.029058  
     328A      5.044592   329A      5.058046   330A      5.076075  
     331A      5.082032   332A      5.131488   333A      5.172957  
     334A      5.178216   335A      5.191465   336A      5.209407  
     337A      5.230267   338A      5.252281   339A      5.305786  
     340A      5.323336   341A      5.343867   342A      5.370397  
     343A      5.402652   344A      5.406830   345A      5.444378  
     346A      5.479781   347A      5.490688   348A      5.519160  
     349A      5.536572   350A      5.563716   351A      5.570103  
     352A      5.628033   353A      5.676259   354A      5.691320  
     355A      5.701558   356A      5.769187   357A      5.784358  
     358A      5.800769   359A      5.838010   360A      5.864109  
     361A      5.897518   362A      5.970277   363A      6.001724  
     364A      6.037958   365A      6.091605   366A      6.137911  
     367A      6.145640   368A      6.236793   369A      6.257353  
     370A      6.343411   371A      6.384355   372A      6.390576  
     373A      6.409562   374A      6.455091   375A      6.478912  
     376A      6.523696   377A      6.629699   378A      6.701979  
     379A      6.730645   380A      6.774582   381A      6.861750  
     382A      7.095167   383A      7.394839   384A      7.432356  
     385A      7.561484   386A      7.603535   387A      7.653640  
     388A      7.816798   389A      7.918586   390A      7.986582  
     391A      8.114649   392A      8.290713   393A      8.745841  
     394A      9.400187   395A      9.922546   396A     10.218109  
     397A     12.197700   398A     14.697667   399A     15.379880  
     400A     40.685391   401A     45.962185   402A     47.253395  

    Final Occupation by Irrep:
              A 
    DOCC [    12 ]

  @DF-RHF Final Energy:  -117.11688900368003

   => Energetics <=

    Nuclear Repulsion Energy =             70.8714919729977453
    One-Electron Energy =                -296.7885755841933246
    Two-Electron Energy =                 108.8001946075155502
    Total Energy =                       -117.1168890036800292

Computation Completed


Properties will be evaluated at   0.000000,   0.000000,   0.000000 [a0]

Properties computed using the SCF density matrix

  Nuclear Dipole Moment: [e a0]
     X:   -84.2433      Y:     5.7705      Z:    -2.2069

  Electronic Dipole Moment: [e a0]
     X:    84.1605      Y:    -5.9129      Z:     2.2323

  Dipole Moment: [e a0]
     X:    -0.0828      Y:    -0.1424      Z:     0.0254     Total:     0.1666

  Dipole Moment: [D]
     X:    -0.2104      Y:    -0.3618      Z:     0.0646     Total:     0.4235


*** tstop() called on r282 at Wed Sep 15 07:40:50 2021
Module time:
	user time   =      15.11 seconds =       0.25 minutes
	system time =       0.34 seconds =       0.01 minutes
	total time  =         15 seconds =       0.25 minutes
Total time:
	user time   =      42.70 seconds =       0.71 minutes
	system time =       1.16 seconds =       0.02 minutes
	total time  =         44 seconds =       0.73 minutes

  //>>>>>>>>>>>>>>>>>>>>>>>>>>>>>>>>>>>//
  //            Monomer B HF           //
  //<<<<<<<<<<<<<<<<<<<<<<<<<<<<<<<<<<<//


*** tstart() called on r282
*** at Wed Sep 15 07:40:50 2021

   => Loading Basis Set <=

    Name: JUN-CC-PVTZ
    Role: ORBITAL
    Keyword: BASIS
    atoms 1-3, 10-12 entry C          line   217 file /home/r08543048/miniconda3/share/psi4/basis/jun-cc-pvtz.gbs 
    atoms 4-9, 13-18 entry H          line    36 file /home/r08543048/miniconda3/share/psi4/basis/jun-cc-pvtz.gbs 


         ---------------------------------------------------------
                                   SCF
               by Justin Turney, Rob Parrish, Andy Simmonett
                          and Daniel G. A. Smith
                              RHF Reference
                        1 Threads,  20980 MiB Core
         ---------------------------------------------------------

  ==> Geometry <==

    Molecular point group: c1
    Full point group: C1

    Geometry (in Angstrom), charge = 0, multiplicity = 1:

       Center              X                  Y                   Z               Mass       
    ------------   -----------------  -----------------  -----------------  -----------------
      Gh(C)          -1.215194319938     1.235750357352    -0.241575962111    12.000000000000
      Gh(C)          -2.112451319938     0.386059357352     0.265465037889    12.000000000000
      Gh(C)          -2.224437319938    -1.053024642648    -0.124688962111    12.000000000000
      Gh(H)          -1.180676319938     2.269793357352     0.072495037889     1.007825032230
      Gh(H)          -0.495889319938     0.907824357352    -0.981455962111     1.007825032230
      Gh(H)          -2.813689319938     0.750008357352     1.009641037889     1.007825032230
      Gh(H)          -3.212199319938    -1.268352642648    -0.535332962111     1.007825032230
      Gh(H)          -1.473851319938    -1.313942642648    -0.869381962111     1.007825032230
      Gh(H)          -2.090811319938    -1.704405642648     0.740985037889     1.007825032230
         C            1.215369740062    -1.235769622648     0.242105037889    12.000000000000
         C            2.112023740062    -0.385986622648    -0.265847962111    12.000000000000
         C            2.224642740062     1.052980377352     0.124534037889    12.000000000000
         H            1.180373740062    -2.269707622648    -0.072255962111     1.007825032230
         H            0.497057740062    -0.908049622648     0.983040037889     1.007825032230
         H            2.812251740062    -0.749778622648    -1.011054962111     1.007825032230
         H            2.089895740062     1.704609377352    -0.740783962111     1.007825032230
         H            1.475107740062     1.313779377352     0.870329037889     1.007825032230
         H            3.212986740062     1.268112377352     0.533880037889     1.007825032230

  Running in c1 symmetry.

  Rotational constants: A =      0.16385  B =      0.05177  C =      0.04140 [cm^-1]
  Rotational constants: A =   4912.17962  B =   1552.05521  C =   1241.27947 [MHz]
  Nuclear repulsion =   70.871383723929810

  Charge       = 0
  Multiplicity = 1
  Electrons    = 24
  Nalpha       = 12
  Nbeta        = 12

  ==> Algorithm <==

  SCF Algorithm Type is DF.
  DIIS enabled.
  MOM disabled.
  Fractional occupation disabled.
  Guess Type is SAD.
  Energy threshold   = 1.00e-08
  Density threshold  = 1.00e-08
  Integral threshold = 0.00e+00

  ==> Primary Basis <==

  Basis Set: JUN-CC-PVTZ
    Blend: JUN-CC-PVTZ
    Number of shells: 150
    Number of basis function: 402
    Number of Cartesian functions: 450
    Spherical Harmonics?: true
    Max angular momentum: 3

   => Loading Basis Set <=

    Name: (JUN-CC-PVTZ AUX)
    Role: JKFIT
    Keyword: DF_BASIS_SCF
    atoms 1-3, 10-12 entry C          line   152 file /home/r08543048/miniconda3/share/psi4/basis/jun-cc-pvtz-jkfit.gbs 
    atoms 4-9, 13-18 entry H          line    70 file /home/r08543048/miniconda3/share/psi4/basis/jun-cc-pvtz-jkfit.gbs 

  ==> Pre-Iterations <==

   -------------------------------------------------------
    Irrep   Nso     Nmo     Nalpha   Nbeta   Ndocc  Nsocc
   -------------------------------------------------------
     A        402     402       0       0       0       0
   -------------------------------------------------------
    Total     402     402      12      12      12       0
   -------------------------------------------------------

  ==> Integral Setup <==

  ==> DiskDFJK: Density-Fitted J/K Matrices <==

    J tasked:                  Yes
    K tasked:                  Yes
    wK tasked:                  No
    OpenMP threads:              1
    Integrals threads:           1
    Memory [MiB]:            15735
    Algorithm:                Core
    Integral Cache:           LOAD
    Schwarz Cutoff:          1E-12
    Fitting Condition:       1E-10

   => Auxiliary Basis Set <=

  Basis Set: (JUN-CC-PVTZ AUX)
    Blend: JUN-CC-PVTZ-JKFIT
    Number of shells: 294
    Number of basis function: 930
    Number of Cartesian functions: 1116
    Spherical Harmonics?: true
    Max angular momentum: 4

  Minimum eigenvalue in the overlap matrix is 3.5662682402E-05.
  Using Symmetric Orthogonalization.

  SCF Guess: Superposition of Atomic Densities via on-the-fly atomic UHF.

  ==> Iterations <==

                           Total Energy        Delta E     RMS |[F,P]|

   @DF-RHF iter SAD:  -116.33324110315004   -1.16333e+02   0.00000e+00 
   @DF-RHF iter   1:  -116.98773934476804   -6.54498e-01   1.14075e-03 DIIS
   @DF-RHF iter   2:  -117.09539991419723   -1.07661e-01   4.89951e-04 DIIS
   @DF-RHF iter   3:  -117.11551436177135   -2.01144e-02   8.80172e-05 DIIS
   @DF-RHF iter   4:  -117.11680878565446   -1.29442e-03   2.64930e-05 DIIS
   @DF-RHF iter   5:  -117.11688268553905   -7.38999e-05   7.12667e-06 DIIS
   @DF-RHF iter   6:  -117.11688889823833   -6.21270e-06   1.28422e-06 DIIS
   @DF-RHF iter   7:  -117.11688920663789   -3.08400e-07   4.71672e-07 DIIS
   @DF-RHF iter   8:  -117.11688924734220   -4.07043e-08   1.63278e-07 DIIS
   @DF-RHF iter   9:  -117.11688925317415   -5.83195e-09   5.93903e-08 DIIS
   @DF-RHF iter  10:  -117.11688925411616   -9.42009e-10   1.34837e-08 DIIS
   @DF-RHF iter  11:  -117.11688925415962   -4.34568e-11   2.38397e-09 DIIS
  Energy and wave function converged.


  ==> Post-Iterations <==

    Orbital Energies [Eh]
    ---------------------

    Doubly Occupied:                                                      

       1A    -11.234385     2A    -11.220814     3A    -11.217523  
       4A     -1.064927     5A     -0.932790     6A     -0.758086  
       7A     -0.640058     8A     -0.582615     9A     -0.568356  
      10A     -0.523399    11A     -0.493145    12A     -0.357996  

    Virtual:                                                              

      13A      0.036919    14A      0.048156    15A      0.055494  
      16A      0.061279    17A      0.068500    18A      0.071055  
      19A      0.088788    20A      0.096255    21A      0.097870  
      22A      0.105169    23A      0.109465    24A      0.117879  
      25A      0.122363    26A      0.127710    27A      0.133209  
      28A      0.145261    29A      0.146675    30A      0.153547  
      31A      0.157621    32A      0.166720    33A      0.171483  
      34A      0.176001    35A      0.186042    36A      0.204075  
      37A      0.212897    38A      0.239269    39A      0.248483  
      40A      0.259470    41A      0.263638    42A      0.276018  
      43A      0.285700    44A      0.290009    45A      0.301804  
      46A      0.318666    47A      0.323035    48A      0.327115  
      49A      0.338665    50A      0.342616    51A      0.344822  
      52A      0.357278    53A      0.360924    54A      0.366772  
      55A      0.374356    56A      0.377304    57A      0.382799  
      58A      0.386855    59A      0.398412    60A      0.406092  
      61A      0.413855    62A      0.419832    63A      0.433348  
      64A      0.443467    65A      0.446488    66A      0.456907  
      67A      0.464730    68A      0.469967    69A      0.487604  
      70A      0.489634    71A      0.503303    72A      0.513285  
      73A      0.519782    74A      0.531480    75A      0.534399  
      76A      0.548255    77A      0.562888    78A      0.569268  
      79A      0.576705    80A      0.582630    81A      0.599571  
      82A      0.600685    83A      0.617427    84A      0.623956  
      85A      0.633886    86A      0.636355    87A      0.652199  
      88A      0.674542    89A      0.688893    90A      0.711126  
      91A      0.715492    92A      0.721450    93A      0.738158  
      94A      0.741013    95A      0.759748    96A      0.771477  
      97A      0.787711    98A      0.797149    99A      0.804589  
     100A      0.824485   101A      0.835306   102A      0.841554  
     103A      0.848823   104A      0.879616   105A      0.883201  
     106A      0.909848   107A      0.925971   108A      0.945279  
     109A      0.969204   110A      0.990028   111A      1.015948  
     112A      1.058927   113A      1.072123   114A      1.078407  
     115A      1.084739   116A      1.103830   117A      1.113723  
     118A      1.122940   119A      1.137677   120A      1.145640  
     121A      1.152139   122A      1.168562   123A      1.178591  
     124A      1.190873   125A      1.202374   126A      1.222996  
     127A      1.229235   128A      1.252246   129A      1.259489  
     130A      1.270551   131A      1.279505   132A      1.304020  
     133A      1.309856   134A      1.322728   135A      1.327486  
     136A      1.334347   137A      1.337212   138A      1.346204  
     139A      1.370272   140A      1.379479   141A      1.391594  
     142A      1.398997   143A      1.400281   144A      1.429116  
     145A      1.444242   146A      1.457578   147A      1.464402  
     148A      1.477762   149A      1.486211   150A      1.508726  
     151A      1.515015   152A      1.529540   153A      1.535046  
     154A      1.559287   155A      1.571369   156A      1.580976  
     157A      1.596258   158A      1.610205   159A      1.613890  
     160A      1.626434   161A      1.630792   162A      1.641261  
     163A      1.653381   164A      1.668735   165A      1.688592  
     166A      1.692627   167A      1.701981   168A      1.721417  
     169A      1.725677   170A      1.757289   171A      1.763685  
     172A      1.785566   173A      1.804017   174A      1.828702  
     175A      1.865007   176A      1.893858   177A      1.913791  
     178A      1.934907   179A      1.991230   180A      2.014874  
     181A      2.040903   182A      2.057081   183A      2.077065  
     184A      2.114856   185A      2.122287   186A      2.218501  
     187A      2.240159   188A      2.254336   189A      2.353214  
     190A      2.373421   191A      2.457760   192A      2.525945  
     193A      2.551020   194A      2.639152   195A      2.680797  
     196A      2.749662   197A      2.776218   198A      2.816307  
     199A      2.833642   200A      2.861772   201A      2.877764  
     202A      2.894816   203A      2.920858   204A      2.929664  
     205A      3.016334   206A      3.021266   207A      3.059460  
     208A      3.080035   209A      3.092817   210A      3.104527  
     211A      3.171350   212A      3.176268   213A      3.205276  
     214A      3.238410   215A      3.252651   216A      3.266260  
     217A      3.298534   218A      3.316312   219A      3.328748  
     220A      3.353499   221A      3.385931   222A      3.395938  
     223A      3.417204   224A      3.430725   225A      3.453188  
     226A      3.460301   227A      3.486178   228A      3.501496  
     229A      3.521415   230A      3.529382   231A      3.545530  
     232A      3.562872   233A      3.576333   234A      3.597728  
     235A      3.614719   236A      3.622303   237A      3.638431  
     238A      3.649582   239A      3.671575   240A      3.684728  
     241A      3.702264   242A      3.716919   243A      3.724781  
     244A      3.740486   245A      3.755385   246A      3.773937  
     247A      3.775738   248A      3.786485   249A      3.798864  
     250A      3.815389   251A      3.826699   252A      3.851856  
     253A      3.860207   254A      3.877649   255A      3.898364  
     256A      3.926584   257A      3.940347   258A      3.975473  
     259A      3.995113   260A      4.002136   261A      4.041189  
     262A      4.049848   263A      4.072395   264A      4.076166  
     265A      4.078177   266A      4.098511   267A      4.106172  
     268A      4.123998   269A      4.147762   270A      4.158798  
     271A      4.173971   272A      4.182958   273A      4.203351  
     274A      4.216909   275A      4.223885   276A      4.273943  
     277A      4.274986   278A      4.284609   279A      4.297420  
     280A      4.302980   281A      4.342135   282A      4.357082  
     283A      4.371427   284A      4.382345   285A      4.394767  
     286A      4.409613   287A      4.414197   288A      4.429660  
     289A      4.443660   290A      4.473600   291A      4.479714  
     292A      4.489144   293A      4.499101   294A      4.515491  
     295A      4.522970   296A      4.543384   297A      4.553127  
     298A      4.569074   299A      4.583027   300A      4.603239  
     301A      4.625986   302A      4.628634   303A      4.638833  
     304A      4.665292   305A      4.669787   306A      4.689092  
     307A      4.715344   308A      4.729582   309A      4.742912  
     310A      4.778921   311A      4.790680   312A      4.802739  
     313A      4.810190   314A      4.811906   315A      4.825200  
     316A      4.842440   317A      4.861986   318A      4.876220  
     319A      4.901069   320A      4.920339   321A      4.922115  
     322A      4.939740   323A      4.954408   324A      4.961333  
     325A      4.987595   326A      4.999647   327A      5.029126  
     328A      5.044668   329A      5.057969   330A      5.076057  
     331A      5.082043   332A      5.131506   333A      5.172887  
     334A      5.178199   335A      5.191506   336A      5.209482  
     337A      5.230211   338A      5.252276   339A      5.305793  
     340A      5.323310   341A      5.343896   342A      5.370386  
     343A      5.402640   344A      5.406795   345A      5.444474  
     346A      5.479775   347A      5.490637   348A      5.519146  
     349A      5.536585   350A      5.563737   351A      5.570099  
     352A      5.628037   353A      5.676253   354A      5.691312  
     355A      5.701587   356A      5.769168   357A      5.784361  
     358A      5.800736   359A      5.837981   360A      5.864104  
     361A      5.897525   362A      5.970295   363A      6.001685  
     364A      6.037992   365A      6.091677   366A      6.137933  
     367A      6.145647   368A      6.236719   369A      6.257274  
     370A      6.343339   371A      6.384383   372A      6.390534  
     373A      6.409605   374A      6.455028   375A      6.478915  
     376A      6.523712   377A      6.629701   378A      6.702015  
     379A      6.730660   380A      6.774502   381A      6.861721  
     382A      7.095143   383A      7.394813   384A      7.432356  
     385A      7.561465   386A      7.603545   387A      7.653655  
     388A      7.816815   389A      7.918608   390A      7.986604  
     391A      8.114652   392A      8.290710   393A      8.745817  
     394A      9.400127   395A      9.922276   396A     10.218011  
     397A     12.197851   398A     14.698088   399A     15.380285  
     400A     40.685150   401A     45.961701   402A     47.252680  

    Final Occupation by Irrep:
              A 
    DOCC [    12 ]

  @DF-RHF Final Energy:  -117.11688925415962

   => Energetics <=

    Nuclear Repulsion Energy =             70.8713837239298101
    One-Electron Energy =                -296.7883571043253710
    Two-Electron Energy =                 108.8000841262359586
    Total Energy =                       -117.1168892541596165

Computation Completed


Properties will be evaluated at   0.000000,   0.000000,   0.000000 [a0]

Properties computed using the SCF density matrix

  Nuclear Dipole Moment: [e a0]
     X:    84.2438      Y:    -5.7706      Z:     2.2070

  Electronic Dipole Moment: [e a0]
     X:   -84.1610      Y:     5.9130      Z:    -2.2325

  Dipole Moment: [e a0]
     X:     0.0828      Y:     0.1424      Z:    -0.0255     Total:     0.1666

  Dipole Moment: [D]
     X:     0.2104      Y:     0.3619      Z:    -0.0648     Total:     0.4236


*** tstop() called on r282 at Wed Sep 15 07:41:06 2021
Module time:
	user time   =      15.07 seconds =       0.25 minutes
	system time =       0.40 seconds =       0.01 minutes
	total time  =         16 seconds =       0.27 minutes
Total time:
	user time   =      57.78 seconds =       0.96 minutes
	system time =       1.56 seconds =       0.03 minutes
	total time  =         60 seconds =       1.00 minutes
  Constructing Basis Sets for SAPT...

   => Loading Basis Set <=

    Name: (JUN-CC-PVTZ AUX)
    Role: RIFIT
    Keyword: DF_BASIS_SAPT
    atoms 1-3, 10-12 entry C          line   132 file /home/r08543048/miniconda3/share/psi4/basis/jun-cc-pvtz-ri.gbs 
    atoms 4-9, 13-18 entry H          line    30 file /home/r08543048/miniconda3/share/psi4/basis/jun-cc-pvtz-ri.gbs 


  //>>>>>>>>>>>>>>>>>>>>>>>>>>>>>>>>>>>//
  //               SAPT0               //
  //<<<<<<<<<<<<<<<<<<<<<<<<<<<<<<<<<<<//


*** tstart() called on r282
*** at Wed Sep 15 07:41:06 2021

        SAPT0  
    Ed Hohenstein
     6 June 2009

      Orbital Information
  --------------------------
    NSO        =       402
    NMO        =       402
    NRI        =       942
    NOCC A     =        12
    NOCC B     =        12
    FOCC A     =         0
    FOCC B     =         0
    NVIR A     =       390
    NVIR B     =       390

    Elst10,r            =    -0.004300865158 [Eh]
    Exch10              =     0.010290268307 [Eh]
    Exch10 (S^2)        =     0.010230423352 [Eh]

    Iter     Energy [mEh]          dE [mEh]         Residual      Time [s]
       1      -1.21703073       1.217030733       4.830180863             1
       2      -1.51532690       0.298296165       1.469194070             1
       3      -1.52752122       0.012194321       0.417167289             2
       4      -1.52023259      -0.007288632       0.123546018             2
       5      -1.52007011      -0.000162480       0.034033710             3
       6      -1.52042719       0.000357083       0.013320406             3
       7      -1.52048256       0.000055367       0.004197714             4
       8      -1.52043501      -0.000047553       0.001151154             4
       9      -1.52043931       0.000004305       0.000364623             5
      10      -1.52044145       0.000002144       0.000085802             5
      11      -1.52044100      -0.000000453       0.000019561             5
      12      -1.52044097      -0.000000028       0.000004680             6
      13      -1.52044100       0.000000024       0.000000898             6

    CHF Iterations converged


    Iter     Energy [mEh]          dE [mEh]         Residual      Time [s]
       1      -1.21766296       1.217662959       4.832476318             1
       2      -1.51640548       0.298742520       1.469784330             1
       3      -1.52856797       0.012162491       0.417705828             2
       4      -1.52127149      -0.007296482       0.123700995             2
       5      -1.52110812      -0.000163370       0.034076739             3
       6      -1.52146594       0.000357826       0.013326690             3
       7      -1.52152127       0.000055331       0.004201701             4
       8      -1.52147369      -0.000047587       0.001151634             4
       9      -1.52147800       0.000004317       0.000364669             5
      10      -1.52148014       0.000002140       0.000085882             5
      11      -1.52147969      -0.000000452       0.000019594             6
      12      -1.52147966      -0.000000029       0.000004685             6
      13      -1.52147969       0.000000024       0.000000898             7

    CHF Iterations converged

    Ind20,r (A<-B)      =    -0.001520440997 [Eh]
    Ind20,r (B<-A)      =    -0.001521479688 [Eh]
    Ind20,r             =    -0.003041920685 [Eh]
    Exch-Ind20,r (A<-B) =     0.001419740133 [Eh]
    Exch-Ind20,r (B<-A) =     0.001420695245 [Eh]
    Exch-Ind20,r        =     0.002840435378 [Eh]
    Disp20              =    -0.009177104734 [Eh]
    Disp20 (SS)         =    -0.004588552367 [Eh]
    Disp20 (OS)         =    -0.004588552367 [Eh]
    Exch-Disp20         =     0.001220634242 [Eh]
    Exch-Disp20 (SS)    =     0.000790178729 [Eh]
    Exch-Disp20 (OS)    =     0.000430455513 [Eh]

    SAPT Results 
  --------------------------------------------------------------------------------------------------------
    Electrostatics                 -4.30086516 [mEh]      -2.69883363 [kcal/mol]     -11.29191992 [kJ/mol]
      Elst10,r                     -4.30086516 [mEh]      -2.69883363 [kcal/mol]     -11.29191992 [kJ/mol]

    Exchange                       10.29026831 [mEh]       6.45724085 [kcal/mol]      27.01709572 [kJ/mol]
      Exch10                       10.29026831 [mEh]       6.45724085 [kcal/mol]      27.01709572 [kJ/mol]
      Exch10(S^2)                  10.23042335 [mEh]       6.41968757 [kcal/mol]      26.85997281 [kJ/mol]

    Induction                      -1.00403005 [mEh]      -0.63003837 [kcal/mol]      -2.63608054 [kJ/mol]
      Ind20,r                      -3.04192068 [mEh]      -1.90883405 [kcal/mol]      -7.98656166 [kJ/mol]
      Exch-Ind20,r                  2.84043538 [mEh]       1.78240011 [kcal/mol]       7.45756206 [kJ/mol]
      delta HF,r (2)               -0.80254475 [mEh]      -0.50360443 [kcal/mol]      -2.10708094 [kJ/mol]

    Dispersion                     -7.95647049 [mEh]      -4.99276061 [kcal/mol]     -20.88971040 [kJ/mol]
      Disp20                       -9.17710473 [mEh]      -5.75872016 [kcal/mol]     -24.09448516 [kJ/mol]
      Exch-Disp20                   1.22063424 [mEh]       0.76595955 [kcal/mol]       3.20477476 [kJ/mol]
      Disp20 (SS)                  -4.58855237 [mEh]      -2.87936008 [kcal/mol]     -12.04724258 [kJ/mol]
      Disp20 (OS)                  -4.58855237 [mEh]      -2.87936008 [kcal/mol]     -12.04724258 [kJ/mol]
      Exch-Disp20 (SS)              0.79017873 [mEh]       0.49584464 [kcal/mol]       2.07461397 [kJ/mol]
      Exch-Disp20 (OS)              0.43045551 [mEh]       0.27011491 [kcal/mol]       1.13016079 [kJ/mol]

  Total HF                          4.98537310 [mEh]       3.12836885 [kcal/mol]      13.08909526 [kJ/mol]
  Total SAPT0                      -2.97109739 [mEh]      -1.86439176 [kcal/mol]      -7.80061514 [kJ/mol]

  Special recipe for scaled SAPT0 (see Manual):
    Electrostatics sSAPT0          -4.30086516 [mEh]      -2.69883363 [kcal/mol]     -11.29191992 [kJ/mol]
    Exchange sSAPT0                10.29026831 [mEh]       6.45724085 [kcal/mol]      27.01709572 [kJ/mol]
    Induction sSAPT0               -0.95389077 [mEh]      -0.59857549 [kcal/mol]      -2.50443987 [kJ/mol]
    Dispersion sSAPT0              -7.93492389 [mEh]      -4.97923992 [kcal/mol]     -20.83313981 [kJ/mol]
  Total sSAPT0                     -2.89941151 [mEh]      -1.81940819 [kcal/mol]      -7.61240387 [kJ/mol]
  --------------------------------------------------------------------------------------------------------

*** tstop() called on r282 at Wed Sep 15 07:42:00 2021
Module time:
	user time   =      43.00 seconds =       0.72 minutes
	system time =       8.56 seconds =       0.14 minutes
	total time  =         54 seconds =       0.90 minutes
Total time:
	user time   =     100.90 seconds =       1.68 minutes
	system time =      10.12 seconds =       0.17 minutes
	total time  =        114 seconds =       1.90 minutes

    Psi4 stopped on: Wednesday, 15 September 2021 07:42AM
    Psi4 wall time for execution: 0:01:53.92

*** Psi4 exiting successfully. Buy a developer a beer!
