
    -----------------------------------------------------------------------
          Psi4: An Open-Source Ab Initio Electronic Structure Package
                               Psi4 1.3.2 release

                         Git: Rev {HEAD} ecbda83 


    R. M. Parrish, L. A. Burns, D. G. A. Smith, A. C. Simmonett,
    A. E. DePrince III, E. G. Hohenstein, U. Bozkaya, A. Yu. Sokolov,
    R. Di Remigio, R. M. Richard, J. F. Gonthier, A. M. James,
    H. R. McAlexander, A. Kumar, M. Saitow, X. Wang, B. P. Pritchard,
    P. Verma, H. F. Schaefer III, K. Patkowski, R. A. King, E. F. Valeev,
    F. A. Evangelista, J. M. Turney, T. D. Crawford, and C. D. Sherrill,
    J. Chem. Theory Comput. 13(7) pp 3185--3197 (2017).
    (doi: 10.1021/acs.jctc.7b00174)


                         Additional Contributions by
    P. Kraus, H. Kruse, M. H. Lechner, M. C. Schieber, R. A. Shaw,
    A. Alenaizan, R. Galvelis, Z. L. Glick, S. Lehtola, and J. P. Misiewicz

    -----------------------------------------------------------------------


    Psi4 started on: Wednesday, 15 September 2021 07:21AM

    Process ID: 4688
    Host:       r282
    PSIDATADIR: /home/r08543048/miniconda3/share/psi4
    Memory:     500.0 MiB
    Threads:    1
    
  ==> Input File <==

--------------------------------------------------------------------------
# Any line starting with the # character is a comment line
#! Sample  computation

memory 22 gb

molecule Dimer {

0 1
 C                 -2.91871290   -1.23361181    0.03574523
 C                 -2.60773490   -0.05065381   -0.87281777
 C                 -2.70868990    1.27858119   -0.13513777
 H                 -2.22903890   -1.26493081    0.88071123
 H                 -3.92989990   -1.15605781    0.43788323
 H                 -2.84002290   -2.18168581   -0.49582177
 H                 -3.29500590   -0.05104181   -1.72141677
 H                 -1.60421390   -0.16346581   -1.28819977
 H                 -2.48230890    2.12090719   -0.78861377
 H                 -3.71393690    1.42250719    0.26373123
 H                 -2.01187790    1.30970119    0.70394423
--
0 1
 C                  2.91841390   -1.23379119   -0.03574923
 C                  2.60787790   -0.05075019    0.87285777
 C                  2.70886490    1.27843981    0.13510477
 H                  2.22849990   -1.26506119   -0.88052723
 H                  3.92949990   -1.15640019   -0.43817123
 H                  2.83971790   -2.18182819    0.49588177
 H                  3.29536590   -0.05121919    1.72128077
 H                  1.60444090   -0.16337419    1.28850277
 H                  2.48284990    2.12082381    0.78863277
 H                  3.71401690    1.42216881   -0.26407523
 H                  2.01180090    1.30966481   -0.70375423

units angstrom
no_reorient
symmetry c1
}

set globals{
  basis jun-cc-pvtz
}

energy('sapt0')
--------------------------------------------------------------------------

  Memory set to  20.489 GiB by Python driver.

  //>>>>>>>>>>>>>>>>>>>>>>>>>>>>>>>>>>>//
  //              Dimer HF             //
  //<<<<<<<<<<<<<<<<<<<<<<<<<<<<<<<<<<<//


*** tstart() called on r282
*** at Wed Sep 15 07:21:17 2021

   => Loading Basis Set <=

    Name: JUN-CC-PVTZ
    Role: ORBITAL
    Keyword: BASIS
    atoms 1-3, 12-14  entry C          line   217 file /home/r08543048/miniconda3/share/psi4/basis/jun-cc-pvtz.gbs 
    atoms 4-11, 15-22 entry H          line    36 file /home/r08543048/miniconda3/share/psi4/basis/jun-cc-pvtz.gbs 


         ---------------------------------------------------------
                                   SCF
               by Justin Turney, Rob Parrish, Andy Simmonett
                          and Daniel G. A. Smith
                              RHF Reference
                        1 Threads,  20980 MiB Core
         ---------------------------------------------------------

  ==> Geometry <==

    Molecular point group: c1
    Full point group: C1

    Geometry (in Angstrom), charge = 0, multiplicity = 1:

       Center              X                  Y                   Z               Mass       
    ------------   -----------------  -----------------  -----------------  -----------------
         C           -2.918714194928    -1.232815548463     0.035744958726    12.000000000000
         C           -2.607736194928    -0.049857548463    -0.872818041274    12.000000000000
         C           -2.708691194928     1.279377451537    -0.135138041274    12.000000000000
         H           -2.229040194928    -1.264134548463     0.880710958726     1.007825032230
         H           -3.929901194928    -1.155261548463     0.437882958726     1.007825032230
         H           -2.840024194928    -2.180889548463    -0.495822041274     1.007825032230
         H           -3.295007194928    -0.050245548463    -1.721417041274     1.007825032230
         H           -1.604215194928    -0.162669548463    -1.288200041274     1.007825032230
         H           -2.482310194928     2.121703451537    -0.788614041274     1.007825032230
         H           -3.713938194928     1.423303451537     0.263730958726     1.007825032230
         H           -2.011879194928     1.310497451537     0.703943958726     1.007825032230
         C            2.918412605072    -1.232994928463    -0.035749501274    12.000000000000
         C            2.607876605072    -0.049953928463     0.872857498726    12.000000000000
         C            2.708863605072     1.279236071537     0.135104498726    12.000000000000
         H            2.228498605072    -1.264264928463    -0.880527501274     1.007825032230
         H            3.929498605072    -1.155603928463    -0.438171501274     1.007825032230
         H            2.839716605072    -2.181031928463     0.495881498726     1.007825032230
         H            3.295364605072    -0.050422928463     1.721280498726     1.007825032230
         H            1.604439605072    -0.162577928463     1.288502498726     1.007825032230
         H            2.482848605072     2.121620071537     0.788632498726     1.007825032230
         H            3.714015605072     1.422965071537    -0.264075501274     1.007825032230
         H            2.011799605072     1.310461071537    -0.703754501274     1.007825032230

  Running in c1 symmetry.

  Rotational constants: A =      0.12660  B =      0.02376  C =      0.02128 [cm^-1]
  Rotational constants: A =   3795.31648  B =    712.29232  C =    637.82808 [MHz]
  Nuclear repulsion =  227.730674348261743

  Charge       = 0
  Multiplicity = 1
  Electrons    = 52
  Nalpha       = 26
  Nbeta        = 26

  ==> Algorithm <==

  SCF Algorithm Type is DF.
  DIIS enabled.
  MOM disabled.
  Fractional occupation disabled.
  Guess Type is SAD.
  Energy threshold   = 1.00e-08
  Density threshold  = 1.00e-08
  Integral threshold = 0.00e+00

  ==> Primary Basis <==

  Basis Set: JUN-CC-PVTZ
    Blend: JUN-CC-PVTZ
    Number of shells: 174
    Number of basis function: 458
    Number of Cartesian functions: 510
    Spherical Harmonics?: true
    Max angular momentum: 3

   => Loading Basis Set <=

    Name: (JUN-CC-PVTZ AUX)
    Role: JKFIT
    Keyword: DF_BASIS_SCF
    atoms 1-3, 12-14  entry C          line   152 file /home/r08543048/miniconda3/share/psi4/basis/jun-cc-pvtz-jkfit.gbs 
    atoms 4-11, 15-22 entry H          line    70 file /home/r08543048/miniconda3/share/psi4/basis/jun-cc-pvtz-jkfit.gbs 

  ==> Pre-Iterations <==

   -------------------------------------------------------
    Irrep   Nso     Nmo     Nalpha   Nbeta   Ndocc  Nsocc
   -------------------------------------------------------
     A        458     458       0       0       0       0
   -------------------------------------------------------
    Total     458     458      26      26      26       0
   -------------------------------------------------------

  ==> Integral Setup <==

  ==> DiskDFJK: Density-Fitted J/K Matrices <==

    J tasked:                  Yes
    K tasked:                  Yes
    wK tasked:                  No
    OpenMP threads:              1
    Integrals threads:           1
    Memory [MiB]:            15735
    Algorithm:                Core
    Integral Cache:           SAVE
    Schwarz Cutoff:          1E-12
    Fitting Condition:       1E-10

   => Auxiliary Basis Set <=

  Basis Set: (JUN-CC-PVTZ AUX)
    Blend: JUN-CC-PVTZ-JKFIT
    Number of shells: 334
    Number of basis function: 1050
    Number of Cartesian functions: 1256
    Spherical Harmonics?: true
    Max angular momentum: 4

  Minimum eigenvalue in the overlap matrix is 1.0003151017E-04.
  Using Symmetric Orthogonalization.

  SCF Guess: Superposition of Atomic Densities via on-the-fly atomic UHF.

  ==> Iterations <==

                           Total Energy        Delta E     RMS |[F,P]|

   @DF-RHF iter SAD:  -235.45511426629380   -2.35455e+02   0.00000e+00 
   @DF-RHF iter   1:  -236.29275865973761   -8.37644e-01   1.59121e-03 DIIS
   @DF-RHF iter   2:  -236.55135089323602   -2.58592e-01   7.53467e-04 DIIS
   @DF-RHF iter   3:  -236.61229611308883   -6.09452e-02   1.26690e-04 DIIS
   @DF-RHF iter   4:  -236.61600557732899   -3.70946e-03   2.50692e-05 DIIS
   @DF-RHF iter   5:  -236.61612297992389   -1.17403e-04   7.04834e-06 DIIS
   @DF-RHF iter   6:  -236.61613224536677   -9.26544e-06   1.25310e-06 DIIS
   @DF-RHF iter   7:  -236.61613258663073   -3.41264e-07   2.32082e-07 DIIS
   @DF-RHF iter   8:  -236.61613260101535   -1.43846e-08   4.05939e-08 DIIS
   @DF-RHF iter   9:  -236.61613260145882   -4.43464e-10   8.08929e-09 DIIS
  Energy and wave function converged.


  ==> Post-Iterations <==

    Orbital Energies [Eh]
    ---------------------

    Doubly Occupied:                                                      

       1A    -11.215936     2A    -11.215936     3A    -11.208134  
       4A    -11.208134     5A    -11.208093     6A    -11.208092  
       7A     -1.054415     8A     -1.054306     9A     -0.925155  
      10A     -0.925076    11A     -0.800190    12A     -0.800093  
      13A     -0.625791    14A     -0.624352    15A     -0.598579  
      16A     -0.598516    17A     -0.549739    18A     -0.549620  
      19A     -0.530789    20A     -0.530181    21A     -0.476168  
      22A     -0.475533    23A     -0.475275    24A     -0.475207  
      25A     -0.468776    26A     -0.467880  

    Virtual:                                                              

      27A      0.052066    28A      0.055102    29A      0.055326  
      30A      0.063238    31A      0.067611    32A      0.071115  
      33A      0.080018    34A      0.091013    35A      0.094611  
      36A      0.104417    37A      0.106016    38A      0.109645  
      39A      0.111930    40A      0.112684    41A      0.122404  
      42A      0.133413    43A      0.139186    44A      0.145339  
      45A      0.149942    46A      0.166382    47A      0.183360  
      48A      0.194633    49A      0.208305    50A      0.209579  
      51A      0.235507    52A      0.252891    53A      0.260484  
      54A      0.266872    55A      0.270442    56A      0.273632  
      57A      0.284656    58A      0.287231    59A      0.295512  
      60A      0.297391    61A      0.303875    62A      0.313714  
      63A      0.319712    64A      0.324780    65A      0.325875  
      66A      0.327604    67A      0.338051    68A      0.340619  
      69A      0.345480    70A      0.345819    71A      0.353062  
      72A      0.354235    73A      0.357165    74A      0.362977  
      75A      0.368163    76A      0.377346    77A      0.383541  
      78A      0.387945    79A      0.389660    80A      0.395298  
      81A      0.410848    82A      0.418685    83A      0.422728  
      84A      0.429879    85A      0.436554    86A      0.450089  
      87A      0.452702    88A      0.474100    89A      0.486971  
      90A      0.502704    91A      0.508185    92A      0.515869  
      93A      0.526542    94A      0.527197    95A      0.534394  
      96A      0.535820    97A      0.537362    98A      0.542303  
      99A      0.564469   100A      0.566699   101A      0.632873  
     102A      0.635354   103A      0.641566   104A      0.652846  
     105A      0.660659   106A      0.671115   107A      0.689347  
     108A      0.705200   109A      0.708304   110A      0.719196  
     111A      0.737125   112A      0.741312   113A      0.761499  
     114A      0.767914   115A      0.770812   116A      0.779194  
     117A      0.786288   118A      0.796128   119A      0.796246  
     120A      0.798357   121A      0.801968   122A      0.806002  
     123A      0.807268   124A      0.821484   125A      0.823484  
     126A      0.849213   127A      0.866211   128A      0.868777  
     129A      0.877391   130A      0.879290   131A      0.880064  
     132A      0.891267   133A      0.901283   134A      0.903838  
     135A      0.916237   136A      0.964510   137A      0.971105  
     138A      0.973785   139A      0.980671   140A      0.984698  
     141A      0.996773   142A      1.002499   143A      1.012355  
     144A      1.020994   145A      1.095376   146A      1.098398  
     147A      1.100069   148A      1.106117   149A      1.147914  
     150A      1.160871   151A      1.166399   152A      1.176523  
     153A      1.199418   154A      1.213775   155A      1.267193  
     156A      1.274594   157A      1.317013   158A      1.319728  
     159A      1.324240   160A      1.325475   161A      1.340110  
     162A      1.343495   163A      1.344474   164A      1.358328  
     165A      1.360723   166A      1.362180   167A      1.365377  
     168A      1.370429   169A      1.378089   170A      1.388667  
     171A      1.395041   172A      1.403387   173A      1.407558  
     174A      1.410901   175A      1.434253   176A      1.439123  
     177A      1.464644   178A      1.483690   179A      1.519075  
     180A      1.520221   181A      1.525186   182A      1.526740  
     183A      1.546319   184A      1.573503   185A      1.576133  
     186A      1.590558   187A      1.601308   188A      1.604346  
     189A      1.607936   190A      1.610030   191A      1.640739  
     192A      1.641206   193A      1.652728   194A      1.659800  
     195A      1.678058   196A      1.689976   197A      1.697877  
     198A      1.698583   199A      1.699839   200A      1.713649  
     201A      1.797044   202A      1.802541   203A      1.807992  
     204A      1.820950   205A      1.822850   206A      1.824627  
     207A      1.846755   208A      1.869767   209A      1.900780  
     210A      1.908858   211A      1.918833   212A      1.930169  
     213A      1.931102   214A      1.945813   215A      1.950472  
     216A      1.966570   217A      2.055077   218A      2.076459  
     219A      2.718824   220A      2.727067   221A      2.727460  
     222A      2.738607   223A      2.741485   224A      2.746959  
     225A      2.752148   226A      2.787995   227A      2.798657  
     228A      2.807019   229A      2.814229   230A      2.825384  
     231A      2.881820   232A      2.893375   233A      2.903748  
     234A      2.912735   235A      2.916758   236A      2.922396  
     237A      2.924855   238A      2.932874   239A      2.939804  
     240A      2.944231   241A      3.013861   242A      3.019207  
     243A      3.069741   244A      3.070011   245A      3.081469  
     246A      3.082571   247A      3.115672   248A      3.123431  
     249A      3.134876   250A      3.139055   251A      3.139370  
     252A      3.143619   253A      3.148787   254A      3.186916  
     255A      3.226777   256A      3.233356   257A      3.243819  
     258A      3.247369   259A      3.272715   260A      3.276430  
     261A      3.294166   262A      3.295475   263A      3.313105  
     264A      3.316402   265A      3.356754   266A      3.362461  
     267A      3.363506   268A      3.368214   269A      3.380141  
     270A      3.382524   271A      3.404556   272A      3.414323  
     273A      3.414914   274A      3.415478   275A      3.425140  
     276A      3.445848   277A      3.464304   278A      3.466692  
     279A      3.470327   280A      3.476006   281A      3.478551  
     282A      3.484508   283A      3.500764   284A      3.501198  
     285A      3.523965   286A      3.528967   287A      3.533171  
     288A      3.533406   289A      3.543900   290A      3.569512  
     291A      3.586210   292A      3.588204   293A      3.598304  
     294A      3.601820   295A      3.625447   296A      3.625531  
     297A      3.696661   298A      3.699555   299A      3.712391  
     300A      3.713516   301A      3.742973   302A      3.746981  
     303A      3.768701   304A      3.772914   305A      3.786605  
     306A      3.792841   307A      3.798701   308A      3.813544  
     309A      3.819031   310A      3.819073   311A      3.862602  
     312A      3.863758   313A      3.922965   314A      3.923071  
     315A      3.929887   316A      3.936203   317A      3.937969  
     318A      3.943581   319A      3.945508   320A      3.946595  
     321A      3.963834   322A      3.963994   323A      4.068439  
     324A      4.068913   325A      4.100986   326A      4.105855  
     327A      4.174314   328A      4.175585   329A      4.181522  
     330A      4.181640   331A      4.191022   332A      4.201160  
     333A      4.206574   334A      4.212827   335A      4.219705  
     336A      4.221290   337A      4.289200   338A      4.293817  
     339A      4.302102   340A      4.307820   341A      4.320977  
     342A      4.325712   343A      4.329879   344A      4.336581  
     345A      4.348377   346A      4.352943   347A      4.354535  
     348A      4.361045   349A      4.393068   350A      4.393436  
     351A      4.398177   352A      4.403602   353A      4.433997  
     354A      4.436839   355A      4.448198   356A      4.466092  
     357A      4.498804   358A      4.501245   359A      4.502243  
     360A      4.507871   361A      4.508491   362A      4.513487  
     363A      4.535940   364A      4.544001   365A      4.546284  
     366A      4.549602   367A      4.592484   368A      4.595209  
     369A      4.620244   370A      4.623582   371A      4.677121  
     372A      4.677927   373A      4.685439   374A      4.689103  
     375A      4.694660   376A      4.710717   377A      4.770150  
     378A      4.777206   379A      4.778664   380A      4.780895  
     381A      4.796872   382A      4.799111   383A      4.849883  
     384A      4.855898   385A      4.976034   386A      4.976323  
     387A      4.980442   388A      4.981224   389A      5.014221  
     390A      5.018397   391A      5.125572   392A      5.126300  
     393A      5.156284   394A      5.157106   395A      5.193764  
     396A      5.198550   397A      5.244814   398A      5.249318  
     399A      5.271860   400A      5.272262   401A      5.272299  
     402A      5.272468   403A      5.284937   404A      5.290003  
     405A      5.294844   406A      5.320553   407A      5.386918  
     408A      5.391960   409A      5.396081   410A      5.399797  
     411A      5.459521   412A      5.459654   413A      5.509311  
     414A      5.510396   415A      5.577561   416A      5.577905  
     417A      5.597647   418A      5.599866   419A      5.716633  
     420A      5.717045   421A      5.740986   422A      5.742127  
     423A      5.745008   424A      5.746542   425A      5.769073  
     426A      5.771844   427A      5.774427   428A      5.778310  
     429A      5.789822   430A      5.791565   431A      5.808178  
     432A      5.810148   433A      5.912676   434A      5.913883  
     435A      5.918392   436A      5.919630   437A      5.937028  
     438A      5.937944   439A      5.964312   440A      5.974156  
     441A      6.077306   442A      6.078120   443A      6.456958  
     444A      6.462957   445A      6.478132   446A      6.486777  
     447A      6.500273   448A      6.503019   449A      6.542297  
     450A      6.543360   451A      6.557531   452A      6.559780  
     453A     13.730815   454A     13.752657   455A     14.269111  
     456A     14.335718   457A     14.559129   458A     14.583957  

    Final Occupation by Irrep:
              A 
    DOCC [    26 ]

  @DF-RHF Final Energy:  -236.61613260145882

   => Energetics <=

    Nuclear Repulsion Energy =            227.7306743482617435
    One-Electron Energy =                -768.1536843616831902
    Two-Electron Energy =                 303.8068774119625459
    Total Energy =                       -236.6161326014588440

Computation Completed


Properties will be evaluated at   0.000000,   0.000000,   0.000000 [a0]

Properties computed using the SCF density matrix

  Nuclear Dipole Moment: [e a0]
     X:    -0.0001      Y:     0.0782      Z:    -0.0000

  Electronic Dipole Moment: [e a0]
     X:     0.0001      Y:    -0.0829      Z:     0.0000

  Dipole Moment: [e a0]
     X:     0.0000      Y:    -0.0046      Z:     0.0000     Total:     0.0046

  Dipole Moment: [D]
     X:     0.0000      Y:    -0.0118      Z:     0.0000     Total:     0.0118


*** tstop() called on r282 at Wed Sep 15 07:21:54 2021
Module time:
	user time   =      35.60 seconds =       0.59 minutes
	system time =       0.89 seconds =       0.01 minutes
	total time  =         37 seconds =       0.62 minutes
Total time:
	user time   =      35.60 seconds =       0.59 minutes
	system time =       0.89 seconds =       0.01 minutes
	total time  =         37 seconds =       0.62 minutes

  //>>>>>>>>>>>>>>>>>>>>>>>>>>>>>>>>>>>//
  //            Monomer A HF           //
  //<<<<<<<<<<<<<<<<<<<<<<<<<<<<<<<<<<<//


*** tstart() called on r282
*** at Wed Sep 15 07:21:54 2021

   => Loading Basis Set <=

    Name: JUN-CC-PVTZ
    Role: ORBITAL
    Keyword: BASIS
    atoms 1-3, 12-14  entry C          line   217 file /home/r08543048/miniconda3/share/psi4/basis/jun-cc-pvtz.gbs 
    atoms 4-11, 15-22 entry H          line    36 file /home/r08543048/miniconda3/share/psi4/basis/jun-cc-pvtz.gbs 


         ---------------------------------------------------------
                                   SCF
               by Justin Turney, Rob Parrish, Andy Simmonett
                          and Daniel G. A. Smith
                              RHF Reference
                        1 Threads,  20980 MiB Core
         ---------------------------------------------------------

  ==> Geometry <==

    Molecular point group: c1
    Full point group: C1

    Geometry (in Angstrom), charge = 0, multiplicity = 1:

       Center              X                  Y                   Z               Mass       
    ------------   -----------------  -----------------  -----------------  -----------------
         C           -2.918714194928    -1.232815548463     0.035744958726    12.000000000000
         C           -2.607736194928    -0.049857548463    -0.872818041274    12.000000000000
         C           -2.708691194928     1.279377451537    -0.135138041274    12.000000000000
         H           -2.229040194928    -1.264134548463     0.880710958726     1.007825032230
         H           -3.929901194928    -1.155261548463     0.437882958726     1.007825032230
         H           -2.840024194928    -2.180889548463    -0.495822041274     1.007825032230
         H           -3.295007194928    -0.050245548463    -1.721417041274     1.007825032230
         H           -1.604215194928    -0.162669548463    -1.288200041274     1.007825032230
         H           -2.482310194928     2.121703451537    -0.788614041274     1.007825032230
         H           -3.713938194928     1.423303451537     0.263730958726     1.007825032230
         H           -2.011879194928     1.310497451537     0.703943958726     1.007825032230
      Gh(C)           2.918412605072    -1.232994928463    -0.035749501274    12.000000000000
      Gh(C)           2.607876605072    -0.049953928463     0.872857498726    12.000000000000
      Gh(C)           2.708863605072     1.279236071537     0.135104498726    12.000000000000
      Gh(H)           2.228498605072    -1.264264928463    -0.880527501274     1.007825032230
      Gh(H)           3.929498605072    -1.155603928463    -0.438171501274     1.007825032230
      Gh(H)           2.839716605072    -2.181031928463     0.495881498726     1.007825032230
      Gh(H)           3.295364605072    -0.050422928463     1.721280498726     1.007825032230
      Gh(H)           1.604439605072    -0.162577928463     1.288502498726     1.007825032230
      Gh(H)           2.482848605072     2.121620071537     0.788632498726     1.007825032230
      Gh(H)           3.714015605072     1.422965071537    -0.264075501274     1.007825032230
      Gh(H)           2.011799605072     1.310461071537    -0.703754501274     1.007825032230

  Running in c1 symmetry.

  Rotational constants: A =      0.12660  B =      0.02376  C =      0.02128 [cm^-1]
  Rotational constants: A =   3795.31648  B =    712.29232  C =    637.82808 [MHz]
  Nuclear repulsion =   82.817219279052694

  Charge       = 0
  Multiplicity = 1
  Electrons    = 26
  Nalpha       = 13
  Nbeta        = 13

  ==> Algorithm <==

  SCF Algorithm Type is DF.
  DIIS enabled.
  MOM disabled.
  Fractional occupation disabled.
  Guess Type is SAD.
  Energy threshold   = 1.00e-08
  Density threshold  = 1.00e-08
  Integral threshold = 0.00e+00

  ==> Primary Basis <==

  Basis Set: JUN-CC-PVTZ
    Blend: JUN-CC-PVTZ
    Number of shells: 174
    Number of basis function: 458
    Number of Cartesian functions: 510
    Spherical Harmonics?: true
    Max angular momentum: 3

   => Loading Basis Set <=

    Name: (JUN-CC-PVTZ AUX)
    Role: JKFIT
    Keyword: DF_BASIS_SCF
    atoms 1-3, 12-14  entry C          line   152 file /home/r08543048/miniconda3/share/psi4/basis/jun-cc-pvtz-jkfit.gbs 
    atoms 4-11, 15-22 entry H          line    70 file /home/r08543048/miniconda3/share/psi4/basis/jun-cc-pvtz-jkfit.gbs 

  ==> Pre-Iterations <==

   -------------------------------------------------------
    Irrep   Nso     Nmo     Nalpha   Nbeta   Ndocc  Nsocc
   -------------------------------------------------------
     A        458     458       0       0       0       0
   -------------------------------------------------------
    Total     458     458      13      13      13       0
   -------------------------------------------------------

  ==> Integral Setup <==

  ==> DiskDFJK: Density-Fitted J/K Matrices <==

    J tasked:                  Yes
    K tasked:                  Yes
    wK tasked:                  No
    OpenMP threads:              1
    Integrals threads:           1
    Memory [MiB]:            15735
    Algorithm:                Core
    Integral Cache:           LOAD
    Schwarz Cutoff:          1E-12
    Fitting Condition:       1E-10

   => Auxiliary Basis Set <=

  Basis Set: (JUN-CC-PVTZ AUX)
    Blend: JUN-CC-PVTZ-JKFIT
    Number of shells: 334
    Number of basis function: 1050
    Number of Cartesian functions: 1256
    Spherical Harmonics?: true
    Max angular momentum: 4

  Minimum eigenvalue in the overlap matrix is 1.0003151017E-04.
  Using Symmetric Orthogonalization.

  SCF Guess: Superposition of Atomic Densities via on-the-fly atomic UHF.

  ==> Iterations <==

                           Total Energy        Delta E     RMS |[F,P]|

   @DF-RHF iter SAD:  -117.72589315335219   -1.17726e+02   0.00000e+00 
   @DF-RHF iter   1:  -118.14637489947873   -4.20482e-01   1.12527e-03 DIIS
   @DF-RHF iter   2:  -118.27575594585669   -1.29381e-01   5.32285e-04 DIIS
   @DF-RHF iter   3:  -118.30616365096357   -3.04077e-02   8.94444e-05 DIIS
   @DF-RHF iter   4:  -118.30801513180991   -1.85148e-03   1.76465e-05 DIIS
   @DF-RHF iter   5:  -118.30807344042798   -5.83086e-05   4.95845e-06 DIIS
   @DF-RHF iter   6:  -118.30807805637633   -4.61595e-06   8.90063e-07 DIIS
   @DF-RHF iter   7:  -118.30807822757436   -1.71198e-07   1.67848e-07 DIIS
   @DF-RHF iter   8:  -118.30807823506639   -7.49203e-09   2.94275e-08 DIIS
   @DF-RHF iter   9:  -118.30807823530317   -2.36781e-10   5.81189e-09 DIIS
  Energy and wave function converged.


  ==> Post-Iterations <==

    Orbital Energies [Eh]
    ---------------------

    Doubly Occupied:                                                      

       1A    -11.215579     2A    -11.207859     3A    -11.207814  
       4A     -1.054043     5A     -0.924838     6A     -0.799825  
       7A     -0.624736     8A     -0.598265     9A     -0.549394  
      10A     -0.530202    11A     -0.475536    12A     -0.474962  
      13A     -0.467988  

    Virtual:                                                              

      14A      0.032536    15A      0.046145    16A      0.051738  
      17A      0.058438    18A      0.064129    19A      0.068667  
      20A      0.074437    21A      0.086943    22A      0.092112  
      23A      0.101528    24A      0.102207    25A      0.102611  
      26A      0.109315    27A      0.110686    28A      0.114165  
      29A      0.133395    30A      0.136993    31A      0.141970  
      32A      0.147525    33A      0.150969    34A      0.154255  
      35A      0.170980    36A      0.190012    37A      0.197277  
      38A      0.219805    39A      0.233371    40A      0.252229  
      41A      0.258844    42A      0.266647    43A      0.277607  
      44A      0.280276    45A      0.282524    46A      0.287947  
      47A      0.292196    48A      0.299545    49A      0.304390  
      50A      0.316899    51A      0.323406    52A      0.325717  
      53A      0.330689    54A      0.333901    55A      0.340763  
      56A      0.344123    57A      0.351941    58A      0.352816  
      59A      0.359718    60A      0.361325    61A      0.363621  
      62A      0.371012    63A      0.379671    64A      0.385197  
      65A      0.389507    66A      0.397816    67A      0.417309  
      68A      0.417849    69A      0.424156    70A      0.427749  
      71A      0.434345    72A      0.444507    73A      0.447658  
      74A      0.469108    75A      0.480745    76A      0.489776  
      77A      0.498617    78A      0.505110    79A      0.512268  
      80A      0.515906    81A      0.523763    82A      0.536696  
      83A      0.539520    84A      0.553887    85A      0.558582  
      86A      0.567661    87A      0.576538    88A      0.583256  
      89A      0.606053    90A      0.608205    91A      0.621881  
      92A      0.631140    93A      0.637707    94A      0.651356  
      95A      0.668174    96A      0.676133    97A      0.683030  
      98A      0.691858    99A      0.709580   100A      0.727947  
     101A      0.745123   102A      0.765389   103A      0.772823  
     104A      0.775069   105A      0.789801   106A      0.798915  
     107A      0.803833   108A      0.805489   109A      0.816688  
     110A      0.853848   111A      0.874595   112A      0.875811  
     113A      0.887301   114A      0.890199   115A      0.906146  
     116A      0.964479   117A      0.974542   118A      0.979770  
     119A      0.985446   120A      1.005797   121A      1.027641  
     122A      1.049411   123A      1.082867   124A      1.088176  
     125A      1.089915   126A      1.093437   127A      1.114580  
     128A      1.126945   129A      1.134964   130A      1.152777  
     131A      1.154181   132A      1.166853   133A      1.176968  
     134A      1.193179   135A      1.196385   136A      1.205349  
     137A      1.211762   138A      1.218553   139A      1.226968  
     140A      1.260995   141A      1.268558   142A      1.280465  
     143A      1.282616   144A      1.289978   145A      1.301763  
     146A      1.323592   147A      1.330099   148A      1.336204  
     149A      1.344569   150A      1.354298   151A      1.364350  
     152A      1.365964   153A      1.370801   154A      1.375394  
     155A      1.384999   156A      1.397464   157A      1.400240  
     158A      1.407204   159A      1.425059   160A      1.436858  
     161A      1.441323   162A      1.459245   163A      1.471816  
     164A      1.488660   165A      1.516318   166A      1.524076  
     167A      1.528843   168A      1.534431   169A      1.537079  
     170A      1.552387   171A      1.561027   172A      1.570874  
     173A      1.579736   174A      1.588395   175A      1.591371  
     176A      1.605288   177A      1.613014   178A      1.615750  
     179A      1.646132   180A      1.656386   181A      1.683390  
     182A      1.688190   183A      1.693936   184A      1.699099  
     185A      1.704817   186A      1.734767   187A      1.797298  
     188A      1.816982   189A      1.822107   190A      1.823337  
     191A      1.840131   192A      1.857668   193A      1.867581  
     194A      1.896200   195A      1.908120   196A      1.920951  
     197A      1.941352   198A      1.954679   199A      1.987620  
     200A      2.023402   201A      2.061352   202A      2.064125  
     203A      2.104639   204A      2.135457   205A      2.150315  
     206A      2.187080   207A      2.327387   208A      2.349713  
     209A      2.367552   210A      2.400113   211A      2.447690  
     212A      2.476590   213A      2.536059   214A      2.583584  
     215A      2.588706   216A      2.724448   217A      2.734391  
     218A      2.744032   219A      2.776931   220A      2.806491  
     221A      2.816920   222A      2.887988   223A      2.911006  
     224A      2.921300   225A      2.931605   226A      2.937941  
     227A      3.016530   228A      3.070094   229A      3.083533  
     230A      3.120102   231A      3.139348   232A      3.144435  
     233A      3.159555   234A      3.235716   235A      3.238998  
     236A      3.274283   237A      3.295337   238A      3.314959  
     239A      3.362607   240A      3.363280   241A      3.381607  
     242A      3.415201   243A      3.418699   244A      3.420283  
     245A      3.428180   246A      3.467417   247A      3.473430  
     248A      3.480462   249A      3.500743   250A      3.503681  
     251A      3.522250   252A      3.526358   253A      3.530645  
     254A      3.539031   255A      3.550815   256A      3.555355  
     257A      3.564598   258A      3.569357   259A      3.586981  
     260A      3.595399   261A      3.598246   262A      3.608205  
     263A      3.625919   264A      3.643691   265A      3.697074  
     266A      3.702230   267A      3.712873   268A      3.724388  
     269A      3.731647   270A      3.745042   271A      3.771960  
     272A      3.774582   273A      3.789074   274A      3.800941  
     275A      3.804071   276A      3.805793   277A      3.817392  
     278A      3.826518   279A      3.863151   280A      3.881897  
     281A      3.887091   282A      3.904719   283A      3.923947  
     284A      3.930081   285A      3.932566   286A      3.938471  
     287A      3.942393   288A      3.954221   289A      3.963862  
     290A      4.000186   291A      4.039630   292A      4.067048  
     293A      4.071716   294A      4.104403   295A      4.117944  
     296A      4.154470   297A      4.159339   298A      4.178948  
     299A      4.182363   300A      4.194203   301A      4.196340  
     302A      4.203693   303A      4.209376   304A      4.220054  
     305A      4.291187   306A      4.301952   307A      4.308526  
     308A      4.314959   309A      4.324731   310A      4.327889  
     311A      4.341132   312A      4.353214   313A      4.356104  
     314A      4.363712   315A      4.392505   316A      4.400846  
     317A      4.411552   318A      4.427579   319A      4.431371  
     320A      4.443189   321A      4.454408   322A      4.484777  
     323A      4.493530   324A      4.498720   325A      4.503415  
     326A      4.507957   327A      4.511051   328A      4.517494  
     329A      4.533373   330A      4.542335   331A      4.545656  
     332A      4.582335   333A      4.585482   334A      4.602402  
     335A      4.604603   336A      4.623294   337A      4.637011  
     338A      4.665095   339A      4.675459   340A      4.680644  
     341A      4.689424   342A      4.700035   343A      4.702614  
     344A      4.718537   345A      4.744200   346A      4.771345  
     347A      4.777233   348A      4.784722   349A      4.795415  
     350A      4.796833   351A      4.802423   352A      4.805359  
     353A      4.809846   354A      4.822101   355A      4.840693  
     356A      4.842049   357A      4.854711   358A      4.880332  
     359A      4.891573   360A      4.894097   361A      4.915482  
     362A      4.919640   363A      4.952298   364A      4.956181  
     365A      4.972366   366A      4.977155   367A      4.980353  
     368A      5.000727   369A      5.016677   370A      5.018578  
     371A      5.036397   372A      5.114522   373A      5.119195  
     374A      5.121144   375A      5.128105   376A      5.146709  
     377A      5.157147   378A      5.195643   379A      5.202366  
     380A      5.246964   381A      5.256185   382A      5.272811  
     383A      5.272963   384A      5.287443   385A      5.308725  
     386A      5.355756   387A      5.384815   388A      5.393644  
     389A      5.394532   390A      5.454093   391A      5.459956  
     392A      5.510165   393A      5.569894   394A      5.578006  
     395A      5.598211   396A      5.603718   397A      5.606284  
     398A      5.619444   399A      5.621574   400A      5.717297  
     401A      5.742611   402A      5.745703   403A      5.770854  
     404A      5.776604   405A      5.791051   406A      5.809401  
     407A      5.824525   408A      5.890517   409A      5.913479  
     410A      5.920186   411A      5.936439   412A      5.945424  
     413A      5.969213   414A      6.009182   415A      6.021487  
     416A      6.078086   417A      6.167318   418A      6.180180  
     419A      6.250395   420A      6.322986   421A      6.330449  
     422A      6.364081   423A      6.410368   424A      6.416219  
     425A      6.450652   426A      6.462171   427A      6.481509  
     428A      6.500631   429A      6.502802   430A      6.544357  
     431A      6.557921   432A      6.602330   433A      6.754139  
     434A      6.896157   435A      6.969540   436A      7.296762  
     437A      7.468003   438A      7.544075   439A      7.585943  
     440A      7.593642   441A      7.668918   442A      7.684764  
     443A      7.790741   444A      7.820947   445A      7.850596  
     446A      7.900578   447A      8.021396   448A      8.163639  
     449A      8.457207   450A      9.530694   451A      9.818421  
     452A      9.876558   453A     13.742700   454A     14.303852  
     455A     14.570450   456A     44.104496   457A     45.099594  
     458A     45.612988  

    Final Occupation by Irrep:
              A 
    DOCC [    13 ]

  @DF-RHF Final Energy:  -118.30807823530317

   => Energetics <=

    Nuclear Repulsion Energy =             82.8172192790526935
    One-Electron Energy =                -321.9885097090158865
    Two-Electron Energy =                 120.8632121946600222
    Total Energy =                       -118.3080782353031708

Computation Completed


Properties will be evaluated at   0.000000,   0.000000,   0.000000 [a0]

Properties computed using the SCF density matrix

  Nuclear Dipole Moment: [e a0]
     X:  -135.1479      Y:     0.0426      Z:   -14.8174

  Electronic Dipole Moment: [e a0]
     X:   135.1560      Y:    -0.0454      Z:    14.7858

  Dipole Moment: [e a0]
     X:     0.0081      Y:    -0.0028      Z:    -0.0317     Total:     0.0328

  Dipole Moment: [D]
     X:     0.0207      Y:    -0.0071      Z:    -0.0805     Total:     0.0834


*** tstop() called on r282 at Wed Sep 15 07:22:12 2021
Module time:
	user time   =      17.70 seconds =       0.30 minutes
	system time =       0.45 seconds =       0.01 minutes
	total time  =         18 seconds =       0.30 minutes
Total time:
	user time   =      53.30 seconds =       0.89 minutes
	system time =       1.34 seconds =       0.02 minutes
	total time  =         55 seconds =       0.92 minutes

  //>>>>>>>>>>>>>>>>>>>>>>>>>>>>>>>>>>>//
  //            Monomer B HF           //
  //<<<<<<<<<<<<<<<<<<<<<<<<<<<<<<<<<<<//


*** tstart() called on r282
*** at Wed Sep 15 07:22:12 2021

   => Loading Basis Set <=

    Name: JUN-CC-PVTZ
    Role: ORBITAL
    Keyword: BASIS
    atoms 1-3, 12-14  entry C          line   217 file /home/r08543048/miniconda3/share/psi4/basis/jun-cc-pvtz.gbs 
    atoms 4-11, 15-22 entry H          line    36 file /home/r08543048/miniconda3/share/psi4/basis/jun-cc-pvtz.gbs 


         ---------------------------------------------------------
                                   SCF
               by Justin Turney, Rob Parrish, Andy Simmonett
                          and Daniel G. A. Smith
                              RHF Reference
                        1 Threads,  20980 MiB Core
         ---------------------------------------------------------

  ==> Geometry <==

    Molecular point group: c1
    Full point group: C1

    Geometry (in Angstrom), charge = 0, multiplicity = 1:

       Center              X                  Y                   Z               Mass       
    ------------   -----------------  -----------------  -----------------  -----------------
      Gh(C)          -2.918714194928    -1.232815548463     0.035744958726    12.000000000000
      Gh(C)          -2.607736194928    -0.049857548463    -0.872818041274    12.000000000000
      Gh(C)          -2.708691194928     1.279377451537    -0.135138041274    12.000000000000
      Gh(H)          -2.229040194928    -1.264134548463     0.880710958726     1.007825032230
      Gh(H)          -3.929901194928    -1.155261548463     0.437882958726     1.007825032230
      Gh(H)          -2.840024194928    -2.180889548463    -0.495822041274     1.007825032230
      Gh(H)          -3.295007194928    -0.050245548463    -1.721417041274     1.007825032230
      Gh(H)          -1.604215194928    -0.162669548463    -1.288200041274     1.007825032230
      Gh(H)          -2.482310194928     2.121703451537    -0.788614041274     1.007825032230
      Gh(H)          -3.713938194928     1.423303451537     0.263730958726     1.007825032230
      Gh(H)          -2.011879194928     1.310497451537     0.703943958726     1.007825032230
         C            2.918412605072    -1.232994928463    -0.035749501274    12.000000000000
         C            2.607876605072    -0.049953928463     0.872857498726    12.000000000000
         C            2.708863605072     1.279236071537     0.135104498726    12.000000000000
         H            2.228498605072    -1.264264928463    -0.880527501274     1.007825032230
         H            3.929498605072    -1.155603928463    -0.438171501274     1.007825032230
         H            2.839716605072    -2.181031928463     0.495881498726     1.007825032230
         H            3.295364605072    -0.050422928463     1.721280498726     1.007825032230
         H            1.604439605072    -0.162577928463     1.288502498726     1.007825032230
         H            2.482848605072     2.121620071537     0.788632498726     1.007825032230
         H            3.714015605072     1.422965071537    -0.264075501274     1.007825032230
         H            2.011799605072     1.310461071537    -0.703754501274     1.007825032230

  Running in c1 symmetry.

  Rotational constants: A =      0.12660  B =      0.02376  C =      0.02128 [cm^-1]
  Rotational constants: A =   3795.31648  B =    712.29232  C =    637.82808 [MHz]
  Nuclear repulsion =   82.817242756398954

  Charge       = 0
  Multiplicity = 1
  Electrons    = 26
  Nalpha       = 13
  Nbeta        = 13

  ==> Algorithm <==

  SCF Algorithm Type is DF.
  DIIS enabled.
  MOM disabled.
  Fractional occupation disabled.
  Guess Type is SAD.
  Energy threshold   = 1.00e-08
  Density threshold  = 1.00e-08
  Integral threshold = 0.00e+00

  ==> Primary Basis <==

  Basis Set: JUN-CC-PVTZ
    Blend: JUN-CC-PVTZ
    Number of shells: 174
    Number of basis function: 458
    Number of Cartesian functions: 510
    Spherical Harmonics?: true
    Max angular momentum: 3

   => Loading Basis Set <=

    Name: (JUN-CC-PVTZ AUX)
    Role: JKFIT
    Keyword: DF_BASIS_SCF
    atoms 1-3, 12-14  entry C          line   152 file /home/r08543048/miniconda3/share/psi4/basis/jun-cc-pvtz-jkfit.gbs 
    atoms 4-11, 15-22 entry H          line    70 file /home/r08543048/miniconda3/share/psi4/basis/jun-cc-pvtz-jkfit.gbs 

  ==> Pre-Iterations <==

   -------------------------------------------------------
    Irrep   Nso     Nmo     Nalpha   Nbeta   Ndocc  Nsocc
   -------------------------------------------------------
     A        458     458       0       0       0       0
   -------------------------------------------------------
    Total     458     458      13      13      13       0
   -------------------------------------------------------

  ==> Integral Setup <==

  ==> DiskDFJK: Density-Fitted J/K Matrices <==

    J tasked:                  Yes
    K tasked:                  Yes
    wK tasked:                  No
    OpenMP threads:              1
    Integrals threads:           1
    Memory [MiB]:            15735
    Algorithm:                Core
    Integral Cache:           LOAD
    Schwarz Cutoff:          1E-12
    Fitting Condition:       1E-10

   => Auxiliary Basis Set <=

  Basis Set: (JUN-CC-PVTZ AUX)
    Blend: JUN-CC-PVTZ-JKFIT
    Number of shells: 334
    Number of basis function: 1050
    Number of Cartesian functions: 1256
    Spherical Harmonics?: true
    Max angular momentum: 4

  Minimum eigenvalue in the overlap matrix is 1.0003151017E-04.
  Using Symmetric Orthogonalization.

  SCF Guess: Superposition of Atomic Densities via on-the-fly atomic UHF.

  ==> Iterations <==

                           Total Energy        Delta E     RMS |[F,P]|

   @DF-RHF iter SAD:  -117.72589506323635   -1.17726e+02   0.00000e+00 
   @DF-RHF iter   1:  -118.14637457323775   -4.20480e-01   1.12527e-03 DIIS
   @DF-RHF iter   2:  -118.27575582505111   -1.29381e-01   5.32286e-04 DIIS
   @DF-RHF iter   3:  -118.30616366462567   -3.04078e-02   8.94445e-05 DIIS
   @DF-RHF iter   4:  -118.30801514755306   -1.85148e-03   1.76465e-05 DIIS
   @DF-RHF iter   5:  -118.30807345623386   -5.83087e-05   4.95844e-06 DIIS
   @DF-RHF iter   6:  -118.30807807217074   -4.61594e-06   8.90065e-07 DIIS
   @DF-RHF iter   7:  -118.30807824337053   -1.71200e-07   1.67848e-07 DIIS
   @DF-RHF iter   8:  -118.30807825086625   -7.49571e-09   2.94274e-08 DIIS
   @DF-RHF iter   9:  -118.30807825110006   -2.33811e-10   5.81186e-09 DIIS
  Energy and wave function converged.


  ==> Post-Iterations <==

    Orbital Energies [Eh]
    ---------------------

    Doubly Occupied:                                                      

       1A    -11.215579     2A    -11.207858     3A    -11.207815  
       4A     -1.054043     5A     -0.924838     6A     -0.799825  
       7A     -0.624736     8A     -0.598265     9A     -0.549395  
      10A     -0.530203    11A     -0.475537    12A     -0.474961  
      13A     -0.467988  

    Virtual:                                                              

      14A      0.032537    15A      0.046145    16A      0.051738  
      17A      0.058438    18A      0.064129    19A      0.068667  
      20A      0.074436    21A      0.086942    22A      0.092112  
      23A      0.101527    24A      0.102205    25A      0.102614  
      26A      0.109316    27A      0.110686    28A      0.114166  
      29A      0.133395    30A      0.136992    31A      0.141966  
      32A      0.147529    33A      0.150971    34A      0.154257  
      35A      0.170982    36A      0.190012    37A      0.197277  
      38A      0.219796    39A      0.233376    40A      0.252229  
      41A      0.258846    42A      0.266648    43A      0.277608  
      44A      0.280274    45A      0.282530    46A      0.287946  
      47A      0.292194    48A      0.299547    49A      0.304396  
      50A      0.316888    51A      0.323407    52A      0.325716  
      53A      0.330683    54A      0.333899    55A      0.340762  
      56A      0.344126    57A      0.351943    58A      0.352812  
      59A      0.359714    60A      0.361321    61A      0.363614  
      62A      0.371014    63A      0.379678    64A      0.385196  
      65A      0.389508    66A      0.397817    67A      0.417302  
      68A      0.417852    69A      0.424151    70A      0.427750  
      71A      0.434349    72A      0.444505    73A      0.447668  
      74A      0.469108    75A      0.480745    76A      0.489792  
      77A      0.498608    78A      0.505117    79A      0.512263  
      80A      0.515910    81A      0.523763    82A      0.536696  
      83A      0.539515    84A      0.553888    85A      0.558583  
      86A      0.567667    87A      0.576544    88A      0.583256  
      89A      0.606054    90A      0.608203    91A      0.621881  
      92A      0.631143    93A      0.637707    94A      0.651354  
      95A      0.668160    96A      0.676133    97A      0.683028  
      98A      0.691855    99A      0.709577   100A      0.727948  
     101A      0.745129   102A      0.765393   103A      0.772820  
     104A      0.775068   105A      0.789806   106A      0.798918  
     107A      0.803822   108A      0.805477   109A      0.816690  
     110A      0.853853   111A      0.874597   112A      0.875811  
     113A      0.887303   114A      0.890192   115A      0.906150  
     116A      0.964478   117A      0.974545   118A      0.979775  
     119A      0.985440   120A      1.005798   121A      1.027650  
     122A      1.049413   123A      1.082861   124A      1.088171  
     125A      1.089922   126A      1.093445   127A      1.114577  
     128A      1.126940   129A      1.134969   130A      1.152776  
     131A      1.154177   132A      1.166845   133A      1.176968  
     134A      1.193184   135A      1.196381   136A      1.205342  
     137A      1.211772   138A      1.218553   139A      1.226956  
     140A      1.261001   141A      1.268558   142A      1.280474  
     143A      1.282618   144A      1.289983   145A      1.301758  
     146A      1.323590   147A      1.330102   148A      1.336210  
     149A      1.344564   150A      1.354296   151A      1.364354  
     152A      1.365956   153A      1.370797   154A      1.375393  
     155A      1.384996   156A      1.397469   157A      1.400248  
     158A      1.407206   159A      1.425059   160A      1.436855  
     161A      1.441326   162A      1.459244   163A      1.471816  
     164A      1.488661   165A      1.516319   166A      1.524075  
     167A      1.528843   168A      1.534430   169A      1.537073  
     170A      1.552385   171A      1.561027   172A      1.570874  
     173A      1.579741   174A      1.588393   175A      1.591372  
     176A      1.605291   177A      1.613025   178A      1.615743  
     179A      1.646133   180A      1.656387   181A      1.683390  
     182A      1.688188   183A      1.693942   184A      1.699094  
     185A      1.704818   186A      1.734762   187A      1.797301  
     188A      1.816978   189A      1.822106   190A      1.823341  
     191A      1.840129   192A      1.857667   193A      1.867580  
     194A      1.896194   195A      1.908122   196A      1.920942  
     197A      1.941350   198A      1.954672   199A      1.987619  
     200A      2.023402   201A      2.061343   202A      2.064124  
     203A      2.104644   204A      2.135461   205A      2.150321  
     206A      2.187081   207A      2.327389   208A      2.349714  
     209A      2.367553   210A      2.400110   211A      2.447691  
     212A      2.476590   213A      2.536066   214A      2.583584  
     215A      2.588705   216A      2.724452   217A      2.734390  
     218A      2.744031   219A      2.776936   220A      2.806486  
     221A      2.816917   222A      2.887990   223A      2.911004  
     224A      2.921301   225A      2.931610   226A      2.937944  
     227A      3.016532   228A      3.070092   229A      3.083532  
     230A      3.120104   231A      3.139350   232A      3.144437  
     233A      3.159559   234A      3.235715   235A      3.238995  
     236A      3.274281   237A      3.295334   238A      3.314956  
     239A      3.362607   240A      3.363284   241A      3.381606  
     242A      3.415204   243A      3.418695   244A      3.420281  
     245A      3.428184   246A      3.467420   247A      3.473428  
     248A      3.480461   249A      3.500743   250A      3.503675  
     251A      3.522252   252A      3.526360   253A      3.530644  
     254A      3.539031   255A      3.550808   256A      3.555359  
     257A      3.564600   258A      3.569355   259A      3.586982  
     260A      3.595399   261A      3.598248   262A      3.608205  
     263A      3.625923   264A      3.643692   265A      3.697073  
     266A      3.702231   267A      3.712877   268A      3.724385  
     269A      3.731644   270A      3.745044   271A      3.771960  
     272A      3.774583   273A      3.789071   274A      3.800945  
     275A      3.804077   276A      3.805803   277A      3.817392  
     278A      3.826509   279A      3.863150   280A      3.881899  
     281A      3.887090   282A      3.904720   283A      3.923948  
     284A      3.930076   285A      3.932561   286A      3.938464  
     287A      3.942395   288A      3.954218   289A      3.963860  
     290A      4.000185   291A      4.039630   292A      4.067047  
     293A      4.071722   294A      4.104398   295A      4.117943  
     296A      4.154465   297A      4.159344   298A      4.178945  
     299A      4.182362   300A      4.194205   301A      4.196332  
     302A      4.203692   303A      4.209386   304A      4.220055  
     305A      4.291186   306A      4.301952   307A      4.308524  
     308A      4.314956   309A      4.324732   310A      4.327891  
     311A      4.341131   312A      4.353211   313A      4.356102  
     314A      4.363710   315A      4.392506   316A      4.400847  
     317A      4.411550   318A      4.427577   319A      4.431369  
     320A      4.443187   321A      4.454396   322A      4.484776  
     323A      4.493531   324A      4.498719   325A      4.503409  
     326A      4.507962   327A      4.511044   328A      4.517494  
     329A      4.533379   330A      4.542334   331A      4.545657  
     332A      4.582336   333A      4.585488   334A      4.602402  
     335A      4.604607   336A      4.623289   337A      4.637014  
     338A      4.665095   339A      4.675457   340A      4.680647  
     341A      4.689424   342A      4.700039   343A      4.702616  
     344A      4.718538   345A      4.744199   346A      4.771343  
     347A      4.777235   348A      4.784719   349A      4.795414  
     350A      4.796833   351A      4.802431   352A      4.805358  
     353A      4.809845   354A      4.822098   355A      4.840695  
     356A      4.842052   357A      4.854709   358A      4.880336  
     359A      4.891577   360A      4.894100   361A      4.915469  
     362A      4.919637   363A      4.952298   364A      4.956183  
     365A      4.972372   366A      4.977150   367A      4.980355  
     368A      5.000728   369A      5.016673   370A      5.018579  
     371A      5.036401   372A      5.114516   373A      5.119199  
     374A      5.121148   375A      5.128108   376A      5.146712  
     377A      5.157153   378A      5.195646   379A      5.202372  
     380A      5.246966   381A      5.256178   382A      5.272799  
     383A      5.272960   384A      5.287446   385A      5.308725  
     386A      5.355761   387A      5.384813   388A      5.393643  
     389A      5.394535   390A      5.454094   391A      5.459955  
     392A      5.510171   393A      5.569896   394A      5.578013  
     395A      5.598215   396A      5.603723   397A      5.606271  
     398A      5.619444   399A      5.621569   400A      5.717301  
     401A      5.742616   402A      5.745695   403A      5.770857  
     404A      5.776604   405A      5.791052   406A      5.809402  
     407A      5.824539   408A      5.890519   409A      5.913471  
     410A      5.920184   411A      5.936443   412A      5.945429  
     413A      5.969210   414A      6.009180   415A      6.021484  
     416A      6.078085   417A      6.167311   418A      6.180180  
     419A      6.250377   420A      6.322989   421A      6.330446  
     422A      6.364077   423A      6.410370   424A      6.416221  
     425A      6.450657   426A      6.462174   427A      6.481510  
     428A      6.500633   429A      6.502803   430A      6.544357  
     431A      6.557918   432A      6.602322   433A      6.754142  
     434A      6.896155   435A      6.969550   436A      7.296755  
     437A      7.468005   438A      7.544082   439A      7.585946  
     440A      7.593636   441A      7.668918   442A      7.684761  
     443A      7.790747   444A      7.820941   445A      7.850593  
     446A      7.900572   447A      8.021398   448A      8.163641  
     449A      8.457205   450A      9.530704   451A      9.818423  
     452A      9.876545   453A     13.742662   454A     14.303857  
     455A     14.570486   456A     44.104577   457A     45.099571  
     458A     45.612924  

    Final Occupation by Irrep:
              A 
    DOCC [    13 ]

  @DF-RHF Final Energy:  -118.30807825110006

   => Energetics <=

    Nuclear Repulsion Energy =             82.8172427563989544
    One-Electron Energy =                -321.9885573765204185
    Two-Electron Energy =                 120.8632363690213936
    Total Energy =                       -118.3080782511000564

Computation Completed


Properties will be evaluated at   0.000000,   0.000000,   0.000000 [a0]

Properties computed using the SCF density matrix

  Nuclear Dipole Moment: [e a0]
     X:   135.1477      Y:     0.0357      Z:    14.8174

  Electronic Dipole Moment: [e a0]
     X:  -135.1559      Y:    -0.0385      Z:   -14.7857

  Dipole Moment: [e a0]
     X:    -0.0081      Y:    -0.0028      Z:     0.0317     Total:     0.0328

  Dipole Moment: [D]
     X:    -0.0207      Y:    -0.0071      Z:     0.0805     Total:     0.0834


*** tstop() called on r282 at Wed Sep 15 07:22:31 2021
Module time:
	user time   =      18.67 seconds =       0.31 minutes
	system time =       0.46 seconds =       0.01 minutes
	total time  =         19 seconds =       0.32 minutes
Total time:
	user time   =      71.97 seconds =       1.20 minutes
	system time =       1.80 seconds =       0.03 minutes
	total time  =         74 seconds =       1.23 minutes
  Constructing Basis Sets for SAPT...

   => Loading Basis Set <=

    Name: (JUN-CC-PVTZ AUX)
    Role: RIFIT
    Keyword: DF_BASIS_SAPT
    atoms 1-3, 12-14  entry C          line   132 file /home/r08543048/miniconda3/share/psi4/basis/jun-cc-pvtz-ri.gbs 
    atoms 4-11, 15-22 entry H          line    30 file /home/r08543048/miniconda3/share/psi4/basis/jun-cc-pvtz-ri.gbs 


  //>>>>>>>>>>>>>>>>>>>>>>>>>>>>>>>>>>>//
  //               SAPT0               //
  //<<<<<<<<<<<<<<<<<<<<<<<<<<<<<<<<<<<//


*** tstart() called on r282
*** at Wed Sep 15 07:22:31 2021

        SAPT0  
    Ed Hohenstein
     6 June 2009

      Orbital Information
  --------------------------
    NSO        =       458
    NMO        =       458
    NRI        =      1062
    NOCC A     =        13
    NOCC B     =        13
    FOCC A     =         0
    FOCC B     =         0
    NVIR A     =       445
    NVIR B     =       445

    Elst10,r            =     0.000009299688 [Eh]
    Exch10              =     0.000016563844 [Eh]
    Exch10 (S^2)        =     0.000016563734 [Eh]

    Iter     Energy [mEh]          dE [mEh]         Residual      Time [s]
       1      -0.00075032       0.000750318       0.109878248             1
       2      -0.00086074       0.000110418       0.038707748             1
       3      -0.00087649       0.000015753       0.008583876             2
       4      -0.00087284      -0.000003647       0.002936198             3
       5      -0.00087206      -0.000000784       0.000478480             3
       6      -0.00087227       0.000000209       0.000082478             4
       7      -0.00087225      -0.000000014       0.000019033             5
       8      -0.00087225      -0.000000001       0.000005034             5
       9      -0.00087225       0.000000000       0.000001201             6
      10      -0.00087225       0.000000000       0.000000235             7

    CHF Iterations converged


    Iter     Energy [mEh]          dE [mEh]         Residual      Time [s]
       1      -0.00075011       0.000750114       0.109852867             1
       2      -0.00086048       0.000110365       0.038695852             1
       3      -0.00087623       0.000015748       0.008581298             2
       4      -0.00087258      -0.000003645       0.002935510             3
       5      -0.00087180      -0.000000784       0.000478323             3
       6      -0.00087201       0.000000209       0.000082447             4
       7      -0.00087199      -0.000000014       0.000019015             5
       8      -0.00087199      -0.000000001       0.000005024             6
       9      -0.00087199       0.000000000       0.000001201             6
      10      -0.00087199       0.000000000       0.000000235             7

    CHF Iterations converged

    Ind20,r (A<-B)      =    -0.000000872252 [Eh]
    Ind20,r (B<-A)      =    -0.000000871992 [Eh]
    Ind20,r             =    -0.000001744244 [Eh]
    Exch-Ind20,r (A<-B) =     0.000000515710 [Eh]
    Exch-Ind20,r (B<-A) =     0.000000515572 [Eh]
    Exch-Ind20,r        =     0.000001031281 [Eh]
    Disp20              =    -0.000618736051 [Eh]
    Disp20 (SS)         =    -0.000309368026 [Eh]
    Disp20 (OS)         =    -0.000309368026 [Eh]
    Exch-Disp20         =     0.000002766716 [Eh]
    Exch-Disp20 (SS)    =     0.000002024690 [Eh]
    Exch-Disp20 (OS)    =     0.000000742026 [Eh]

    SAPT Results 
  --------------------------------------------------------------------------------------------------------
    Electrostatics                  0.00929969 [mEh]       0.00583564 [kcal/mol]       0.02441633 [kJ/mol]
      Elst10,r                      0.00929969 [mEh]       0.00583564 [kcal/mol]       0.02441633 [kJ/mol]

    Exchange                        0.01656384 [mEh]       0.01039397 [kcal/mol]       0.04348837 [kJ/mol]
      Exch10                        0.01656384 [mEh]       0.01039397 [kcal/mol]       0.04348837 [kJ/mol]
      Exch10(S^2)                   0.01656373 [mEh]       0.01039390 [kcal/mol]       0.04348808 [kJ/mol]

    Induction                      -0.00197859 [mEh]      -0.00124158 [kcal/mol]      -0.00519478 [kJ/mol]
      Ind20,r                      -0.00174424 [mEh]      -0.00109453 [kcal/mol]      -0.00457951 [kJ/mol]
      Exch-Ind20,r                  0.00103128 [mEh]       0.00064714 [kcal/mol]       0.00270763 [kJ/mol]
      delta HF,r (2)               -0.00126562 [mEh]      -0.00079419 [kcal/mol]      -0.00332290 [kJ/mol]

    Dispersion                     -0.61596934 [mEh]      -0.38652659 [kcal/mol]      -1.61722727 [kJ/mol]
      Disp20                       -0.61873605 [mEh]      -0.38826273 [kcal/mol]      -1.62449128 [kJ/mol]
      Exch-Disp20                   0.00276672 [mEh]       0.00173614 [kcal/mol]       0.00726401 [kJ/mol]
      Disp20 (SS)                  -0.30936803 [mEh]      -0.19413137 [kcal/mol]      -0.81224564 [kJ/mol]
      Disp20 (OS)                  -0.30936803 [mEh]      -0.19413137 [kcal/mol]      -0.81224564 [kJ/mol]
      Exch-Disp20 (SS)              0.00202469 [mEh]       0.00127051 [kcal/mol]       0.00531582 [kJ/mol]
      Exch-Disp20 (OS)              0.00074203 [mEh]       0.00046563 [kcal/mol]       0.00194819 [kJ/mol]

  Total HF                          0.02388494 [mEh]       0.01498803 [kcal/mol]       0.06270991 [kJ/mol]
  Total SAPT0                      -0.59208439 [mEh]      -0.37153856 [kcal/mol]      -1.55451735 [kJ/mol]

  Special recipe for scaled SAPT0 (see Manual):
    Electrostatics sSAPT0           0.00929969 [mEh]       0.00583564 [kcal/mol]       0.02441633 [kJ/mol]
    Exchange sSAPT0                 0.01656384 [mEh]       0.01039397 [kcal/mol]       0.04348837 [kJ/mol]
    Induction sSAPT0               -0.00197857 [mEh]      -0.00124157 [kcal/mol]      -0.00519473 [kJ/mol]
    Dispersion sSAPT0              -0.61596928 [mEh]      -0.38652656 [kcal/mol]      -1.61722712 [kJ/mol]
  Total sSAPT0                     -0.59208432 [mEh]      -0.37153852 [kcal/mol]      -1.55451716 [kJ/mol]
  --------------------------------------------------------------------------------------------------------

*** tstop() called on r282 at Wed Sep 15 07:23:47 2021
Module time:
	user time   =      63.41 seconds =       1.06 minutes
	system time =      10.04 seconds =       0.17 minutes
	total time  =         76 seconds =       1.27 minutes
Total time:
	user time   =     135.52 seconds =       2.26 minutes
	system time =      11.84 seconds =       0.20 minutes
	total time  =        150 seconds =       2.50 minutes

    Psi4 stopped on: Wednesday, 15 September 2021 07:23AM
    Psi4 wall time for execution: 0:02:29.24

*** Psi4 exiting successfully. Buy a developer a beer!
