
    -----------------------------------------------------------------------
          Psi4: An Open-Source Ab Initio Electronic Structure Package
                               Psi4 1.3.2 release

                         Git: Rev {HEAD} ecbda83 


    R. M. Parrish, L. A. Burns, D. G. A. Smith, A. C. Simmonett,
    A. E. DePrince III, E. G. Hohenstein, U. Bozkaya, A. Yu. Sokolov,
    R. Di Remigio, R. M. Richard, J. F. Gonthier, A. M. James,
    H. R. McAlexander, A. Kumar, M. Saitow, X. Wang, B. P. Pritchard,
    P. Verma, H. F. Schaefer III, K. Patkowski, R. A. King, E. F. Valeev,
    F. A. Evangelista, J. M. Turney, T. D. Crawford, and C. D. Sherrill,
    J. Chem. Theory Comput. 13(7) pp 3185--3197 (2017).
    (doi: 10.1021/acs.jctc.7b00174)


                         Additional Contributions by
    P. Kraus, H. Kruse, M. H. Lechner, M. C. Schieber, R. A. Shaw,
    A. Alenaizan, R. Galvelis, Z. L. Glick, S. Lehtola, and J. P. Misiewicz

    -----------------------------------------------------------------------


    Psi4 started on: Friday, 10 September 2021 02:40PM

    Process ID: 56758
    Host:       r282
    PSIDATADIR: /home/r08543048/miniconda3/share/psi4
    Memory:     500.0 MiB
    Threads:    1
    
  ==> Input File <==

--------------------------------------------------------------------------
# Any line starting with the # character is a comment line
#! Sample  computation

memory 22 gb

molecule Dimer {
0 1
 H   0.836434   -2.512755   -0.585550
 C   1.684872   -0.470360   -0.614737
 C   1.117218   -1.674431    0.077658
 O   0.952977   -1.763390    1.280061
 H   0.905680   -0.112735   -1.298805
 C   2.147817    0.631978    0.321254
 H   1.330725    0.895443    0.993162
 H   2.948974    0.249211    0.955441
 H   2.499939   -0.814957   -1.260811
 C   2.620491    1.859675   -0.446343
 H   3.447650    1.611437   -1.112638
 H   1.815045    2.269599   -1.057773
 H   2.959430    2.643904    0.229374
  
  

    
    
 --
0 1
 C   -2.150244   -1.526857   -0.631214
 C   -2.073046   -0.205343   -0.819151
 C   -1.629287    0.774224    0.220199
 C   -2.777517    1.686722    0.655788
 H   -2.510261   -2.184848   -1.410283
 H   -1.857847   -1.972704    0.311577
 H   -2.383278    0.207990   -1.775502
 H   -1.227973    0.235406    1.081007
 H   -0.820635    1.392362   -0.181120
 H   -3.189972    2.225184   -0.198025
 H   -3.580094    1.100476    1.101879
 H   -2.439447    2.420456    1.386857
   
   
   




units angstrom

no_reorient
symmetry c1
}

set globals{
  basis jun-cc-pvtz
}

energy('sapt0')


--------------------------------------------------------------------------

  Memory set to  20.489 GiB by Python driver.

  //>>>>>>>>>>>>>>>>>>>>>>>>>>>>>>>>>>>//
  //              Dimer HF             //
  //<<<<<<<<<<<<<<<<<<<<<<<<<<<<<<<<<<<//


*** tstart() called on r282
*** at Fri Sep 10 14:40:49 2021

   => Loading Basis Set <=

    Name: JUN-CC-PVTZ
    Role: ORBITAL
    Keyword: BASIS
    atoms 1, 5, 7-9, 11-13, 18-25 entry H          line    36 file /home/r08543048/miniconda3/share/psi4/basis/jun-cc-pvtz.gbs 
    atoms 2-3, 6, 10, 14-17       entry C          line   217 file /home/r08543048/miniconda3/share/psi4/basis/jun-cc-pvtz.gbs 
    atoms 4                       entry O          line   305 file /home/r08543048/miniconda3/share/psi4/basis/jun-cc-pvtz.gbs 


         ---------------------------------------------------------
                                   SCF
               by Justin Turney, Rob Parrish, Andy Simmonett
                          and Daniel G. A. Smith
                              RHF Reference
                        1 Threads,  20980 MiB Core
         ---------------------------------------------------------

  ==> Geometry <==

    Molecular point group: c1
    Full point group: C1

    Geometry (in Angstrom), charge = 0, multiplicity = 1:

       Center              X                  Y                   Z               Mass       
    ------------   -----------------  -----------------  -----------------  -----------------
         H            0.826670504607    -2.453555717815    -0.607346954684     1.007825032230
         C            1.675108504607    -0.411160717815    -0.636533954684    12.000000000000
         C            1.107454504607    -1.615231717815     0.055861045316    12.000000000000
         O            0.943213504607    -1.704190717815     1.258264045316    15.994914619570
         H            0.895916504607    -0.053535717815    -1.320601954684     1.007825032230
         C            2.138053504607     0.691177282185     0.299457045316    12.000000000000
         H            1.320961504607     0.954642282185     0.971365045316     1.007825032230
         H            2.939210504607     0.308410282185     0.933644045316     1.007825032230
         H            2.490175504607    -0.755757717815    -1.282607954684     1.007825032230
         C            2.610727504607     1.918874282185    -0.468139954684    12.000000000000
         H            3.437886504607     1.670636282185    -1.134434954684     1.007825032230
         H            1.805281504607     2.328798282185    -1.079569954684     1.007825032230
         H            2.949666504607     2.703103282185     0.207577045316     1.007825032230
         C           -2.160007495393    -1.467657717815    -0.653010954684    12.000000000000
         C           -2.082809495393    -0.146143717815    -0.840947954684    12.000000000000
         C           -1.639050495393     0.833423282185     0.198402045316    12.000000000000
         C           -2.787280495393     1.745921282185     0.633991045316    12.000000000000
         H           -2.520024495393    -2.125648717815    -1.432079954684     1.007825032230
         H           -1.867610495393    -1.913504717815     0.289780045316     1.007825032230
         H           -2.393041495393     0.267189282185    -1.797298954684     1.007825032230
         H           -1.237736495393     0.294605282185     1.059210045316     1.007825032230
         H           -0.830398495393     1.451561282185    -0.202916954684     1.007825032230
         H           -3.199735495393     2.284383282185    -0.219821954684     1.007825032230
         H           -3.589857495393     1.159675282185     1.080082045316     1.007825032230
         H           -2.449210495393     2.479655282185     1.365060045316     1.007825032230

  Running in c1 symmetry.

  Rotational constants: A =      0.05304  B =      0.02844  C =      0.02190 [cm^-1]
  Rotational constants: A =   1590.18245  B =    852.57533  C =    656.42417 [MHz]
  Nuclear repulsion =  444.948240703432077

  Charge       = 0
  Multiplicity = 1
  Electrons    = 72
  Nalpha       = 36
  Nbeta        = 36

  ==> Algorithm <==

  SCF Algorithm Type is DF.
  DIIS enabled.
  MOM disabled.
  Fractional occupation disabled.
  Guess Type is SAD.
  Energy threshold   = 1.00e-08
  Density threshold  = 1.00e-08
  Integral threshold = 0.00e+00

  ==> Primary Basis <==

  Basis Set: JUN-CC-PVTZ
    Blend: JUN-CC-PVTZ
    Number of shells: 213
    Number of basis function: 575
    Number of Cartesian functions: 645
    Spherical Harmonics?: true
    Max angular momentum: 3

   => Loading Basis Set <=

    Name: (JUN-CC-PVTZ AUX)
    Role: JKFIT
    Keyword: DF_BASIS_SCF
    atoms 1, 5, 7-9, 11-13, 18-25 entry H          line    70 file /home/r08543048/miniconda3/share/psi4/basis/jun-cc-pvtz-jkfit.gbs 
    atoms 2-3, 6, 10, 14-17       entry C          line   152 file /home/r08543048/miniconda3/share/psi4/basis/jun-cc-pvtz-jkfit.gbs 
    atoms 4                       entry O          line   272 file /home/r08543048/miniconda3/share/psi4/basis/jun-cc-pvtz-jkfit.gbs 

  ==> Pre-Iterations <==

   -------------------------------------------------------
    Irrep   Nso     Nmo     Nalpha   Nbeta   Ndocc  Nsocc
   -------------------------------------------------------
     A        575     575       0       0       0       0
   -------------------------------------------------------
    Total     575     575      36      36      36       0
   -------------------------------------------------------

  ==> Integral Setup <==

  ==> DiskDFJK: Density-Fitted J/K Matrices <==

    J tasked:                  Yes
    K tasked:                  Yes
    wK tasked:                  No
    OpenMP threads:              1
    Integrals threads:           1
    Memory [MiB]:            15735
    Algorithm:                Core
    Integral Cache:           SAVE
    Schwarz Cutoff:          1E-12
    Fitting Condition:       1E-10

   => Auxiliary Basis Set <=

  Basis Set: (JUN-CC-PVTZ AUX)
    Blend: JUN-CC-PVTZ-JKFIT
    Number of shells: 421
    Number of basis function: 1335
    Number of Cartesian functions: 1604
    Spherical Harmonics?: true
    Max angular momentum: 4

  Minimum eigenvalue in the overlap matrix is 2.7859362060E-05.
  Using Symmetric Orthogonalization.

  SCF Guess: Superposition of Atomic Densities via on-the-fly atomic UHF.

  ==> Iterations <==

                           Total Energy        Delta E     RMS |[F,P]|

   @DF-RHF iter SAD:  -385.79249143652231   -3.85792e+02   0.00000e+00 
   @DF-RHF iter   1:  -386.85983921078457   -1.06735e+00   1.39076e-03 DIIS
   @DF-RHF iter   2:  -387.14973039681678   -2.89891e-01   7.48596e-04 DIIS
   @DF-RHF iter   3:  -387.22733716725878   -7.76068e-02   1.66991e-04 DIIS
   @DF-RHF iter   4:  -387.23282209115723   -5.48492e-03   7.49727e-05 DIIS
   @DF-RHF iter   5:  -387.23386510679177   -1.04302e-03   1.13563e-05 DIIS
   @DF-RHF iter   6:  -387.23391288133240   -4.77745e-05   5.04235e-06 DIIS
   @DF-RHF iter   7:  -387.23392013143985   -7.25011e-06   1.90472e-06 DIIS
   @DF-RHF iter   8:  -387.23392166235072   -1.53091e-06   8.43249e-07 DIIS
   @DF-RHF iter   9:  -387.23392198216766   -3.19817e-07   2.52215e-07 DIIS
   @DF-RHF iter  10:  -387.23392201323628   -3.10686e-08   7.16240e-08 DIIS
   @DF-RHF iter  11:  -387.23392201571880   -2.48252e-09   2.10128e-08 DIIS
   @DF-RHF iter  12:  -387.23392201599074   -2.71939e-10   9.73764e-09 DIIS
  Energy and wave function converged.


  ==> Post-Iterations <==

    Orbital Energies [Eh]
    ---------------------

    Doubly Occupied:                                                      

       1A    -20.552118     2A    -11.328793     3A    -11.237181  
       4A    -11.234550     5A    -11.225396     6A    -11.223272  
       7A    -11.220249     8A    -11.217545     9A    -11.215178  
      10A     -1.383984    11A     -1.084841    12A     -1.079884  
      13A     -0.990046    14A     -0.975296    15A     -0.858678  
      16A     -0.846543    17A     -0.767803    18A     -0.757614  
      19A     -0.670521    20A     -0.651406    21A     -0.645061  
      22A     -0.630164    23A     -0.608062    24A     -0.584518  
      25A     -0.568406    26A     -0.566415    27A     -0.538584  
      28A     -0.519005    29A     -0.510728    30A     -0.501773  
      31A     -0.490135    32A     -0.486604    33A     -0.482020  
      34A     -0.472674    35A     -0.416998    36A     -0.361284  

    Virtual:                                                              

      37A      0.042511    38A      0.049191    39A      0.051405  
      40A      0.057627    41A      0.065590    42A      0.072836  
      43A      0.073798    44A      0.080826    45A      0.084371  
      46A      0.095505    47A      0.103181    48A      0.108411  
      49A      0.112041    50A      0.112356    51A      0.119166  
      52A      0.124137    53A      0.132318    54A      0.139475  
      55A      0.140457    56A      0.144405    57A      0.152654  
      58A      0.157940    59A      0.165214    60A      0.169308  
      61A      0.175695    62A      0.181570    63A      0.184108  
      64A      0.192333    65A      0.193302    66A      0.200069  
      67A      0.212883    68A      0.216005    69A      0.225714  
      70A      0.228837    71A      0.248340    72A      0.259942  
      73A      0.264124    74A      0.271125    75A      0.275078  
      76A      0.284606    77A      0.289836    78A      0.291926  
      79A      0.298569    80A      0.301020    81A      0.304259  
      82A      0.313066    83A      0.316104    84A      0.325697  
      85A      0.327590    86A      0.332929    87A      0.337455  
      88A      0.343861    89A      0.347330    90A      0.350043  
      91A      0.354343    92A      0.359536    93A      0.367683  
      94A      0.368430    95A      0.373337    96A      0.377748  
      97A      0.387815    98A      0.390391    99A      0.393898  
     100A      0.399280   101A      0.407187   102A      0.412875  
     103A      0.418966   104A      0.423014   105A      0.433242  
     106A      0.437563   107A      0.444207   108A      0.448758  
     109A      0.460380   110A      0.466789   111A      0.469704  
     112A      0.485191   113A      0.490163   114A      0.500285  
     115A      0.501021   116A      0.518427   117A      0.522602  
     118A      0.529503   119A      0.530893   120A      0.537774  
     121A      0.545645   122A      0.548201   123A      0.551106  
     124A      0.556189   125A      0.563228   126A      0.574466  
     127A      0.578371   128A      0.584554   129A      0.600083  
     130A      0.604176   131A      0.606167   132A      0.619791  
     133A      0.630917   134A      0.641625   135A      0.658894  
     136A      0.664784   137A      0.670224   138A      0.681036  
     139A      0.686910   140A      0.693480   141A      0.705471  
     142A      0.711531   143A      0.714026   144A      0.720105  
     145A      0.735399   146A      0.743863   147A      0.748770  
     148A      0.763470   149A      0.770791   150A      0.773962  
     151A      0.777028   152A      0.793393   153A      0.801811  
     154A      0.809226   155A      0.810912   156A      0.819801  
     157A      0.831651   158A      0.834508   159A      0.837448  
     160A      0.840262   161A      0.847879   162A      0.854298  
     163A      0.865983   164A      0.871409   165A      0.875686  
     166A      0.887757   167A      0.893430   168A      0.901965  
     169A      0.908251   170A      0.916831   171A      0.929700  
     172A      0.939267   173A      0.952800   174A      0.957287  
     175A      0.967884   176A      0.976945   177A      0.981131  
     178A      0.989855   179A      1.001322   180A      1.012672  
     181A      1.022040   182A      1.034028   183A      1.048885  
     184A      1.057890   185A      1.062738   186A      1.082956  
     187A      1.096585   188A      1.104543   189A      1.111498  
     190A      1.120874   191A      1.140341   192A      1.145486  
     193A      1.151089   194A      1.158109   195A      1.168351  
     196A      1.172057   197A      1.192495   198A      1.207272  
     199A      1.216234   200A      1.234021   201A      1.245159  
     202A      1.250862   203A      1.255923   204A      1.276724  
     205A      1.287531   206A      1.299407   207A      1.311524  
     208A      1.321536   209A      1.325590   210A      1.339776  
     211A      1.351814   212A      1.358600   213A      1.362198  
     214A      1.376005   215A      1.385128   216A      1.395004  
     217A      1.403201   218A      1.409120   219A      1.416126  
     220A      1.422823   221A      1.428220   222A      1.431597  
     223A      1.443732   224A      1.454536   225A      1.459884  
     226A      1.481738   227A      1.490227   228A      1.494609  
     229A      1.501106   230A      1.506951   231A      1.526305  
     232A      1.530893   233A      1.550857   234A      1.556538  
     235A      1.559068   236A      1.572282   237A      1.590242  
     238A      1.593429   239A      1.602385   240A      1.607028  
     241A      1.610230   242A      1.619307   243A      1.628163  
     244A      1.633598   245A      1.641408   246A      1.645757  
     247A      1.655780   248A      1.670926   249A      1.685225  
     250A      1.694028   251A      1.694549   252A      1.715899  
     253A      1.729869   254A      1.740817   255A      1.755937  
     256A      1.763032   257A      1.781078   258A      1.791143  
     259A      1.806040   260A      1.814121   261A      1.833391  
     262A      1.844771   263A      1.863536   264A      1.880301  
     265A      1.886228   266A      1.893314   267A      1.898245  
     268A      1.917174   269A      1.927568   270A      1.931140  
     271A      1.949801   272A      1.966576   273A      1.978835  
     274A      2.010458   275A      2.031405   276A      2.048382  
     277A      2.060251   278A      2.089279   279A      2.138115  
     280A      2.225526   281A      2.260232   282A      2.349327  
     283A      2.404856   284A      2.428892   285A      2.481652  
     286A      2.587790   287A      2.679561   288A      2.728635  
     289A      2.731005   290A      2.753665   291A      2.760531  
     292A      2.775071   293A      2.784544   294A      2.816922  
     295A      2.820831   296A      2.835227   297A      2.844705  
     298A      2.857568   299A      2.874086   300A      2.884661  
     301A      2.892476   302A      2.899046   303A      2.921934  
     304A      2.923912   305A      2.945118   306A      2.954597  
     307A      2.974557   308A      2.982096   309A      2.992383  
     310A      3.001247   311A      3.012931   312A      3.030607  
     313A      3.043215   314A      3.057496   315A      3.081469  
     316A      3.088303   317A      3.096486   318A      3.105541  
     319A      3.115966   320A      3.119881   321A      3.129097  
     322A      3.135068   323A      3.141360   324A      3.146686  
     325A      3.159696   326A      3.170453   327A      3.181286  
     328A      3.196727   329A      3.208650   330A      3.229117  
     331A      3.233384   332A      3.247640   333A      3.265452  
     334A      3.272826   335A      3.286274   336A      3.296920  
     337A      3.306699   338A      3.310270   339A      3.319895  
     340A      3.330374   341A      3.339412   342A      3.345482  
     343A      3.352896   344A      3.366197   345A      3.379988  
     346A      3.386650   347A      3.402453   348A      3.407171  
     349A      3.419223   350A      3.427274   351A      3.433904  
     352A      3.439611   353A      3.443240   354A      3.465621  
     355A      3.466992   356A      3.472946   357A      3.479201  
     358A      3.490787   359A      3.497208   360A      3.512478  
     361A      3.517792   362A      3.519614   363A      3.532181  
     364A      3.533067   365A      3.547093   366A      3.554730  
     367A      3.558006   368A      3.564511   369A      3.571130  
     370A      3.579168   371A      3.589757   372A      3.593566  
     373A      3.600354   374A      3.611226   375A      3.635452  
     376A      3.643043   377A      3.652736   378A      3.664235  
     379A      3.674590   380A      3.682989   381A      3.693374  
     382A      3.707595   383A      3.732597   384A      3.747219  
     385A      3.751162   386A      3.762229   387A      3.776131  
     388A      3.782503   389A      3.783606   390A      3.795731  
     391A      3.811550   392A      3.823165   393A      3.842165  
     394A      3.855843   395A      3.864472   396A      3.880382  
     397A      3.886708   398A      3.889318   399A      3.903340  
     400A      3.924428   401A      3.930495   402A      3.942909  
     403A      3.958554   404A      3.959627   405A      3.978537  
     406A      3.979495   407A      3.996880   408A      4.007032  
     409A      4.024719   410A      4.044728   411A      4.049895  
     412A      4.058973   413A      4.084005   414A      4.112388  
     415A      4.122797   416A      4.138655   417A      4.150218  
     418A      4.179688   419A      4.187231   420A      4.194888  
     421A      4.213815   422A      4.218779   423A      4.229679  
     424A      4.250251   425A      4.261991   426A      4.274343  
     427A      4.278977   428A      4.289386   429A      4.306544  
     430A      4.316856   431A      4.319330   432A      4.336258  
     433A      4.346307   434A      4.349240   435A      4.362930  
     436A      4.369217   437A      4.380709   438A      4.387076  
     439A      4.396857   440A      4.402554   441A      4.407549  
     442A      4.431685   443A      4.440015   444A      4.442817  
     445A      4.451881   446A      4.460706   447A      4.467732  
     448A      4.470899   449A      4.478377   450A      4.498607  
     451A      4.506071   452A      4.507665   453A      4.530272  
     454A      4.539900   455A      4.560549   456A      4.565464  
     457A      4.570525   458A      4.595748   459A      4.617778  
     460A      4.628194   461A      4.640650   462A      4.644492  
     463A      4.654574   464A      4.665583   465A      4.677686  
     466A      4.688536   467A      4.700759   468A      4.730192  
     469A      4.742765   470A      4.776484   471A      4.796366  
     472A      4.803330   473A      4.831123   474A      4.835522  
     475A      4.843749   476A      4.863912   477A      4.885521  
     478A      4.891226   479A      4.909335   480A      4.915176  
     481A      4.925150   482A      4.952949   483A      4.983466  
     484A      5.004942   485A      5.010460   486A      5.020692  
     487A      5.065912   488A      5.081899   489A      5.095793  
     490A      5.103176   491A      5.114336   492A      5.132184  
     493A      5.150112   494A      5.182419   495A      5.197329  
     496A      5.228417   497A      5.242096   498A      5.254815  
     499A      5.278316   500A      5.284906   501A      5.290941  
     502A      5.302503   503A      5.308948   504A      5.325057  
     505A      5.327968   506A      5.362647   507A      5.371872  
     508A      5.380246   509A      5.404005   510A      5.410286  
     511A      5.419725   512A      5.428883   513A      5.435456  
     514A      5.451156   515A      5.510140   516A      5.523637  
     517A      5.570531   518A      5.580402   519A      5.598719  
     520A      5.623563   521A      5.645918   522A      5.670914  
     523A      5.677510   524A      5.701830   525A      5.714234  
     526A      5.719630   527A      5.745310   528A      5.759122  
     529A      5.763351   530A      5.770745   531A      5.794062  
     532A      5.811474   533A      5.828077   534A      5.856353  
     535A      5.887740   536A      5.902668   537A      5.923623  
     538A      5.927408   539A      5.950656   540A      5.956836  
     541A      5.974316   542A      5.982804   543A      6.034769  
     544A      6.119547   545A      6.138916   546A      6.219518  
     547A      6.260801   548A      6.328841   549A      6.420190  
     550A      6.479910   551A      6.500609   552A      6.506787  
     553A      6.512673   554A      6.528400   555A      6.585474  
     556A      6.609084   557A      6.625436   558A      6.713423  
     559A      6.806227   560A      6.988861   561A      7.258245  
     562A      7.301188   563A      7.312071   564A      7.443000  
     565A      7.644928   566A      7.733543   567A     12.308239  
     568A     12.621865   569A     13.931517   570A     14.290571  
     571A     14.395677   572A     14.486321   573A     14.520354  
     574A     14.575037   575A     15.363045  

    Final Occupation by Irrep:
              A 
    DOCC [    36 ]

  @DF-RHF Final Energy:  -387.23392201599074

   => Energetics <=

    Nuclear Repulsion Energy =            444.9482407034320772
    One-Electron Energy =               -1406.5576709422250588
    Two-Electron Energy =                 574.3755082228022957
    Total Energy =                       -387.2339220159907427

Computation Completed


Properties will be evaluated at   0.000000,   0.000000,   0.000000 [a0]

Properties computed using the SCF density matrix

  Nuclear Dipole Moment: [e a0]
     X:    -1.3284      Y:     8.0547      Z:    -2.9657

  Electronic Dipole Moment: [e a0]
     X:     1.5260      Y:    -7.6196      Z:     1.9285

  Dipole Moment: [e a0]
     X:     0.1976      Y:     0.4351      Z:    -1.0372     Total:     1.1420

  Dipole Moment: [D]
     X:     0.5021      Y:     1.1059      Z:    -2.6363     Total:     2.9026


*** tstop() called on r282 at Fri Sep 10 14:42:45 2021
Module time:
	user time   =     114.23 seconds =       1.90 minutes
	system time =       2.09 seconds =       0.03 minutes
	total time  =        116 seconds =       1.93 minutes
Total time:
	user time   =     114.23 seconds =       1.90 minutes
	system time =       2.09 seconds =       0.03 minutes
	total time  =        116 seconds =       1.93 minutes

  //>>>>>>>>>>>>>>>>>>>>>>>>>>>>>>>>>>>//
  //            Monomer A HF           //
  //<<<<<<<<<<<<<<<<<<<<<<<<<<<<<<<<<<<//


*** tstart() called on r282
*** at Fri Sep 10 14:42:45 2021

   => Loading Basis Set <=

    Name: JUN-CC-PVTZ
    Role: ORBITAL
    Keyword: BASIS
    atoms 1, 5, 7-9, 11-13, 18-25 entry H          line    36 file /home/r08543048/miniconda3/share/psi4/basis/jun-cc-pvtz.gbs 
    atoms 2-3, 6, 10, 14-17       entry C          line   217 file /home/r08543048/miniconda3/share/psi4/basis/jun-cc-pvtz.gbs 
    atoms 4                       entry O          line   305 file /home/r08543048/miniconda3/share/psi4/basis/jun-cc-pvtz.gbs 


         ---------------------------------------------------------
                                   SCF
               by Justin Turney, Rob Parrish, Andy Simmonett
                          and Daniel G. A. Smith
                              RHF Reference
                        1 Threads,  20980 MiB Core
         ---------------------------------------------------------

  ==> Geometry <==

    Molecular point group: c1
    Full point group: C1

    Geometry (in Angstrom), charge = 0, multiplicity = 1:

       Center              X                  Y                   Z               Mass       
    ------------   -----------------  -----------------  -----------------  -----------------
         H            0.826670504607    -2.453555717815    -0.607346954684     1.007825032230
         C            1.675108504607    -0.411160717815    -0.636533954684    12.000000000000
         C            1.107454504607    -1.615231717815     0.055861045316    12.000000000000
         O            0.943213504607    -1.704190717815     1.258264045316    15.994914619570
         H            0.895916504607    -0.053535717815    -1.320601954684     1.007825032230
         C            2.138053504607     0.691177282185     0.299457045316    12.000000000000
         H            1.320961504607     0.954642282185     0.971365045316     1.007825032230
         H            2.939210504607     0.308410282185     0.933644045316     1.007825032230
         H            2.490175504607    -0.755757717815    -1.282607954684     1.007825032230
         C            2.610727504607     1.918874282185    -0.468139954684    12.000000000000
         H            3.437886504607     1.670636282185    -1.134434954684     1.007825032230
         H            1.805281504607     2.328798282185    -1.079569954684     1.007825032230
         H            2.949666504607     2.703103282185     0.207577045316     1.007825032230
      Gh(C)          -2.160007495393    -1.467657717815    -0.653010954684    12.000000000000
      Gh(C)          -2.082809495393    -0.146143717815    -0.840947954684    12.000000000000
      Gh(C)          -1.639050495393     0.833423282185     0.198402045316    12.000000000000
      Gh(C)          -2.787280495393     1.745921282185     0.633991045316    12.000000000000
      Gh(H)          -2.520024495393    -2.125648717815    -1.432079954684     1.007825032230
      Gh(H)          -1.867610495393    -1.913504717815     0.289780045316     1.007825032230
      Gh(H)          -2.393041495393     0.267189282185    -1.797298954684     1.007825032230
      Gh(H)          -1.237736495393     0.294605282185     1.059210045316     1.007825032230
      Gh(H)          -0.830398495393     1.451561282185    -0.202916954684     1.007825032230
      Gh(H)          -3.199735495393     2.284383282185    -0.219821954684     1.007825032230
      Gh(H)          -3.589857495393     1.159675282185     1.080082045316     1.007825032230
      Gh(H)          -2.449210495393     2.479655282185     1.365060045316     1.007825032230

  Running in c1 symmetry.

  Rotational constants: A =      0.05304  B =      0.02844  C =      0.02190 [cm^-1]
  Rotational constants: A =   1590.18245  B =    852.57533  C =    656.42417 [MHz]
  Nuclear repulsion =  172.420125506205807

  Charge       = 0
  Multiplicity = 1
  Electrons    = 40
  Nalpha       = 20
  Nbeta        = 20

  ==> Algorithm <==

  SCF Algorithm Type is DF.
  DIIS enabled.
  MOM disabled.
  Fractional occupation disabled.
  Guess Type is SAD.
  Energy threshold   = 1.00e-08
  Density threshold  = 1.00e-08
  Integral threshold = 0.00e+00

  ==> Primary Basis <==

  Basis Set: JUN-CC-PVTZ
    Blend: JUN-CC-PVTZ
    Number of shells: 213
    Number of basis function: 575
    Number of Cartesian functions: 645
    Spherical Harmonics?: true
    Max angular momentum: 3

   => Loading Basis Set <=

    Name: (JUN-CC-PVTZ AUX)
    Role: JKFIT
    Keyword: DF_BASIS_SCF
    atoms 1, 5, 7-9, 11-13, 18-25 entry H          line    70 file /home/r08543048/miniconda3/share/psi4/basis/jun-cc-pvtz-jkfit.gbs 
    atoms 2-3, 6, 10, 14-17       entry C          line   152 file /home/r08543048/miniconda3/share/psi4/basis/jun-cc-pvtz-jkfit.gbs 
    atoms 4                       entry O          line   272 file /home/r08543048/miniconda3/share/psi4/basis/jun-cc-pvtz-jkfit.gbs 

  ==> Pre-Iterations <==

   -------------------------------------------------------
    Irrep   Nso     Nmo     Nalpha   Nbeta   Ndocc  Nsocc
   -------------------------------------------------------
     A        575     575       0       0       0       0
   -------------------------------------------------------
    Total     575     575      20      20      20       0
   -------------------------------------------------------

  ==> Integral Setup <==

  ==> DiskDFJK: Density-Fitted J/K Matrices <==

    J tasked:                  Yes
    K tasked:                  Yes
    wK tasked:                  No
    OpenMP threads:              1
    Integrals threads:           1
    Memory [MiB]:            15735
    Algorithm:                Core
    Integral Cache:           LOAD
    Schwarz Cutoff:          1E-12
    Fitting Condition:       1E-10

   => Auxiliary Basis Set <=

  Basis Set: (JUN-CC-PVTZ AUX)
    Blend: JUN-CC-PVTZ-JKFIT
    Number of shells: 421
    Number of basis function: 1335
    Number of Cartesian functions: 1604
    Spherical Harmonics?: true
    Max angular momentum: 4

  Minimum eigenvalue in the overlap matrix is 2.7859362060E-05.
  Using Symmetric Orthogonalization.

  SCF Guess: Superposition of Atomic Densities via on-the-fly atomic UHF.

  ==> Iterations <==

                           Total Energy        Delta E     RMS |[F,P]|

   @DF-RHF iter SAD:  -230.24415875818696   -2.30244e+02   0.00000e+00 
   @DF-RHF iter   1:  -230.86144363897711   -6.17285e-01   1.07202e-03 DIIS
   @DF-RHF iter   2:  -231.01345904931063   -1.52015e-01   6.57235e-04 DIIS
   @DF-RHF iter   3:  -231.06771470635056   -5.42557e-02   1.29378e-04 DIIS
   @DF-RHF iter   4:  -231.07114312608726   -3.42842e-03   5.55006e-05 DIIS
   @DF-RHF iter   5:  -231.07179877396734   -6.55648e-04   9.71184e-06 DIIS
   @DF-RHF iter   6:  -231.07183872938697   -3.99554e-05   4.01074e-06 DIIS
   @DF-RHF iter   7:  -231.07184500565765   -6.27627e-06   1.76103e-06 DIIS
   @DF-RHF iter   8:  -231.07184632657635   -1.32092e-06   5.75951e-07 DIIS
   @DF-RHF iter   9:  -231.07184650461238   -1.78036e-07   1.07456e-07 DIIS
   @DF-RHF iter  10:  -231.07184651051631   -5.90393e-09   2.83399e-08 DIIS
   @DF-RHF iter  11:  -231.07184651079564   -2.79329e-10   8.53008e-09 DIIS
  Energy and wave function converged.


  ==> Post-Iterations <==

    Orbital Energies [Eh]
    ---------------------

    Doubly Occupied:                                                      

       1A    -20.557080     2A    -11.332499     3A    -11.242294  
       4A    -11.225777     5A    -11.218531     6A     -1.387438  
       7A     -1.083804     8A     -0.978244     9A     -0.849246  
      10A     -0.770975    11A     -0.674000    12A     -0.650601  
      13A     -0.633305    14A     -0.570697    15A     -0.568292  
      16A     -0.512910    17A     -0.502375    18A     -0.492124  
      19A     -0.480378    20A     -0.420776  

    Virtual:                                                              

      21A      0.028580    22A      0.042239    23A      0.045161  
      24A      0.054843    25A      0.060769    26A      0.068300  
      27A      0.070756    28A      0.076397    29A      0.081066  
      30A      0.092098    31A      0.096285    32A      0.102282  
      33A      0.105730    34A      0.113618    35A      0.115390  
      36A      0.118107    37A      0.129158    38A      0.131880  
      39A      0.136700    40A      0.140340    41A      0.147423  
      42A      0.151355    43A      0.156095    44A      0.157692  
      45A      0.164342    46A      0.166454    47A      0.175136  
      48A      0.181609    49A      0.188664    50A      0.192462  
      51A      0.196587    52A      0.206692    53A      0.225943  
      54A      0.234821    55A      0.247432    56A      0.254311  
      57A      0.262693    58A      0.268788    59A      0.270621  
      60A      0.275544    61A      0.284240    62A      0.290238  
      63A      0.296503    64A      0.299247    65A      0.303495  
      66A      0.312287    67A      0.315471    68A      0.318301  
      69A      0.328501    70A      0.333692    71A      0.339791  
      72A      0.342383    73A      0.345585    74A      0.351642  
      75A      0.355797    76A      0.360391    77A      0.367887  
      78A      0.375279    79A      0.379891    80A      0.382981  
      81A      0.390469    82A      0.396928    83A      0.399397  
      84A      0.407136    85A      0.411086    86A      0.413474  
      87A      0.420759    88A      0.431953    89A      0.440650  
      90A      0.443070    91A      0.456744    92A      0.460142  
      93A      0.465722    94A      0.472338    95A      0.483038  
      96A      0.491584    97A      0.498857    98A      0.504574  
      99A      0.507886   100A      0.511250   101A      0.519634  
     102A      0.528094   103A      0.531550   104A      0.543904  
     105A      0.547173   106A      0.558670   107A      0.562504  
     108A      0.564907   109A      0.573544   110A      0.582102  
     111A      0.583711   112A      0.593561   113A      0.600208  
     114A      0.612277   115A      0.614799   116A      0.617932  
     117A      0.627041   118A      0.639498   119A      0.643854  
     120A      0.652035   121A      0.653635   122A      0.664403  
     123A      0.677027   124A      0.683325   125A      0.684917  
     126A      0.697552   127A      0.704678   128A      0.711739  
     129A      0.715671   130A      0.720507   131A      0.734173  
     132A      0.743276   133A      0.754208   134A      0.754931  
     135A      0.774387   136A      0.785031   137A      0.793932  
     138A      0.811549   139A      0.818546   140A      0.829368  
     141A      0.837305   142A      0.839669   143A      0.851218  
     144A      0.862005   145A      0.863445   146A      0.873719  
     147A      0.882872   148A      0.890275   149A      0.898501  
     150A      0.920458   151A      0.926243   152A      0.945792  
     153A      0.960131   154A      0.973720   155A      0.999046  
     156A      1.002271   157A      1.012471   158A      1.019243  
     159A      1.043754   160A      1.062445   161A      1.077101  
     162A      1.090802   163A      1.102966   164A      1.103697  
     165A      1.116793   166A      1.125179   167A      1.133095  
     168A      1.138996   169A      1.142840   170A      1.155514  
     171A      1.173068   172A      1.183363   173A      1.187956  
     174A      1.204009   175A      1.206217   176A      1.214142  
     177A      1.227407   178A      1.232507   179A      1.245861  
     180A      1.252451   181A      1.259064   182A      1.262328  
     183A      1.287806   184A      1.297537   185A      1.303819  
     186A      1.309554   187A      1.322371   188A      1.333096  
     189A      1.336909   190A      1.347059   191A      1.355738  
     192A      1.360974   193A      1.366193   194A      1.377434  
     195A      1.383624   196A      1.393346   197A      1.404614  
     198A      1.408870   199A      1.415088   200A      1.419944  
     201A      1.425641   202A      1.439312   203A      1.443166  
     204A      1.457348   205A      1.460011   206A      1.475761  
     207A      1.480547   208A      1.483730   209A      1.501427  
     210A      1.507265   211A      1.512298   212A      1.521969  
     213A      1.532650   214A      1.544754   215A      1.556277  
     216A      1.562826   217A      1.566442   218A      1.570421  
     219A      1.580334   220A      1.586601   221A      1.601988  
     222A      1.605954   223A      1.618137   224A      1.624175  
     225A      1.630784   226A      1.632508   227A      1.637112  
     228A      1.644389   229A      1.648069   230A      1.662753  
     231A      1.674004   232A      1.686541   233A      1.700277  
     234A      1.701882   235A      1.720438   236A      1.722602  
     237A      1.733420   238A      1.753305   239A      1.758175  
     240A      1.782802   241A      1.791810   242A      1.809186  
     243A      1.818191   244A      1.841130   245A      1.853364  
     246A      1.862861   247A      1.886661   248A      1.903413  
     249A      1.909387   250A      1.922232   251A      1.940396  
     252A      1.952995   253A      1.969804   254A      1.984449  
     255A      2.009152   256A      2.023842   257A      2.025308  
     258A      2.038178   259A      2.064025   260A      2.082450  
     261A      2.114879   262A      2.132240   263A      2.172022  
     264A      2.195974   265A      2.236298   266A      2.253974  
     267A      2.298963   268A      2.339431   269A      2.373218  
     270A      2.385975   271A      2.416289   272A      2.432945  
     273A      2.449359   274A      2.468907   275A      2.481531  
     276A      2.514683   277A      2.543186   278A      2.581629  
     279A      2.588822   280A      2.645981   281A      2.717459  
     282A      2.739245   283A      2.754835   284A      2.779841  
     285A      2.807115   286A      2.847752   287A      2.886627  
     288A      2.892232   289A      2.896546   290A      2.921163  
     291A      2.930625   292A      2.951714   293A      2.998279  
     294A      3.007758   295A      3.038081   296A      3.061890  
     297A      3.078555   298A      3.114818   299A      3.117999  
     300A      3.132678   301A      3.143395   302A      3.161196  
     303A      3.190484   304A      3.219006   305A      3.272266  
     306A      3.287893   307A      3.305165   308A      3.317826  
     309A      3.333828   310A      3.348857   311A      3.363693  
     312A      3.391243   313A      3.409885   314A      3.434463  
     315A      3.442718   316A      3.454302   317A      3.463192  
     318A      3.470670   319A      3.475248   320A      3.492230  
     321A      3.501070   322A      3.510279   323A      3.521365  
     324A      3.533663   325A      3.537462   326A      3.550922  
     327A      3.552902   328A      3.574883   329A      3.580504  
     330A      3.586578   331A      3.594859   332A      3.601673  
     333A      3.617294   334A      3.626692   335A      3.633986  
     336A      3.649154   337A      3.650173   338A      3.665095  
     339A      3.683434   340A      3.687039   341A      3.715408  
     342A      3.725379   343A      3.743774   344A      3.748843  
     345A      3.755430   346A      3.773428   347A      3.786145  
     348A      3.789238   349A      3.793712   350A      3.805024  
     351A      3.820108   352A      3.827773   353A      3.846799  
     354A      3.852425   355A      3.857521   356A      3.879963  
     357A      3.885080   358A      3.893775   359A      3.906976  
     360A      3.919645   361A      3.935143   362A      3.940223  
     363A      3.950897   364A      3.963078   365A      3.963672  
     366A      3.983021   367A      4.004197   368A      4.010054  
     369A      4.024612   370A      4.038401   371A      4.051057  
     372A      4.066057   373A      4.094625   374A      4.097447  
     375A      4.113516   376A      4.128367   377A      4.138948  
     378A      4.164144   379A      4.174358   380A      4.183185  
     381A      4.197195   382A      4.204947   383A      4.214600  
     384A      4.215869   385A      4.238026   386A      4.245278  
     387A      4.248106   388A      4.270194   389A      4.282775  
     390A      4.288181   391A      4.313792   392A      4.328222  
     393A      4.331652   394A      4.347170   395A      4.355492  
     396A      4.361802   397A      4.368312   398A      4.387143  
     399A      4.394661   400A      4.408847   401A      4.416709  
     402A      4.431636   403A      4.450039   404A      4.462606  
     405A      4.474922   406A      4.482043   407A      4.489351  
     408A      4.495459   409A      4.504693   410A      4.512797  
     411A      4.524557   412A      4.534003   413A      4.542694  
     414A      4.546759   415A      4.557251   416A      4.578738  
     417A      4.591444   418A      4.594793   419A      4.614280  
     420A      4.622090   421A      4.633685   422A      4.639563  
     423A      4.643926   424A      4.667317   425A      4.676367  
     426A      4.689582   427A      4.690921   428A      4.701154  
     429A      4.722335   430A      4.729808   431A      4.743841  
     432A      4.760144   433A      4.776104   434A      4.785077  
     435A      4.794619   436A      4.812034   437A      4.818458  
     438A      4.826626   439A      4.833739   440A      4.839861  
     441A      4.842554   442A      4.851466   443A      4.862759  
     444A      4.872104   445A      4.883523   446A      4.888153  
     447A      4.896131   448A      4.907593   449A      4.915779  
     450A      4.931319   451A      4.949250   452A      4.979337  
     453A      4.983683   454A      4.991757   455A      5.003795  
     456A      5.017607   457A      5.020702   458A      5.034605  
     459A      5.051273   460A      5.060416   461A      5.076389  
     462A      5.090473   463A      5.102930   464A      5.117854  
     465A      5.134747   466A      5.135375   467A      5.144111  
     468A      5.169543   469A      5.172188   470A      5.192335  
     471A      5.210929   472A      5.253596   473A      5.278993  
     474A      5.285298   475A      5.288741   476A      5.302153  
     477A      5.318020   478A      5.325689   479A      5.350939  
     480A      5.367939   481A      5.374435   482A      5.386320  
     483A      5.407902   484A      5.424108   485A      5.434361  
     486A      5.444997   487A      5.489156   488A      5.504095  
     489A      5.521243   490A      5.573888   491A      5.581328  
     492A      5.602292   493A      5.605886   494A      5.623521  
     495A      5.668733   496A      5.672696   497A      5.698846  
     498A      5.710691   499A      5.721780   500A      5.733338  
     501A      5.758371   502A      5.765955   503A      5.808517  
     504A      5.823067   505A      5.831402   506A      5.855518  
     507A      5.886364   508A      5.896208   509A      5.909243  
     510A      5.946114   511A      5.967398   512A      5.978488  
     513A      5.984834   514A      6.033492   515A      6.064791  
     516A      6.065741   517A      6.114417   518A      6.134090  
     519A      6.145667   520A      6.194760   521A      6.256460  
     522A      6.292893   523A      6.325474   524A      6.333761  
     525A      6.348678   526A      6.379782   527A      6.410407  
     528A      6.471545   529A      6.505043   530A      6.509812  
     531A      6.528085   532A      6.586165   533A      6.611081  
     534A      6.660244   535A      6.737782   536A      6.795079  
     537A      6.802545   538A      6.858483   539A      6.960253  
     540A      6.989684   541A      7.109363   542A      7.253142  
     543A      7.296852   544A      7.306832   545A      7.391717  
     546A      7.428477   547A      7.440936   548A      7.494443  
     549A      7.574619   550A      7.610957   551A      7.641410  
     552A      7.692841   553A      7.705125   554A      7.730709  
     555A      7.844386   556A      7.887738   557A      7.983094  
     558A      7.987823   559A      8.140848   560A      8.289455  
     561A      8.478268   562A      8.813645   563A      9.412523  
     564A      9.743308   565A      9.910343   566A     10.216099  
     567A     12.633170   568A     13.960277   569A     14.326167  
     570A     14.499687   571A     14.572257   572A     41.018709  
     573A     45.119929   574A     45.692702   575A     47.188947  

    Final Occupation by Irrep:
              A 
    DOCC [    20 ]

  @DF-RHF Final Energy:  -231.07184651079564

   => Energetics <=

    Nuclear Repulsion Energy =            172.4201255062058067
    One-Electron Energy =                -654.6812401075593471
    Two-Electron Energy =                 251.1892680905579027
    Total Energy =                       -231.0718465107956376

Computation Completed


Properties will be evaluated at   0.000000,   0.000000,   0.000000 [a0]

Properties computed using the SCF density matrix

  Nuclear Dipole Moment: [e a0]
     X:   131.1461      Y:   -10.2590      Z:     4.2670

  Electronic Dipole Moment: [e a0]
     X:  -130.8889      Y:    10.5866      Z:    -5.4130

  Dipole Moment: [e a0]
     X:     0.2572      Y:     0.3276      Z:    -1.1460     Total:     1.2193

  Dipole Moment: [D]
     X:     0.6537      Y:     0.8326      Z:    -2.9127     Total:     3.0991


*** tstop() called on r282 at Fri Sep 10 14:43:55 2021
Module time:
	user time   =      68.54 seconds =       1.14 minutes
	system time =       0.94 seconds =       0.02 minutes
	total time  =         70 seconds =       1.17 minutes
Total time:
	user time   =     182.77 seconds =       3.05 minutes
	system time =       3.03 seconds =       0.05 minutes
	total time  =        186 seconds =       3.10 minutes

  //>>>>>>>>>>>>>>>>>>>>>>>>>>>>>>>>>>>//
  //            Monomer B HF           //
  //<<<<<<<<<<<<<<<<<<<<<<<<<<<<<<<<<<<//


*** tstart() called on r282
*** at Fri Sep 10 14:43:55 2021

   => Loading Basis Set <=

    Name: JUN-CC-PVTZ
    Role: ORBITAL
    Keyword: BASIS
    atoms 1, 5, 7-9, 11-13, 18-25 entry H          line    36 file /home/r08543048/miniconda3/share/psi4/basis/jun-cc-pvtz.gbs 
    atoms 2-3, 6, 10, 14-17       entry C          line   217 file /home/r08543048/miniconda3/share/psi4/basis/jun-cc-pvtz.gbs 
    atoms 4                       entry O          line   305 file /home/r08543048/miniconda3/share/psi4/basis/jun-cc-pvtz.gbs 


         ---------------------------------------------------------
                                   SCF
               by Justin Turney, Rob Parrish, Andy Simmonett
                          and Daniel G. A. Smith
                              RHF Reference
                        1 Threads,  20980 MiB Core
         ---------------------------------------------------------

  ==> Geometry <==

    Molecular point group: c1
    Full point group: C1

    Geometry (in Angstrom), charge = 0, multiplicity = 1:

       Center              X                  Y                   Z               Mass       
    ------------   -----------------  -----------------  -----------------  -----------------
      Gh(H)           0.826670504607    -2.453555717815    -0.607346954684     1.007825032230
      Gh(C)           1.675108504607    -0.411160717815    -0.636533954684    12.000000000000
      Gh(C)           1.107454504607    -1.615231717815     0.055861045316    12.000000000000
      Gh(O)           0.943213504607    -1.704190717815     1.258264045316    15.994914619570
      Gh(H)           0.895916504607    -0.053535717815    -1.320601954684     1.007825032230
      Gh(C)           2.138053504607     0.691177282185     0.299457045316    12.000000000000
      Gh(H)           1.320961504607     0.954642282185     0.971365045316     1.007825032230
      Gh(H)           2.939210504607     0.308410282185     0.933644045316     1.007825032230
      Gh(H)           2.490175504607    -0.755757717815    -1.282607954684     1.007825032230
      Gh(C)           2.610727504607     1.918874282185    -0.468139954684    12.000000000000
      Gh(H)           3.437886504607     1.670636282185    -1.134434954684     1.007825032230
      Gh(H)           1.805281504607     2.328798282185    -1.079569954684     1.007825032230
      Gh(H)           2.949666504607     2.703103282185     0.207577045316     1.007825032230
         C           -2.160007495393    -1.467657717815    -0.653010954684    12.000000000000
         C           -2.082809495393    -0.146143717815    -0.840947954684    12.000000000000
         C           -1.639050495393     0.833423282185     0.198402045316    12.000000000000
         C           -2.787280495393     1.745921282185     0.633991045316    12.000000000000
         H           -2.520024495393    -2.125648717815    -1.432079954684     1.007825032230
         H           -1.867610495393    -1.913504717815     0.289780045316     1.007825032230
         H           -2.393041495393     0.267189282185    -1.797298954684     1.007825032230
         H           -1.237736495393     0.294605282185     1.059210045316     1.007825032230
         H           -0.830398495393     1.451561282185    -0.202916954684     1.007825032230
         H           -3.199735495393     2.284383282185    -0.219821954684     1.007825032230
         H           -3.589857495393     1.159675282185     1.080082045316     1.007825032230
         H           -2.449210495393     2.479655282185     1.365060045316     1.007825032230

  Running in c1 symmetry.

  Rotational constants: A =      0.05304  B =      0.02844  C =      0.02190 [cm^-1]
  Rotational constants: A =   1590.18245  B =    852.57533  C =    656.42417 [MHz]
  Nuclear repulsion =  117.574767076448509

  Charge       = 0
  Multiplicity = 1
  Electrons    = 32
  Nalpha       = 16
  Nbeta        = 16

  ==> Algorithm <==

  SCF Algorithm Type is DF.
  DIIS enabled.
  MOM disabled.
  Fractional occupation disabled.
  Guess Type is SAD.
  Energy threshold   = 1.00e-08
  Density threshold  = 1.00e-08
  Integral threshold = 0.00e+00

  ==> Primary Basis <==

  Basis Set: JUN-CC-PVTZ
    Blend: JUN-CC-PVTZ
    Number of shells: 213
    Number of basis function: 575
    Number of Cartesian functions: 645
    Spherical Harmonics?: true
    Max angular momentum: 3

   => Loading Basis Set <=

    Name: (JUN-CC-PVTZ AUX)
    Role: JKFIT
    Keyword: DF_BASIS_SCF
    atoms 1, 5, 7-9, 11-13, 18-25 entry H          line    70 file /home/r08543048/miniconda3/share/psi4/basis/jun-cc-pvtz-jkfit.gbs 
    atoms 2-3, 6, 10, 14-17       entry C          line   152 file /home/r08543048/miniconda3/share/psi4/basis/jun-cc-pvtz-jkfit.gbs 
    atoms 4                       entry O          line   272 file /home/r08543048/miniconda3/share/psi4/basis/jun-cc-pvtz-jkfit.gbs 

  ==> Pre-Iterations <==

   -------------------------------------------------------
    Irrep   Nso     Nmo     Nalpha   Nbeta   Ndocc  Nsocc
   -------------------------------------------------------
     A        575     575       0       0       0       0
   -------------------------------------------------------
    Total     575     575      16      16      16       0
   -------------------------------------------------------

  ==> Integral Setup <==

  ==> DiskDFJK: Density-Fitted J/K Matrices <==

    J tasked:                  Yes
    K tasked:                  Yes
    wK tasked:                  No
    OpenMP threads:              1
    Integrals threads:           1
    Memory [MiB]:            15735
    Algorithm:                Core
    Integral Cache:           LOAD
    Schwarz Cutoff:          1E-12
    Fitting Condition:       1E-10

   => Auxiliary Basis Set <=

  Basis Set: (JUN-CC-PVTZ AUX)
    Blend: JUN-CC-PVTZ-JKFIT
    Number of shells: 421
    Number of basis function: 1335
    Number of Cartesian functions: 1604
    Spherical Harmonics?: true
    Max angular momentum: 4

  Minimum eigenvalue in the overlap matrix is 2.7859362060E-05.
  Using Symmetric Orthogonalization.

  SCF Guess: Superposition of Atomic Densities via on-the-fly atomic UHF.

  ==> Iterations <==

                           Total Energy        Delta E     RMS |[F,P]|

   @DF-RHF iter SAD:  -155.38196304841566   -1.55382e+02   0.00000e+00 
   @DF-RHF iter   1:  -155.99475527513465   -6.12792e-01   9.09242e-04 DIIS
   @DF-RHF iter   2:  -156.13411750428517   -1.39362e-01   4.04251e-04 DIIS
   @DF-RHF iter   3:  -156.16226838504411   -2.81509e-02   7.76821e-05 DIIS
   @DF-RHF iter   4:  -156.16410861761125   -1.84023e-03   2.84662e-05 DIIS
   @DF-RHF iter   5:  -156.16427302552486   -1.64408e-04   5.41662e-06 DIIS
   @DF-RHF iter   6:  -156.16428188516841   -8.85964e-06   1.00587e-06 DIIS
   @DF-RHF iter   7:  -156.16428224791355   -3.62745e-07   2.57919e-07 DIIS
   @DF-RHF iter   8:  -156.16428227252499   -2.46114e-08   7.52704e-08 DIIS
   @DF-RHF iter   9:  -156.16428227477735   -2.25236e-09   3.11188e-08 DIIS
   @DF-RHF iter  10:  -156.16428227522468   -4.47329e-10   1.02102e-08 DIIS
   @DF-RHF iter  11:  -156.16428227527751   -5.28360e-11   2.65367e-09 DIIS
  Energy and wave function converged.


  ==> Post-Iterations <==

    Orbital Energies [Eh]
    ---------------------

    Doubly Occupied:                                                      

       1A    -11.231429     2A    -11.224903     3A    -11.217742  
       4A    -11.214461     5A     -1.081037     6A     -0.987583  
       7A     -0.856225     8A     -0.755001     9A     -0.644755  
      10A     -0.606598    11A     -0.582751    12A     -0.536884  
      13A     -0.517693    14A     -0.486301    15A     -0.476885  
      16A     -0.357101  

    Virtual:                                                              

      17A      0.030429    18A      0.043615    19A      0.049413  
      20A      0.051507    21A      0.064063    22A      0.070494  
      23A      0.071398    24A      0.076246    25A      0.079582  
      26A      0.095071    27A      0.101798    28A      0.106222  
      29A      0.108239    30A      0.112445    31A      0.114672  
      32A      0.115983    33A      0.126989    34A      0.134252  
      35A      0.138029    36A      0.141980    37A      0.148038  
      38A      0.155183    39A      0.156304    40A      0.160604  
      41A      0.170703    42A      0.173181    43A      0.175816  
      44A      0.183125    45A      0.189672    46A      0.191170  
      47A      0.205470    48A      0.210384    49A      0.217841  
      50A      0.223952    51A      0.232082    52A      0.243333  
      53A      0.251924    54A      0.263131    55A      0.267913  
      56A      0.285097    57A      0.290496    58A      0.292347  
      59A      0.297236    60A      0.304119    61A      0.306997  
      62A      0.316620    63A      0.320868    64A      0.324861  
      65A      0.330566    66A      0.334752    67A      0.344549  
      68A      0.349022    69A      0.350682    70A      0.355854  
      71A      0.357757    72A      0.366715    73A      0.371029  
      74A      0.375529    75A      0.380085    76A      0.382179  
      77A      0.387990    78A      0.395454    79A      0.401781  
      80A      0.405003    81A      0.414271    82A      0.422578  
      83A      0.428664    84A      0.434690    85A      0.440668  
      86A      0.442856    87A      0.453094    88A      0.463561  
      89A      0.467990    90A      0.474781    91A      0.485433  
      92A      0.488620    93A      0.495784    94A      0.500347  
      95A      0.514711    96A      0.520466    97A      0.531109  
      98A      0.533411    99A      0.536136   100A      0.543171  
     101A      0.549853   102A      0.552539   103A      0.557563  
     104A      0.566268   105A      0.569039   106A      0.580724  
     107A      0.596306   108A      0.599726   109A      0.605037  
     110A      0.618273   111A      0.621651   112A      0.626046  
     113A      0.641153   114A      0.645524   115A      0.650874  
     116A      0.653586   117A      0.670021   118A      0.671353  
     119A      0.685181   120A      0.686102   121A      0.689641  
     122A      0.702194   123A      0.713920   124A      0.720032  
     125A      0.727571   126A      0.740956   127A      0.749315  
     128A      0.752623   129A      0.764104   130A      0.777051  
     131A      0.785534   132A      0.798622   133A      0.809460  
     134A      0.810884   135A      0.823801   136A      0.826026  
     137A      0.834364   138A      0.841537   139A      0.854326  
     140A      0.864890   141A      0.881107   142A      0.888554  
     143A      0.901961   144A      0.911634   145A      0.913780  
     146A      0.931228   147A      0.947705   148A      0.950249  
     149A      0.967714   150A      0.980131   151A      0.994681  
     152A      1.008405   153A      1.019019   154A      1.020369  
     155A      1.029052   156A      1.051511   157A      1.067185  
     158A      1.079232   159A      1.086625   160A      1.099752  
     161A      1.110661   162A      1.116717   163A      1.123691  
     164A      1.130883   165A      1.140118   166A      1.143982  
     167A      1.147951   168A      1.166489   169A      1.173189  
     170A      1.199456   171A      1.206920   172A      1.209961  
     173A      1.224862   174A      1.230527   175A      1.238431  
     176A      1.252323   177A      1.257058   178A      1.266762  
     179A      1.275829   180A      1.288291   181A      1.294170  
     182A      1.301911   183A      1.310002   184A      1.319390  
     185A      1.325846   186A      1.336672   187A      1.343104  
     188A      1.361445   189A      1.371244   190A      1.374498  
     191A      1.379767   192A      1.391411   193A      1.394062  
     194A      1.399269   195A      1.407987   196A      1.419053  
     197A      1.427709   198A      1.441741   199A      1.447883  
     200A      1.454366   201A      1.458316   202A      1.476646  
     203A      1.482836   204A      1.489075   205A      1.491947  
     206A      1.497135   207A      1.513802   208A      1.528905  
     209A      1.535526   210A      1.557230   211A      1.565204  
     212A      1.570592   213A      1.575126   214A      1.582254  
     215A      1.591751   216A      1.597972   217A      1.611742  
     218A      1.615198   219A      1.619639   220A      1.630517  
     221A      1.640114   222A      1.649494   223A      1.653933  
     224A      1.669353   225A      1.681462   226A      1.686584  
     227A      1.695389   228A      1.712785   229A      1.722151  
     230A      1.726731   231A      1.741295   232A      1.744081  
     233A      1.778379   234A      1.789462   235A      1.803597  
     236A      1.810349   237A      1.826884   238A      1.832667  
     239A      1.843717   240A      1.851779   241A      1.883770  
     242A      1.899962   243A      1.908957   244A      1.921407  
     245A      1.947246   246A      1.962099   247A      1.965796  
     248A      1.978026   249A      1.991729   250A      1.998963  
     251A      2.033152   252A      2.049026   253A      2.058419  
     254A      2.094413   255A      2.132507   256A      2.149634  
     257A      2.172732   258A      2.181806   259A      2.215128  
     260A      2.228233   261A      2.270803   262A      2.280887  
     263A      2.322603   264A      2.330938   265A      2.396633  
     266A      2.448434   267A      2.452076   268A      2.462246  
     269A      2.509572   270A      2.606969   271A      2.643076  
     272A      2.653425   273A      2.680546   274A      2.712269  
     275A      2.732743   276A      2.755997   277A      2.780728  
     278A      2.824962   279A      2.829018   280A      2.835862  
     281A      2.844229   282A      2.851335   283A      2.879521  
     284A      2.895394   285A      2.902739   286A      2.934862  
     287A      2.948809   288A      2.967346   289A      2.985983  
     290A      3.014478   291A      3.021282   292A      3.034712  
     293A      3.065511   294A      3.072279   295A      3.100238  
     296A      3.121086   297A      3.125713   298A      3.142800  
     299A      3.152663   300A      3.179414   301A      3.207975  
     302A      3.217057   303A      3.233327   304A      3.240445  
     305A      3.267702   306A      3.271978   307A      3.286388  
     308A      3.325625   309A      3.334475   310A      3.335951  
     311A      3.366871   312A      3.389709   313A      3.403018  
     314A      3.421150   315A      3.433281   316A      3.459052  
     317A      3.467563   318A      3.480463   319A      3.492901  
     320A      3.508603   321A      3.519481   322A      3.527866  
     323A      3.539387   324A      3.547597   325A      3.552893  
     326A      3.567615   327A      3.575289   328A      3.583262  
     329A      3.585148   330A      3.595075   331A      3.605442  
     332A      3.611560   333A      3.621648   334A      3.634659  
     335A      3.656678   336A      3.670216   337A      3.678199  
     338A      3.702326   339A      3.706310   340A      3.719859  
     341A      3.740789   342A      3.749170   343A      3.773300  
     344A      3.795057   345A      3.800727   346A      3.816061  
     347A      3.822652   348A      3.839661   349A      3.846646  
     350A      3.854090   351A      3.860313   352A      3.864008  
     353A      3.881365   354A      3.888639   355A      3.890608  
     356A      3.898704   357A      3.902363   358A      3.908757  
     359A      3.916977   360A      3.942587   361A      3.956262  
     362A      3.964204   363A      3.978126   364A      3.996823  
     365A      4.003884   366A      4.012141   367A      4.030209  
     368A      4.045686   369A      4.053030   370A      4.078112  
     371A      4.096030   372A      4.104560   373A      4.122001  
     374A      4.126284   375A      4.151832   376A      4.180690  
     377A      4.187309   378A      4.198986   379A      4.206702  
     380A      4.216689   381A      4.234201   382A      4.255780  
     383A      4.275426   384A      4.282194   385A      4.311811  
     386A      4.315180   387A      4.325260   388A      4.341126  
     389A      4.358013   390A      4.364527   391A      4.379573  
     392A      4.386355   393A      4.393977   394A      4.411661  
     395A      4.423511   396A      4.429385   397A      4.447071  
     398A      4.450475   399A      4.459829   400A      4.464089  
     401A      4.475697   402A      4.488199   403A      4.499873  
     404A      4.507325   405A      4.512234   406A      4.525495  
     407A      4.540103   408A      4.549690   409A      4.550412  
     410A      4.557411   411A      4.570364   412A      4.587325  
     413A      4.598404   414A      4.610838   415A      4.620929  
     416A      4.632807   417A      4.641100   418A      4.647609  
     419A      4.655880   420A      4.671194   421A      4.681732  
     422A      4.692189   423A      4.708559   424A      4.713388  
     425A      4.726140   426A      4.732622   427A      4.755114  
     428A      4.762723   429A      4.768140   430A      4.774567  
     431A      4.782242   432A      4.802719   433A      4.812410  
     434A      4.827759   435A      4.839113   436A      4.843382  
     437A      4.853998   438A      4.866495   439A      4.876419  
     440A      4.883035   441A      4.895332   442A      4.901679  
     443A      4.908092   444A      4.923862   445A      4.928811  
     446A      4.949934   447A      4.957204   448A      4.969723  
     449A      4.977619   450A      4.995385   451A      4.996336  
     452A      5.012968   453A      5.025264   454A      5.029440  
     455A      5.037525   456A      5.050862   457A      5.078549  
     458A      5.081029   459A      5.099570   460A      5.111649  
     461A      5.118486   462A      5.135740   463A      5.156806  
     464A      5.181956   465A      5.208392   466A      5.223908  
     467A      5.231878   468A      5.240573   469A      5.256582  
     470A      5.261392   471A      5.295157   472A      5.309141  
     473A      5.324854   474A      5.333249   475A      5.357705  
     476A      5.374714   477A      5.397411   478A      5.411036  
     479A      5.428211   480A      5.440130   481A      5.454720  
     482A      5.465384   483A      5.517233   484A      5.530956  
     485A      5.572795   486A      5.591170   487A      5.622881  
     488A      5.639959   489A      5.656819   490A      5.667442  
     491A      5.690064   492A      5.721335   493A      5.732394  
     494A      5.746162   495A      5.771420   496A      5.794746  
     497A      5.804618   498A      5.812745   499A      5.831264  
     500A      5.870944   501A      5.898059   502A      5.922378  
     503A      5.933582   504A      5.958224   505A      6.016313  
     506A      6.033832   507A      6.044317   508A      6.055031  
     509A      6.144462   510A      6.177451   511A      6.222238  
     512A      6.240533   513A      6.256431   514A      6.303151  
     515A      6.354806   516A      6.393956   517A      6.420109  
     518A      6.436354   519A      6.458294   520A      6.489700  
     521A      6.502809   522A      6.505310   523A      6.510443  
     524A      6.521470   525A      6.535264   526A      6.615564  
     527A      6.649757   528A      6.662480   529A      6.685774  
     530A      6.717148   531A      6.794496   532A      6.907758  
     533A      6.983431   534A      7.014790   535A      7.034186  
     536A      7.313535   537A      7.345991   538A      7.541553  
     539A      7.560668   540A      7.651674   541A      7.665946  
     542A      7.698659   543A      7.715651   544A      7.805576  
     545A      7.835746   546A      7.881753   547A      7.921570  
     548A      8.119739   549A      8.233673   550A      8.287914  
     551A      8.397052   552A      8.532356   553A      8.670693  
     554A      9.502567   555A      9.522229   556A      9.666799  
     557A      9.749554   558A      9.840433   559A      9.878116  
     560A      9.915899   561A      9.925612   562A     10.098210  
     563A     11.043401   564A     11.717801   565A     11.997104  
     566A     12.323092   567A     13.760085   568A     14.331952  
     569A     14.514805   570A     15.346742   571A     43.978621  
     572A     44.448800   573A     45.576249   574A     45.767301  
     575A     60.988676  

    Final Occupation by Irrep:
              A 
    DOCC [    16 ]

  @DF-RHF Final Energy:  -156.16428227527751

   => Energetics <=

    Nuclear Repulsion Energy =            117.5747670764485093
    One-Electron Energy =                -441.9233970322907226
    Two-Electron Energy =                 168.1843476805647128
    Total Energy =                       -156.1642822752775146

Computation Completed


Properties will be evaluated at   0.000000,   0.000000,   0.000000 [a0]

Properties computed using the SCF density matrix

  Nuclear Dipole Moment: [e a0]
     X:  -132.4745      Y:    18.3137      Z:    -7.2327

  Electronic Dipole Moment: [e a0]
     X:   132.4894      Y:   -18.1517      Z:     7.2869

  Dipole Moment: [e a0]
     X:     0.0149      Y:     0.1620      Z:     0.0542     Total:     0.1715

  Dipole Moment: [D]
     X:     0.0378      Y:     0.4118      Z:     0.1378     Total:     0.4358


*** tstop() called on r282 at Fri Sep 10 14:44:51 2021
Module time:
	user time   =      55.54 seconds =       0.93 minutes
	system time =       0.95 seconds =       0.02 minutes
	total time  =         56 seconds =       0.93 minutes
Total time:
	user time   =     238.31 seconds =       3.97 minutes
	system time =       3.98 seconds =       0.07 minutes
	total time  =        242 seconds =       4.03 minutes
  Constructing Basis Sets for SAPT...

   => Loading Basis Set <=

    Name: (JUN-CC-PVTZ AUX)
    Role: RIFIT
    Keyword: DF_BASIS_SAPT
    atoms 1, 5, 7-9, 11-13, 18-25 entry H          line    30 file /home/r08543048/miniconda3/share/psi4/basis/jun-cc-pvtz-ri.gbs 
    atoms 2-3, 6, 10, 14-17       entry C          line   132 file /home/r08543048/miniconda3/share/psi4/basis/jun-cc-pvtz-ri.gbs 
    atoms 4                       entry O          line   244 file /home/r08543048/miniconda3/share/psi4/basis/jun-cc-pvtz-ri.gbs 


  //>>>>>>>>>>>>>>>>>>>>>>>>>>>>>>>>>>>//
  //               SAPT0               //
  //<<<<<<<<<<<<<<<<<<<<<<<<<<<<<<<<<<<//


*** tstart() called on r282
*** at Fri Sep 10 14:44:51 2021

        SAPT0  
    Ed Hohenstein
     6 June 2009

      Orbital Information
  --------------------------
    NSO        =       575
    NMO        =       575
    NRI        =      1353
    NOCC A     =        20
    NOCC B     =        16
    FOCC A     =         0
    FOCC B     =         0
    NVIR A     =       555
    NVIR B     =       559

    Elst10,r            =    -0.005033539949 [Eh]
    Exch10              =     0.008474367318 [Eh]
    Exch10 (S^2)        =     0.008450845184 [Eh]

    Iter     Energy [mEh]          dE [mEh]         Residual      Time [s]
       1      -0.50428058       0.504280584       3.991121720             1
       2      -0.55777394       0.053493361       1.851797176             3
       3      -0.59386669       0.036092744       0.402459746             5
       4      -0.59390515       0.000038466       0.175222445             6
       5      -0.59228932      -0.001615835       0.055656322             8
       6      -0.59253097       0.000241655       0.023930182             9
       7      -0.59264765       0.000116674       0.008067148            11
       8      -0.59261026      -0.000037390       0.003992212            12
       9      -0.59259776      -0.000012498       0.001768430            14
      10      -0.59260770       0.000009939       0.000560954            15
      11      -0.59260772       0.000000018       0.000146183            17
      12      -0.59260713      -0.000000585       0.000048017            18
      13      -0.59260712      -0.000000012       0.000013027            20
      14      -0.59260717       0.000000051       0.000003572            21
      15      -0.59260717      -0.000000002       0.000000989            23

    CHF Iterations converged


    Iter     Energy [mEh]          dE [mEh]         Residual      Time [s]
       1      -1.98460999       1.984609992       6.897091093             1
       2      -2.45016731       0.465557319       2.670835878             3
       3      -2.50562767       0.055460362       0.647052107             4
       4      -2.49747293      -0.008154742       0.255132314             5
       5      -2.49346272      -0.004010216       0.049861618             7
       6      -2.49385839       0.000395674       0.017542312             8
       7      -2.49408756       0.000229170       0.004559440            10
       8      -2.49403338      -0.000054176       0.001575960            11
       9      -2.49403109      -0.000002297       0.000512606            12
      10      -2.49403512       0.000004036       0.000151865            14
      11      -2.49403528       0.000000153       0.000035537            15
      12      -2.49403497      -0.000000308       0.000007037            17
      13      -2.49403502       0.000000048       0.000001488            18
      14      -2.49403501      -0.000000001       0.000000455            20

    CHF Iterations converged

    Ind20,r (A<-B)      =    -0.000592607167 [Eh]
    Ind20,r (B<-A)      =    -0.002494035015 [Eh]
    Ind20,r             =    -0.003086642182 [Eh]
    Exch-Ind20,r (A<-B) =     0.000457983849 [Eh]
    Exch-Ind20,r (B<-A) =     0.002048726512 [Eh]
    Exch-Ind20,r        =     0.002506710361 [Eh]
    Disp20              =    -0.009756463353 [Eh]
    Disp20 (SS)         =    -0.004878231677 [Eh]
    Disp20 (OS)         =    -0.004878231677 [Eh]
    Exch-Disp20         =     0.000996374323 [Eh]
    Exch-Disp20 (SS)    =     0.000651049529 [Eh]
    Exch-Disp20 (OS)    =     0.000345324794 [Eh]

    SAPT Results 
  --------------------------------------------------------------------------------------------------------
    Electrostatics                 -5.03353995 [mEh]      -3.15859400 [kcal/mol]     -13.21555731 [kJ/mol]
      Elst10,r                     -5.03353995 [mEh]      -3.15859400 [kcal/mol]     -13.21555731 [kJ/mol]

    Exchange                        8.47436732 [mEh]       5.31774578 [kcal/mol]      22.24944833 [kJ/mol]
      Exch10                        8.47436732 [mEh]       5.31774578 [kcal/mol]      22.24944833 [kJ/mol]
      Exch10(S^2)                   8.45084518 [mEh]       5.30298541 [kcal/mol]      22.18769097 [kJ/mol]

    Induction                      -1.23405729 [mEh]      -0.77438264 [kcal/mol]      -3.24001696 [kJ/mol]
      Ind20,r                      -3.08664218 [mEh]      -1.93689721 [kcal/mol]      -8.10397793 [kJ/mol]
      Exch-Ind20,r                  2.50671036 [mEh]       1.57298450 [kcal/mol]       6.58136715 [kJ/mol]
      delta HF,r (2)               -0.65412547 [mEh]      -0.41046993 [kcal/mol]      -1.71740618 [kJ/mol]

    Dispersion                     -8.76008903 [mEh]      -5.49703886 [kcal/mol]     -22.99961058 [kJ/mol]
      Disp20                       -9.75646335 [mEh]      -6.12227318 [kcal/mol]     -25.61559100 [kJ/mol]
      Exch-Disp20                   0.99637432 [mEh]       0.62523433 [kcal/mol]       2.61598042 [kJ/mol]
      Disp20 (SS)                  -4.87823168 [mEh]      -3.06113659 [kcal/mol]     -12.80779550 [kJ/mol]
      Disp20 (OS)                  -4.87823168 [mEh]      -3.06113659 [kcal/mol]     -12.80779550 [kJ/mol]
      Exch-Disp20 (SS)              0.65104953 [mEh]       0.40853975 [kcal/mol]       1.70933030 [kJ/mol]
      Exch-Disp20 (OS)              0.34532479 [mEh]       0.21669458 [kcal/mol]       0.90665012 [kJ/mol]

  Total HF                          2.20677008 [mEh]       1.38476913 [kcal/mol]       5.79387405 [kJ/mol]
  Total SAPT0                      -6.55331895 [mEh]      -4.11226972 [kcal/mol]     -17.20573653 [kJ/mol]

  Special recipe for scaled SAPT0 (see Manual):
    Electrostatics sSAPT0          -5.03353995 [mEh]      -3.15859400 [kcal/mol]     -13.21555731 [kJ/mol]
    Exchange sSAPT0                 8.47436732 [mEh]       5.31774578 [kcal/mol]      22.24944833 [kJ/mol]
    Induction sSAPT0               -1.21306739 [mEh]      -0.76121128 [kcal/mol]      -3.18490800 [kJ/mol]
    Dispersion sSAPT0              -8.75174591 [mEh]      -5.49180347 [kcal/mol]     -22.97770571 [kJ/mol]
  Total sSAPT0                     -6.52398593 [mEh]      -4.09386298 [kcal/mol]     -17.12872270 [kJ/mol]
  --------------------------------------------------------------------------------------------------------

*** tstop() called on r282 at Fri Sep 10 14:48:12 2021
Module time:
	user time   =     174.10 seconds =       2.90 minutes
	system time =      26.44 seconds =       0.44 minutes
	total time  =        201 seconds =       3.35 minutes
Total time:
	user time   =     412.58 seconds =       6.88 minutes
	system time =      30.42 seconds =       0.51 minutes
	total time  =        443 seconds =       7.38 minutes

    Psi4 stopped on: Friday, 10 September 2021 02:48PM
    Psi4 wall time for execution: 0:07:23.65

*** Psi4 exiting successfully. Buy a developer a beer!
