
    -----------------------------------------------------------------------
          Psi4: An Open-Source Ab Initio Electronic Structure Package
                               Psi4 1.3.2 release

                         Git: Rev {HEAD} ecbda83 


    R. M. Parrish, L. A. Burns, D. G. A. Smith, A. C. Simmonett,
    A. E. DePrince III, E. G. Hohenstein, U. Bozkaya, A. Yu. Sokolov,
    R. Di Remigio, R. M. Richard, J. F. Gonthier, A. M. James,
    H. R. McAlexander, A. Kumar, M. Saitow, X. Wang, B. P. Pritchard,
    P. Verma, H. F. Schaefer III, K. Patkowski, R. A. King, E. F. Valeev,
    F. A. Evangelista, J. M. Turney, T. D. Crawford, and C. D. Sherrill,
    J. Chem. Theory Comput. 13(7) pp 3185--3197 (2017).
    (doi: 10.1021/acs.jctc.7b00174)


                         Additional Contributions by
    P. Kraus, H. Kruse, M. H. Lechner, M. C. Schieber, R. A. Shaw,
    A. Alenaizan, R. Galvelis, Z. L. Glick, S. Lehtola, and J. P. Misiewicz

    -----------------------------------------------------------------------


    Psi4 started on: Friday, 10 September 2021 02:06PM

    Process ID: 56721
    Host:       r282
    PSIDATADIR: /home/r08543048/miniconda3/share/psi4
    Memory:     500.0 MiB
    Threads:    1
    
  ==> Input File <==

--------------------------------------------------------------------------
# Any line starting with the # character is a comment line
#! Sample  computation

memory 22 gb

molecule Dimer {
0 1
 H   -2.302070    0.711094   -1.097903
 C   -2.238326    0.200976    1.051749
 C   -2.095516   -0.121782   -0.402611
 O   -1.774794   -1.212476   -0.835910
 H   -2.028463   -0.672787    1.662270
 H   -1.550906    1.011612    1.299106
 H   -3.249825    0.562290    1.244604
    
    
    
    
    
    
  
  

    
    
 --
0 1
 C   0.899455    1.972561   -0.252672
 C   1.032228    0.670328   -0.524799
 C   1.350021   -0.384523    0.484892
 C   2.675980   -1.079451    0.171600
 H   0.688385    2.693625   -1.030360
 H   1.009206    2.343883    0.759307
 H   0.921389    0.333723   -1.552042
 H   1.385989    0.062954    1.480764
 H   0.550465   -1.130429    0.486043
 H   2.647192   -1.530843   -0.820317
 H   3.499221   -0.365924    0.193135
 H   2.884722   -1.868044    0.893724
   
   
   




units angstrom

no_reorient
symmetry c1
}

set globals{
  basis jun-cc-pvtz
}

energy('sapt0')


--------------------------------------------------------------------------

  Memory set to  20.489 GiB by Python driver.

  //>>>>>>>>>>>>>>>>>>>>>>>>>>>>>>>>>>>//
  //              Dimer HF             //
  //<<<<<<<<<<<<<<<<<<<<<<<<<<<<<<<<<<<//


*** tstart() called on r282
*** at Fri Sep 10 14:06:17 2021

   => Loading Basis Set <=

    Name: JUN-CC-PVTZ
    Role: ORBITAL
    Keyword: BASIS
    atoms 1, 5-7, 12-19 entry H          line    36 file /home/r08543048/miniconda3/share/psi4/basis/jun-cc-pvtz.gbs 
    atoms 2-3, 8-11     entry C          line   217 file /home/r08543048/miniconda3/share/psi4/basis/jun-cc-pvtz.gbs 
    atoms 4             entry O          line   305 file /home/r08543048/miniconda3/share/psi4/basis/jun-cc-pvtz.gbs 


         ---------------------------------------------------------
                                   SCF
               by Justin Turney, Rob Parrish, Andy Simmonett
                          and Daniel G. A. Smith
                              RHF Reference
                        1 Threads,  20980 MiB Core
         ---------------------------------------------------------

  ==> Geometry <==

    Molecular point group: c1
    Full point group: C1

    Geometry (in Angstrom), charge = 0, multiplicity = 1:

       Center              X                  Y                   Z               Mass       
    ------------   -----------------  -----------------  -----------------  -----------------
         H           -2.257995079223     0.732356668049    -1.063068547959     1.007825032230
         C           -2.194251079223     0.222238668049     1.086583452041    12.000000000000
         C           -2.051441079223    -0.100519331951    -0.367776547959    12.000000000000
         O           -1.730719079223    -1.191213331951    -0.801075547959    15.994914619570
         H           -1.984388079223    -0.651524331951     1.697104452041     1.007825032230
         H           -1.506831079223     1.032874668049     1.333940452041     1.007825032230
         H           -3.205750079223     0.583552668049     1.279438452041     1.007825032230
         C            0.943529920777     1.993823668049    -0.217837547959    12.000000000000
         C            1.076302920777     0.691590668049    -0.489964547959    12.000000000000
         C            1.394095920777    -0.363260331951     0.519726452041    12.000000000000
         C            2.720054920777    -1.058188331951     0.206434452041    12.000000000000
         H            0.732459920777     2.714887668049    -0.995525547959     1.007825032230
         H            1.053280920777     2.365145668049     0.794141452041     1.007825032230
         H            0.965463920777     0.354985668049    -1.517207547959     1.007825032230
         H            1.430063920777     0.084216668049     1.515598452041     1.007825032230
         H            0.594539920777    -1.109166331951     0.520877452041     1.007825032230
         H            2.691266920777    -1.509580331951    -0.785482547959     1.007825032230
         H            3.543295920777    -0.344661331951     0.227969452041     1.007825032230
         H            2.928796920777    -1.846781331951     0.928558452041     1.007825032230

  Running in c1 symmetry.

  Rotational constants: A =      0.10351  B =      0.04241  C =      0.03641 [cm^-1]
  Rotational constants: A =   3103.09256  B =   1271.53347  C =   1091.67398 [MHz]
  Nuclear repulsion =  289.597232441981362

  Charge       = 0
  Multiplicity = 1
  Electrons    = 56
  Nalpha       = 28
  Nbeta        = 28

  ==> Algorithm <==

  SCF Algorithm Type is DF.
  DIIS enabled.
  MOM disabled.
  Fractional occupation disabled.
  Guess Type is SAD.
  Energy threshold   = 1.00e-08
  Density threshold  = 1.00e-08
  Integral threshold = 0.00e+00

  ==> Primary Basis <==

  Basis Set: JUN-CC-PVTZ
    Blend: JUN-CC-PVTZ
    Number of shells: 163
    Number of basis function: 441
    Number of Cartesian functions: 495
    Spherical Harmonics?: true
    Max angular momentum: 3

   => Loading Basis Set <=

    Name: (JUN-CC-PVTZ AUX)
    Role: JKFIT
    Keyword: DF_BASIS_SCF
    atoms 1, 5-7, 12-19 entry H          line    70 file /home/r08543048/miniconda3/share/psi4/basis/jun-cc-pvtz-jkfit.gbs 
    atoms 2-3, 8-11     entry C          line   152 file /home/r08543048/miniconda3/share/psi4/basis/jun-cc-pvtz-jkfit.gbs 
    atoms 4             entry O          line   272 file /home/r08543048/miniconda3/share/psi4/basis/jun-cc-pvtz-jkfit.gbs 

  ==> Pre-Iterations <==

   -------------------------------------------------------
    Irrep   Nso     Nmo     Nalpha   Nbeta   Ndocc  Nsocc
   -------------------------------------------------------
     A        441     441       0       0       0       0
   -------------------------------------------------------
    Total     441     441      28      28      28       0
   -------------------------------------------------------

  ==> Integral Setup <==

  ==> DiskDFJK: Density-Fitted J/K Matrices <==

    J tasked:                  Yes
    K tasked:                  Yes
    wK tasked:                  No
    OpenMP threads:              1
    Integrals threads:           1
    Memory [MiB]:            15735
    Algorithm:                Core
    Integral Cache:           SAVE
    Schwarz Cutoff:          1E-12
    Fitting Condition:       1E-10

   => Auxiliary Basis Set <=

  Basis Set: (JUN-CC-PVTZ AUX)
    Blend: JUN-CC-PVTZ-JKFIT
    Number of shells: 323
    Number of basis function: 1025
    Number of Cartesian functions: 1232
    Spherical Harmonics?: true
    Max angular momentum: 4

  Minimum eigenvalue in the overlap matrix is 3.2375422904E-05.
  Using Symmetric Orthogonalization.

  SCF Guess: Superposition of Atomic Densities via on-the-fly atomic UHF.

  ==> Iterations <==

                           Total Energy        Delta E     RMS |[F,P]|

   @DF-RHF iter SAD:  -307.63489736035643   -3.07635e+02   0.00000e+00 
   @DF-RHF iter   1:  -308.85416473519348   -1.21927e+00   1.60510e-03 DIIS
   @DF-RHF iter   2:  -309.07223049998970   -2.18066e-01   8.94381e-04 DIIS
   @DF-RHF iter   3:  -309.13365649480892   -6.14260e-02   1.99750e-04 DIIS
   @DF-RHF iter   4:  -309.13811063412351   -4.45414e-03   8.27677e-05 DIIS
   @DF-RHF iter   5:  -309.13894553718444   -8.34903e-04   1.27678e-05 DIIS
   @DF-RHF iter   6:  -309.13898236001432   -3.68228e-05   6.36140e-06 DIIS
   @DF-RHF iter   7:  -309.13898858734990   -6.22734e-06   2.39074e-06 DIIS
   @DF-RHF iter   8:  -309.13899004706735   -1.45972e-06   9.20839e-07 DIIS
   @DF-RHF iter   9:  -309.13899029485276   -2.47785e-07   2.29868e-07 DIIS
   @DF-RHF iter  10:  -309.13899031073288   -1.58801e-08   6.90497e-08 DIIS
   @DF-RHF iter  11:  -309.13899031196559   -1.23271e-09   2.03013e-08 DIIS
   @DF-RHF iter  12:  -309.13899031211474   -1.49157e-10   9.12647e-09 DIIS
  Energy and wave function converged.


  ==> Post-Iterations <==

    Orbital Energies [Eh]
    ---------------------

    Doubly Occupied:                                                      

       1A    -20.554996     2A    -11.333715     3A    -11.236562  
       4A    -11.234381     5A    -11.222223     6A    -11.220882  
       7A    -11.212369     8A     -1.386277     9A     -1.082636  
      10A     -1.019992    11A     -0.989006    12A     -0.856115  
      13A     -0.799339    14A     -0.757333    15A     -0.670785  
      16A     -0.645701    17A     -0.619850    18A     -0.607616  
      19A     -0.604895    20A     -0.583083    21A     -0.558277  
      22A     -0.535924    23A     -0.516893    24A     -0.499802  
      25A     -0.483454    26A     -0.477422    27A     -0.423924  
      28A     -0.361699  

    Virtual:                                                              

      29A      0.044568    30A      0.053004    31A      0.054215  
      32A      0.060180    33A      0.073804    34A      0.079497  
      35A      0.083789    36A      0.088368    37A      0.092469  
      38A      0.107541    39A      0.110177    40A      0.115026  
      41A      0.121103    42A      0.122925    43A      0.130351  
      44A      0.137616    45A      0.145881    46A      0.159921  
      47A      0.161987    48A      0.171787    49A      0.180295  
      50A      0.187070    51A      0.194799    52A      0.203558  
      53A      0.210674    54A      0.225229    55A      0.235013  
      56A      0.249420    57A      0.259916    58A      0.262797  
      59A      0.273647    60A      0.283118    61A      0.288887  
      62A      0.293931    63A      0.297078    64A      0.305830  
      65A      0.311970    66A      0.315588    67A      0.321893  
      68A      0.325215    69A      0.334642    70A      0.343428  
      71A      0.348245    72A      0.350738    73A      0.361568  
      74A      0.364786    75A      0.369122    76A      0.375075  
      77A      0.383446    78A      0.390241    79A      0.403788  
      80A      0.409413    81A      0.414320    82A      0.428010  
      83A      0.433748    84A      0.439276    85A      0.449977  
      86A      0.455548    87A      0.470273    88A      0.471800  
      89A      0.490064    90A      0.493133    91A      0.505647  
      92A      0.510827    93A      0.525311    94A      0.527320  
      95A      0.537632    96A      0.544136    97A      0.553829  
      98A      0.560432    99A      0.568902   100A      0.581216  
     101A      0.591244   102A      0.603179   103A      0.614327  
     104A      0.634683   105A      0.644260   106A      0.661790  
     107A      0.668789   108A      0.683905   109A      0.695219  
     110A      0.700937   111A      0.708842   112A      0.726148  
     113A      0.731640   114A      0.739895   115A      0.750875  
     116A      0.760643   117A      0.771267   118A      0.784635  
     119A      0.796279   120A      0.801810   121A      0.812465  
     122A      0.818042   123A      0.821719   124A      0.827473  
     125A      0.843104   126A      0.845243   127A      0.859701  
     128A      0.876256   129A      0.883431   130A      0.890981  
     131A      0.892894   132A      0.910382   133A      0.920507  
     134A      0.947827   135A      0.950667   136A      0.955711  
     137A      0.965382   138A      0.978419   139A      0.990016  
     140A      1.015105   141A      1.028229   142A      1.037206  
     143A      1.048386   144A      1.056690   145A      1.065622  
     146A      1.080995   147A      1.091119   148A      1.106680  
     149A      1.119088   150A      1.124094   151A      1.126375  
     152A      1.158801   153A      1.176701   154A      1.190381  
     155A      1.207729   156A      1.216883   157A      1.231590  
     158A      1.260022   159A      1.285034   160A      1.289047  
     161A      1.295446   162A      1.321181   163A      1.325918  
     164A      1.340791   165A      1.355746   166A      1.362085  
     167A      1.364639   168A      1.369993   169A      1.386127  
     170A      1.403087   171A      1.419569   172A      1.419908  
     173A      1.437569   174A      1.445832   175A      1.455434  
     176A      1.467042   177A      1.481090   178A      1.504812  
     179A      1.518529   180A      1.525143   181A      1.535815  
     182A      1.545557   183A      1.558866   184A      1.566393  
     185A      1.575074   186A      1.593337   187A      1.604402  
     188A      1.617975   189A      1.626333   190A      1.627975  
     191A      1.647083   192A      1.654890   193A      1.669730  
     194A      1.681671   195A      1.692699   196A      1.711837  
     197A      1.749789   198A      1.761147   199A      1.770695  
     200A      1.788634   201A      1.797321   202A      1.817320  
     203A      1.827034   204A      1.832517   205A      1.857496  
     206A      1.873604   207A      1.893138   208A      1.919773  
     209A      1.937910   210A      1.953947   211A      1.976634  
     212A      2.012723   213A      2.064793   214A      2.129520  
     215A      2.255853   216A      2.332497   217A      2.395274  
     218A      2.415654   219A      2.424423   220A      2.542186  
     221A      2.668006   222A      2.707425   223A      2.718389  
     224A      2.745502   225A      2.757172   226A      2.778417  
     227A      2.799482   228A      2.802016   229A      2.820066  
     230A      2.838067   231A      2.850571   232A      2.876359  
     233A      2.896893   234A      2.912177   235A      2.919696  
     236A      2.953112   237A      2.965090   238A      2.971076  
     239A      2.994255   240A      3.010375   241A      3.014936  
     242A      3.032663   243A      3.049710   244A      3.071324  
     245A      3.076877   246A      3.099759   247A      3.112025  
     248A      3.122272   249A      3.131841   250A      3.144886  
     251A      3.146780   252A      3.160639   253A      3.184021  
     254A      3.193031   255A      3.209819   256A      3.234569  
     257A      3.235973   258A      3.252000   259A      3.259784  
     260A      3.273016   261A      3.293296   262A      3.307312  
     263A      3.317085   264A      3.341897   265A      3.354252  
     266A      3.358390   267A      3.363167   268A      3.381457  
     269A      3.388601   270A      3.401135   271A      3.409216  
     272A      3.422304   273A      3.433660   274A      3.443702  
     275A      3.464598   276A      3.471508   277A      3.477966  
     278A      3.487502   279A      3.504105   280A      3.508883  
     281A      3.516429   282A      3.531223   283A      3.549980  
     284A      3.554745   285A      3.567073   286A      3.584770  
     287A      3.587837   288A      3.606322   289A      3.610497  
     290A      3.616972   291A      3.661436   292A      3.668243  
     293A      3.684402   294A      3.704495   295A      3.712764  
     296A      3.728382   297A      3.747634   298A      3.754643  
     299A      3.779625   300A      3.780126   301A      3.798403  
     302A      3.814555   303A      3.825228   304A      3.832346  
     305A      3.849568   306A      3.856056   307A      3.886457  
     308A      3.893930   309A      3.894905   310A      3.907046  
     311A      3.939967   312A      3.955569   313A      3.978305  
     314A      3.989747   315A      4.015716   316A      4.037785  
     317A      4.056198   318A      4.079248   319A      4.101432  
     320A      4.118323   321A      4.132569   322A      4.181433  
     323A      4.184783   324A      4.192732   325A      4.211069  
     326A      4.229749   327A      4.244960   328A      4.264325  
     329A      4.276387   330A      4.296305   331A      4.310551  
     332A      4.323465   333A      4.331007   334A      4.344535  
     335A      4.357037   336A      4.371956   337A      4.377179  
     338A      4.391901   339A      4.403520   340A      4.422535  
     341A      4.429311   342A      4.438134   343A      4.447722  
     344A      4.459983   345A      4.464215   346A      4.471460  
     347A      4.478647   348A      4.512966   349A      4.539740  
     350A      4.541292   351A      4.548461   352A      4.565742  
     353A      4.594453   354A      4.625842   355A      4.639997  
     356A      4.656097   357A      4.680087   358A      4.696924  
     359A      4.725002   360A      4.742853   361A      4.783839  
     362A      4.790215   363A      4.798968   364A      4.824331  
     365A      4.836753   366A      4.870320   367A      4.888708  
     368A      4.907985   369A      4.936055   370A      4.960757  
     371A      4.982224   372A      4.998650   373A      5.035619  
     374A      5.059769   375A      5.071775   376A      5.109837  
     377A      5.172349   378A      5.187025   379A      5.200993  
     380A      5.229827   381A      5.238622   382A      5.251896  
     383A      5.262773   384A      5.287462   385A      5.302390  
     386A      5.318379   387A      5.354799   388A      5.364051  
     389A      5.403612   390A      5.417341   391A      5.431920  
     392A      5.468879   393A      5.477613   394A      5.510065  
     395A      5.553712   396A      5.578987   397A      5.591682  
     398A      5.621928   399A      5.647709   400A      5.673282  
     401A      5.688816   402A      5.713308   403A      5.718891  
     404A      5.724073   405A      5.749641   406A      5.762154  
     407A      5.785988   408A      5.818848   409A      5.828381  
     410A      5.884993   411A      5.919874   412A      5.926492  
     413A      5.950014   414A      6.022706   415A      6.092161  
     416A      6.127208   417A      6.202818   418A      6.322711  
     419A      6.398932   420A      6.445507   421A      6.455225  
     422A      6.485915   423A      6.499715   424A      6.511420  
     425A      6.600222   426A      6.711619   427A      6.794591  
     428A      6.946466   429A      7.236930   430A      7.268230  
     431A      7.307698   432A      7.446003   433A      7.610426  
     434A      7.714567   435A     12.334026   436A     12.599042  
     437A     14.105369   438A     14.161016   439A     14.490043  
     440A     14.695384   441A     15.335162  

    Final Occupation by Irrep:
              A 
    DOCC [    28 ]

  @DF-RHF Final Energy:  -309.13899031211474

   => Energetics <=

    Nuclear Repulsion Energy =            289.5972324419813617
    One-Electron Energy =                -992.4821471353965308
    Two-Electron Energy =                 393.7459243813003695
    Total Energy =                       -309.1389903121147427

Computation Completed


Properties will be evaluated at   0.000000,   0.000000,   0.000000 [a0]

Properties computed using the SCF density matrix

  Nuclear Dipole Moment: [e a0]
     X:     4.6642      Y:     2.2501      Z:     3.6864

  Electronic Dipole Moment: [e a0]
     X:    -4.9004      Y:    -1.3914      Z:    -3.0815

  Dipole Moment: [e a0]
     X:    -0.2362      Y:     0.8587      Z:     0.6048     Total:     1.0766

  Dipole Moment: [D]
     X:    -0.6003      Y:     2.1827      Z:     1.5374     Total:     2.7364


*** tstop() called on r282 at Fri Sep 10 14:07:00 2021
Module time:
	user time   =      41.74 seconds =       0.70 minutes
	system time =       1.01 seconds =       0.02 minutes
	total time  =         43 seconds =       0.72 minutes
Total time:
	user time   =      41.74 seconds =       0.70 minutes
	system time =       1.01 seconds =       0.02 minutes
	total time  =         43 seconds =       0.72 minutes

  //>>>>>>>>>>>>>>>>>>>>>>>>>>>>>>>>>>>//
  //            Monomer A HF           //
  //<<<<<<<<<<<<<<<<<<<<<<<<<<<<<<<<<<<//


*** tstart() called on r282
*** at Fri Sep 10 14:07:00 2021

   => Loading Basis Set <=

    Name: JUN-CC-PVTZ
    Role: ORBITAL
    Keyword: BASIS
    atoms 1, 5-7, 12-19 entry H          line    36 file /home/r08543048/miniconda3/share/psi4/basis/jun-cc-pvtz.gbs 
    atoms 2-3, 8-11     entry C          line   217 file /home/r08543048/miniconda3/share/psi4/basis/jun-cc-pvtz.gbs 
    atoms 4             entry O          line   305 file /home/r08543048/miniconda3/share/psi4/basis/jun-cc-pvtz.gbs 


         ---------------------------------------------------------
                                   SCF
               by Justin Turney, Rob Parrish, Andy Simmonett
                          and Daniel G. A. Smith
                              RHF Reference
                        1 Threads,  20980 MiB Core
         ---------------------------------------------------------

  ==> Geometry <==

    Molecular point group: c1
    Full point group: C1

    Geometry (in Angstrom), charge = 0, multiplicity = 1:

       Center              X                  Y                   Z               Mass       
    ------------   -----------------  -----------------  -----------------  -----------------
         H           -2.257995079223     0.732356668049    -1.063068547959     1.007825032230
         C           -2.194251079223     0.222238668049     1.086583452041    12.000000000000
         C           -2.051441079223    -0.100519331951    -0.367776547959    12.000000000000
         O           -1.730719079223    -1.191213331951    -0.801075547959    15.994914619570
         H           -1.984388079223    -0.651524331951     1.697104452041     1.007825032230
         H           -1.506831079223     1.032874668049     1.333940452041     1.007825032230
         H           -3.205750079223     0.583552668049     1.279438452041     1.007825032230
      Gh(C)           0.943529920777     1.993823668049    -0.217837547959    12.000000000000
      Gh(C)           1.076302920777     0.691590668049    -0.489964547959    12.000000000000
      Gh(C)           1.394095920777    -0.363260331951     0.519726452041    12.000000000000
      Gh(C)           2.720054920777    -1.058188331951     0.206434452041    12.000000000000
      Gh(H)           0.732459920777     2.714887668049    -0.995525547959     1.007825032230
      Gh(H)           1.053280920777     2.365145668049     0.794141452041     1.007825032230
      Gh(H)           0.965463920777     0.354985668049    -1.517207547959     1.007825032230
      Gh(H)           1.430063920777     0.084216668049     1.515598452041     1.007825032230
      Gh(H)           0.594539920777    -1.109166331951     0.520877452041     1.007825032230
      Gh(H)           2.691266920777    -1.509580331951    -0.785482547959     1.007825032230
      Gh(H)           3.543295920777    -0.344661331951     0.227969452041     1.007825032230
      Gh(H)           2.928796920777    -1.846781331951     0.928558452041     1.007825032230

  Running in c1 symmetry.

  Rotational constants: A =      0.10351  B =      0.04241  C =      0.03641 [cm^-1]
  Rotational constants: A =   3103.09256  B =   1271.53347  C =   1091.67398 [MHz]
  Nuclear repulsion =   69.675528340562721

  Charge       = 0
  Multiplicity = 1
  Electrons    = 24
  Nalpha       = 12
  Nbeta        = 12

  ==> Algorithm <==

  SCF Algorithm Type is DF.
  DIIS enabled.
  MOM disabled.
  Fractional occupation disabled.
  Guess Type is SAD.
  Energy threshold   = 1.00e-08
  Density threshold  = 1.00e-08
  Integral threshold = 0.00e+00

  ==> Primary Basis <==

  Basis Set: JUN-CC-PVTZ
    Blend: JUN-CC-PVTZ
    Number of shells: 163
    Number of basis function: 441
    Number of Cartesian functions: 495
    Spherical Harmonics?: true
    Max angular momentum: 3

   => Loading Basis Set <=

    Name: (JUN-CC-PVTZ AUX)
    Role: JKFIT
    Keyword: DF_BASIS_SCF
    atoms 1, 5-7, 12-19 entry H          line    70 file /home/r08543048/miniconda3/share/psi4/basis/jun-cc-pvtz-jkfit.gbs 
    atoms 2-3, 8-11     entry C          line   152 file /home/r08543048/miniconda3/share/psi4/basis/jun-cc-pvtz-jkfit.gbs 
    atoms 4             entry O          line   272 file /home/r08543048/miniconda3/share/psi4/basis/jun-cc-pvtz-jkfit.gbs 

  ==> Pre-Iterations <==

   -------------------------------------------------------
    Irrep   Nso     Nmo     Nalpha   Nbeta   Ndocc  Nsocc
   -------------------------------------------------------
     A        441     441       0       0       0       0
   -------------------------------------------------------
    Total     441     441      12      12      12       0
   -------------------------------------------------------

  ==> Integral Setup <==

  ==> DiskDFJK: Density-Fitted J/K Matrices <==

    J tasked:                  Yes
    K tasked:                  Yes
    wK tasked:                  No
    OpenMP threads:              1
    Integrals threads:           1
    Memory [MiB]:            15735
    Algorithm:                Core
    Integral Cache:           LOAD
    Schwarz Cutoff:          1E-12
    Fitting Condition:       1E-10

   => Auxiliary Basis Set <=

  Basis Set: (JUN-CC-PVTZ AUX)
    Blend: JUN-CC-PVTZ-JKFIT
    Number of shells: 323
    Number of basis function: 1025
    Number of Cartesian functions: 1232
    Spherical Harmonics?: true
    Max angular momentum: 4

  Minimum eigenvalue in the overlap matrix is 3.2375422904E-05.
  Using Symmetric Orthogonalization.

  SCF Guess: Superposition of Atomic Densities via on-the-fly atomic UHF.

  ==> Iterations <==

                           Total Energy        Delta E     RMS |[F,P]|

   @DF-RHF iter SAD:  -152.12046174241985   -1.52120e+02   0.00000e+00 
   @DF-RHF iter   1:  -152.85572246293194   -7.35261e-01   1.10856e-03 DIIS
   @DF-RHF iter   2:  -152.93602437067949   -8.03019e-02   7.57145e-04 DIIS
   @DF-RHF iter   3:  -152.97320277499310   -3.71784e-02   1.27508e-04 DIIS
   @DF-RHF iter   4:  -152.97531818557854   -2.11541e-03   4.92330e-05 DIIS
   @DF-RHF iter   5:  -152.97571287787201   -3.94692e-04   9.80638e-06 DIIS
   @DF-RHF iter   6:  -152.97574187270692   -2.89948e-05   3.91143e-06 DIIS
   @DF-RHF iter   7:  -152.97574577049824   -3.89779e-06   1.51485e-06 DIIS
   @DF-RHF iter   8:  -152.97574639215907   -6.21661e-07   3.50788e-07 DIIS
   @DF-RHF iter   9:  -152.97574642757374   -3.54147e-08   9.43885e-08 DIIS
   @DF-RHF iter  10:  -152.97574642975727   -2.18353e-09   2.00260e-08 DIIS
   @DF-RHF iter  11:  -152.97574642984881   -9.15463e-11   3.67133e-09 DIIS
  Energy and wave function converged.


  ==> Post-Iterations <==

    Orbital Energies [Eh]
    ---------------------

    Doubly Occupied:                                                      

       1A    -20.560199     2A    -11.337540     3A    -11.242733  
       4A     -1.389594     5A     -1.025408     6A     -0.803955  
       7A     -0.674847     8A     -0.623845     9A     -0.607347  
      10A     -0.563125    11A     -0.502553    12A     -0.428285  

    Virtual:                                                              

      13A      0.029245    14A      0.043354    15A      0.047205  
      16A      0.057027    17A      0.069738    18A      0.073212  
      19A      0.078785    20A      0.085781    21A      0.088340  
      22A      0.098798    23A      0.104838    24A      0.110822  
      25A      0.119697    26A      0.122486    27A      0.126697  
      28A      0.129922    29A      0.135027    30A      0.148976  
      31A      0.152341    32A      0.156143    33A      0.163074  
      34A      0.172980    35A      0.181473    36A      0.190846  
      37A      0.197808    38A      0.220068    39A      0.241688  
      40A      0.247689    41A      0.249004    42A      0.257775  
      43A      0.267108    44A      0.274937    45A      0.281925  
      46A      0.283212    47A      0.297353    48A      0.303035  
      49A      0.315494    50A      0.322813    51A      0.325508  
      52A      0.330074    53A      0.336256    54A      0.340276  
      55A      0.349791    56A      0.358703    57A      0.364145  
      58A      0.371083    59A      0.381984    60A      0.384571  
      61A      0.389069    62A      0.397393    63A      0.399620  
      64A      0.409916    65A      0.422010    66A      0.428692  
      67A      0.439819    68A      0.446516    69A      0.451154  
      70A      0.458232    71A      0.468441    72A      0.484688  
      73A      0.496064    74A      0.504340    75A      0.513166  
      76A      0.515066    77A      0.529635    78A      0.532747  
      79A      0.544638    80A      0.557743    81A      0.568152  
      82A      0.574768    83A      0.585821    84A      0.586655  
      85A      0.591517    86A      0.605062    87A      0.615481  
      88A      0.619796    89A      0.631780    90A      0.639364  
      91A      0.650616    92A      0.662445    93A      0.679548  
      94A      0.685664    95A      0.694402    96A      0.708044  
      97A      0.711572    98A      0.731707    99A      0.738886  
     100A      0.751725   101A      0.755182   102A      0.770444  
     103A      0.783377   104A      0.803238   105A      0.811310  
     106A      0.815906   107A      0.823253   108A      0.829228  
     109A      0.857321   110A      0.883497   111A      0.888347  
     112A      0.905971   113A      0.930354   114A      0.938845  
     115A      0.946402   116A      0.990102   117A      1.003971  
     118A      1.041716   119A      1.059999   120A      1.075430  
     121A      1.079415   122A      1.100317   123A      1.105593  
     124A      1.120045   125A      1.132095   126A      1.133990  
     127A      1.146037   128A      1.164417   129A      1.185312  
     130A      1.195815   131A      1.197830   132A      1.215839  
     133A      1.225066   134A      1.239202   135A      1.247436  
     136A      1.265869   137A      1.271274   138A      1.286075  
     139A      1.292662   140A      1.296616   141A      1.308851  
     142A      1.327282   143A      1.333271   144A      1.343610  
     145A      1.346951   146A      1.354786   147A      1.372910  
     148A      1.379269   149A      1.395194   150A      1.405128  
     151A      1.412786   152A      1.416202   153A      1.429357  
     154A      1.445168   155A      1.458770   156A      1.463909  
     157A      1.470229   158A      1.472644   159A      1.497787  
     160A      1.500530   161A      1.515773   162A      1.528200  
     163A      1.534568   164A      1.539656   165A      1.545766  
     166A      1.559729   167A      1.578638   168A      1.590877  
     169A      1.598564   170A      1.603281   171A      1.616454  
     172A      1.618234   173A      1.637979   174A      1.649842  
     175A      1.656377   176A      1.666845   177A      1.691180  
     178A      1.715433   179A      1.719367   180A      1.733906  
     181A      1.766203   182A      1.775803   183A      1.791377  
     184A      1.795882   185A      1.812033   186A      1.831710  
     187A      1.857029   188A      1.902116   189A      1.922046  
     190A      1.950947   191A      1.962063   192A      1.975297  
     193A      1.998144   194A      2.014515   195A      2.074500  
     196A      2.098544   197A      2.138328   198A      2.158559  
     199A      2.202835   200A      2.232469   201A      2.273694  
     202A      2.341926   203A      2.363120   204A      2.383487  
     205A      2.396040   206A      2.409707   207A      2.417064  
     208A      2.445832   209A      2.477722   210A      2.515270  
     211A      2.526319   212A      2.554529   213A      2.582963  
     214A      2.617802   215A      2.702340   216A      2.725146  
     217A      2.737469   218A      2.776485   219A      2.835083  
     220A      2.883995   221A      2.919442   222A      2.961811  
     223A      2.980913   224A      3.034912   225A      3.056562  
     226A      3.073513   227A      3.125341   228A      3.186369  
     229A      3.198912   230A      3.241447   231A      3.274848  
     232A      3.332674   233A      3.344219   234A      3.376237  
     235A      3.401729   236A      3.431025   237A      3.454576  
     238A      3.479941   239A      3.491476   240A      3.508714  
     241A      3.523541   242A      3.539892   243A      3.564665  
     244A      3.578233   245A      3.591186   246A      3.595349  
     247A      3.611537   248A      3.615118   249A      3.638520  
     250A      3.653513   251A      3.656206   252A      3.665885  
     253A      3.677554   254A      3.698794   255A      3.719606  
     256A      3.745443   257A      3.770007   258A      3.775840  
     259A      3.778647   260A      3.792444   261A      3.804221  
     262A      3.818175   263A      3.823256   264A      3.836748  
     265A      3.842741   266A      3.850613   267A      3.878636  
     268A      3.891381   269A      3.901606   270A      3.907386  
     271A      3.949978   272A      3.959628   273A      3.964384  
     274A      3.991096   275A      4.018816   276A      4.039303  
     277A      4.047625   278A      4.079277   279A      4.084671  
     280A      4.099481   281A      4.128306   282A      4.136459  
     283A      4.160057   284A      4.175964   285A      4.182272  
     286A      4.191171   287A      4.208042   288A      4.231025  
     289A      4.239989   290A      4.269438   291A      4.281384  
     292A      4.292319   293A      4.302743   294A      4.331625  
     295A      4.347942   296A      4.366823   297A      4.374750  
     298A      4.397910   299A      4.418121   300A      4.437609  
     301A      4.449417   302A      4.462237   303A      4.467827  
     304A      4.487070   305A      4.500719   306A      4.511316  
     307A      4.537985   308A      4.546196   309A      4.556127  
     310A      4.558491   311A      4.562916   312A      4.581640  
     313A      4.610894   314A      4.624295   315A      4.637617  
     316A      4.640274   317A      4.680318   318A      4.685125  
     319A      4.701088   320A      4.718435   321A      4.727330  
     322A      4.731981   323A      4.740180   324A      4.764768  
     325A      4.788826   326A      4.794491   327A      4.803345  
     328A      4.810491   329A      4.812174   330A      4.821121  
     331A      4.834599   332A      4.846036   333A      4.863101  
     334A      4.870386   335A      4.873302   336A      4.893590  
     337A      4.903047   338A      4.922170   339A      4.926555  
     340A      4.946587   341A      4.972335   342A      4.994535  
     343A      5.015673   344A      5.025541   345A      5.042688  
     346A      5.048243   347A      5.055995   348A      5.061122  
     349A      5.101032   350A      5.112970   351A      5.141336  
     352A      5.161447   353A      5.167482   354A      5.178112  
     355A      5.212384   356A      5.245512   357A      5.263449  
     358A      5.281512   359A      5.328954   360A      5.355947  
     361A      5.359891   362A      5.384152   363A      5.433871  
     364A      5.460661   365A      5.472222   366A      5.487747  
     367A      5.494147   368A      5.550607   369A      5.576295  
     370A      5.594352   371A      5.616145   372A      5.644753  
     373A      5.667759   374A      5.685677   375A      5.705989  
     376A      5.716444   377A      5.718776   378A      5.737916  
     379A      5.808461   380A      5.834902   381A      5.841025  
     382A      5.880767   383A      5.896439   384A      5.969134  
     385A      6.033338   386A      6.055474   387A      6.062058  
     388A      6.097648   389A      6.124045   390A      6.152707  
     391A      6.199102   392A      6.281330   393A      6.315664  
     394A      6.335271   395A      6.351978   396A      6.377269  
     397A      6.392694   398A      6.441856   399A      6.446771  
     400A      6.477170   401A      6.505729   402A      6.652305  
     403A      6.740112   404A      6.785402   405A      6.793479  
     406A      6.860425   407A      6.944371   408A      6.958923  
     409A      7.105610   410A      7.234301   411A      7.264424  
     412A      7.302730   413A      7.381170   414A      7.411080  
     415A      7.443429   416A      7.485597   417A      7.576994  
     418A      7.602729   419A      7.612273   420A      7.683537  
     421A      7.705938   422A      7.713880   423A      7.844558  
     424A      7.892314   425A      7.977937   426A      7.983782  
     427A      8.129847   428A      8.282990   429A      8.463801  
     430A      8.804322   431A      9.440308   432A      9.706574  
     433A      9.888958   434A     10.208500   435A     12.465803  
     436A     14.144001   437A     14.681262   438A     41.345382  
     439A     44.863949   440A     45.565234   441A     47.175544  

    Final Occupation by Irrep:
              A 
    DOCC [    12 ]

  @DF-RHF Final Energy:  -152.97574642984881

   => Energetics <=

    Nuclear Repulsion Energy =             69.6755283405627210
    One-Electron Energy =                -345.7836895625457601
    Two-Electron Energy =                 123.1324147921342131
    Total Energy =                       -152.9757464298488117

Computation Completed


Properties will be evaluated at   0.000000,   0.000000,   0.000000 [a0]

Properties computed using the SCF density matrix

  Nuclear Dipole Moment: [e a0]
     X:   -91.2263      Y:   -13.4211      Z:     2.1763

  Electronic Dipole Moment: [e a0]
     X:    90.8978      Y:    14.5128      Z:    -1.5431

  Dipole Moment: [e a0]
     X:    -0.3285      Y:     1.0917      Z:     0.6332     Total:     1.3041

  Dipole Moment: [D]
     X:    -0.8349      Y:     2.7749      Z:     1.6095     Total:     3.3147


*** tstop() called on r282 at Fri Sep 10 14:07:22 2021
Module time:
	user time   =      21.79 seconds =       0.36 minutes
	system time =       0.46 seconds =       0.01 minutes
	total time  =         22 seconds =       0.37 minutes
Total time:
	user time   =      63.53 seconds =       1.06 minutes
	system time =       1.47 seconds =       0.02 minutes
	total time  =         65 seconds =       1.08 minutes

  //>>>>>>>>>>>>>>>>>>>>>>>>>>>>>>>>>>>//
  //            Monomer B HF           //
  //<<<<<<<<<<<<<<<<<<<<<<<<<<<<<<<<<<<//


*** tstart() called on r282
*** at Fri Sep 10 14:07:22 2021

   => Loading Basis Set <=

    Name: JUN-CC-PVTZ
    Role: ORBITAL
    Keyword: BASIS
    atoms 1, 5-7, 12-19 entry H          line    36 file /home/r08543048/miniconda3/share/psi4/basis/jun-cc-pvtz.gbs 
    atoms 2-3, 8-11     entry C          line   217 file /home/r08543048/miniconda3/share/psi4/basis/jun-cc-pvtz.gbs 
    atoms 4             entry O          line   305 file /home/r08543048/miniconda3/share/psi4/basis/jun-cc-pvtz.gbs 


         ---------------------------------------------------------
                                   SCF
               by Justin Turney, Rob Parrish, Andy Simmonett
                          and Daniel G. A. Smith
                              RHF Reference
                        1 Threads,  20980 MiB Core
         ---------------------------------------------------------

  ==> Geometry <==

    Molecular point group: c1
    Full point group: C1

    Geometry (in Angstrom), charge = 0, multiplicity = 1:

       Center              X                  Y                   Z               Mass       
    ------------   -----------------  -----------------  -----------------  -----------------
      Gh(H)          -2.257995079223     0.732356668049    -1.063068547959     1.007825032230
      Gh(C)          -2.194251079223     0.222238668049     1.086583452041    12.000000000000
      Gh(C)          -2.051441079223    -0.100519331951    -0.367776547959    12.000000000000
      Gh(O)          -1.730719079223    -1.191213331951    -0.801075547959    15.994914619570
      Gh(H)          -1.984388079223    -0.651524331951     1.697104452041     1.007825032230
      Gh(H)          -1.506831079223     1.032874668049     1.333940452041     1.007825032230
      Gh(H)          -3.205750079223     0.583552668049     1.279438452041     1.007825032230
         C            0.943529920777     1.993823668049    -0.217837547959    12.000000000000
         C            1.076302920777     0.691590668049    -0.489964547959    12.000000000000
         C            1.394095920777    -0.363260331951     0.519726452041    12.000000000000
         C            2.720054920777    -1.058188331951     0.206434452041    12.000000000000
         H            0.732459920777     2.714887668049    -0.995525547959     1.007825032230
         H            1.053280920777     2.365145668049     0.794141452041     1.007825032230
         H            0.965463920777     0.354985668049    -1.517207547959     1.007825032230
         H            1.430063920777     0.084216668049     1.515598452041     1.007825032230
         H            0.594539920777    -1.109166331951     0.520877452041     1.007825032230
         H            2.691266920777    -1.509580331951    -0.785482547959     1.007825032230
         H            3.543295920777    -0.344661331951     0.227969452041     1.007825032230
         H            2.928796920777    -1.846781331951     0.928558452041     1.007825032230

  Running in c1 symmetry.

  Rotational constants: A =      0.10351  B =      0.04241  C =      0.03641 [cm^-1]
  Rotational constants: A =   3103.09256  B =   1271.53347  C =   1091.67398 [MHz]
  Nuclear repulsion =  117.502874613538552

  Charge       = 0
  Multiplicity = 1
  Electrons    = 32
  Nalpha       = 16
  Nbeta        = 16

  ==> Algorithm <==

  SCF Algorithm Type is DF.
  DIIS enabled.
  MOM disabled.
  Fractional occupation disabled.
  Guess Type is SAD.
  Energy threshold   = 1.00e-08
  Density threshold  = 1.00e-08
  Integral threshold = 0.00e+00

  ==> Primary Basis <==

  Basis Set: JUN-CC-PVTZ
    Blend: JUN-CC-PVTZ
    Number of shells: 163
    Number of basis function: 441
    Number of Cartesian functions: 495
    Spherical Harmonics?: true
    Max angular momentum: 3

   => Loading Basis Set <=

    Name: (JUN-CC-PVTZ AUX)
    Role: JKFIT
    Keyword: DF_BASIS_SCF
    atoms 1, 5-7, 12-19 entry H          line    70 file /home/r08543048/miniconda3/share/psi4/basis/jun-cc-pvtz-jkfit.gbs 
    atoms 2-3, 8-11     entry C          line   152 file /home/r08543048/miniconda3/share/psi4/basis/jun-cc-pvtz-jkfit.gbs 
    atoms 4             entry O          line   272 file /home/r08543048/miniconda3/share/psi4/basis/jun-cc-pvtz-jkfit.gbs 

  ==> Pre-Iterations <==

   -------------------------------------------------------
    Irrep   Nso     Nmo     Nalpha   Nbeta   Ndocc  Nsocc
   -------------------------------------------------------
     A        441     441       0       0       0       0
   -------------------------------------------------------
    Total     441     441      16      16      16       0
   -------------------------------------------------------

  ==> Integral Setup <==

  ==> DiskDFJK: Density-Fitted J/K Matrices <==

    J tasked:                  Yes
    K tasked:                  Yes
    wK tasked:                  No
    OpenMP threads:              1
    Integrals threads:           1
    Memory [MiB]:            15735
    Algorithm:                Core
    Integral Cache:           LOAD
    Schwarz Cutoff:          1E-12
    Fitting Condition:       1E-10

   => Auxiliary Basis Set <=

  Basis Set: (JUN-CC-PVTZ AUX)
    Blend: JUN-CC-PVTZ-JKFIT
    Number of shells: 323
    Number of basis function: 1025
    Number of Cartesian functions: 1232
    Spherical Harmonics?: true
    Max angular momentum: 4

  Minimum eigenvalue in the overlap matrix is 3.2375422904E-05.
  Using Symmetric Orthogonalization.

  SCF Guess: Superposition of Atomic Densities via on-the-fly atomic UHF.

  ==> Iterations <==

                           Total Energy        Delta E     RMS |[F,P]|

   @DF-RHF iter SAD:  -155.38461953000356   -1.55385e+02   0.00000e+00 
   @DF-RHF iter   1:  -155.99465618450779   -6.10037e-01   1.18573e-03 DIIS
   @DF-RHF iter   2:  -156.13439995620431   -1.39744e-01   5.25505e-04 DIIS
   @DF-RHF iter   3:  -156.16239555905469   -2.79956e-02   1.01370e-04 DIIS
   @DF-RHF iter   4:  -156.16423671582731   -1.84116e-03   3.74861e-05 DIIS
   @DF-RHF iter   5:  -156.16440413848608   -1.67423e-04   7.01111e-06 DIIS
   @DF-RHF iter   6:  -156.16441296739106   -8.82890e-06   1.28153e-06 DIIS
   @DF-RHF iter   7:  -156.16441332039395   -3.53003e-07   3.41579e-07 DIIS
   @DF-RHF iter   8:  -156.16441334596135   -2.55674e-08   1.00520e-07 DIIS
   @DF-RHF iter   9:  -156.16441334843378   -2.47243e-09   4.27533e-08 DIIS
   @DF-RHF iter  10:  -156.16441334893074   -4.96954e-10   1.37482e-08 DIIS
   @DF-RHF iter  11:  -156.16441334898539   -5.46549e-11   3.50100e-09 DIIS
  Energy and wave function converged.


  ==> Post-Iterations <==

    Orbital Energies [Eh]
    ---------------------

    Doubly Occupied:                                                      

       1A    -11.231291     2A    -11.224849     3A    -11.217681  
       4A    -11.214523     5A     -1.081216     6A     -0.987924  
       7A     -0.856183     8A     -0.755406     9A     -0.643923  
      10A     -0.606670    11A     -0.585085    12A     -0.535465  
      13A     -0.517616    14A     -0.487209    15A     -0.476816  
      16A     -0.357002  

    Virtual:                                                              

      17A      0.038650    18A      0.049653    19A      0.051940  
      20A      0.055897    21A      0.070876    22A      0.076636  
      23A      0.084329    24A      0.085587    25A      0.091900  
      26A      0.108043    27A      0.111394    28A      0.111641  
      29A      0.117241    30A      0.124087    31A      0.127610  
      32A      0.132755    33A      0.147234    34A      0.155753  
      35A      0.159079    36A      0.170812    37A      0.176947  
      38A      0.183697    39A      0.191403    40A      0.197891  
      41A      0.209797    42A      0.222995    43A      0.226435  
      44A      0.245119    45A      0.255906    46A      0.257976  
      47A      0.261428    48A      0.281443    49A      0.287438  
      50A      0.292608    51A      0.297187    52A      0.309355  
      53A      0.312263    54A      0.321046    55A      0.330019  
      56A      0.338049    57A      0.344128    58A      0.348638  
      59A      0.354982    60A      0.358631    61A      0.367745  
      62A      0.372160    63A      0.379474    64A      0.386004  
      65A      0.392528    66A      0.396660    67A      0.404924  
      68A      0.419151    69A      0.423491    70A      0.440456  
      71A      0.445769    72A      0.449698    73A      0.450727  
      74A      0.462281    75A      0.467558    76A      0.486767  
      77A      0.489735    78A      0.502994    79A      0.514606  
      80A      0.519722    81A      0.530367    82A      0.532385  
      83A      0.537240    84A      0.538967    85A      0.551327  
      86A      0.558597    87A      0.563355    88A      0.578999  
      89A      0.586633    90A      0.598919    91A      0.606202  
      92A      0.625941    93A      0.632083    94A      0.639807  
      95A      0.659359    96A      0.662165    97A      0.680039  
      98A      0.693069    99A      0.706065   100A      0.728063  
     101A      0.729529   102A      0.753121   103A      0.758649  
     104A      0.765776   105A      0.789686   106A      0.797966  
     107A      0.809404   108A      0.815434   109A      0.829500  
     110A      0.840145   111A      0.845352   112A      0.852693  
     113A      0.866613   114A      0.871703   115A      0.888494  
     116A      0.906718   117A      0.907321   118A      0.915391  
     119A      0.936936   120A      0.956223   121A      0.971084  
     122A      0.984185   123A      1.001321   124A      1.004030  
     125A      1.019904   126A      1.030066   127A      1.047651  
     128A      1.056465   129A      1.065203   130A      1.077766  
     131A      1.090896   132A      1.103846   133A      1.119218  
     134A      1.120223   135A      1.139909   136A      1.142586  
     137A      1.162076   138A      1.183088   139A      1.184124  
     140A      1.200987   141A      1.218055   142A      1.233911  
     143A      1.241293   144A      1.257163   145A      1.270567  
     146A      1.280902   147A      1.295463   148A      1.304610  
     149A      1.313269   150A      1.331453   151A      1.343434  
     152A      1.344444   153A      1.366210   154A      1.376410  
     155A      1.377802   156A      1.390148   157A      1.400937  
     158A      1.427944   159A      1.441118   160A      1.447386  
     161A      1.454566   162A      1.461445   163A      1.491744  
     164A      1.495344   165A      1.512566   166A      1.524252  
     167A      1.534928   168A      1.547504   169A      1.558273  
     170A      1.564826   171A      1.579672   172A      1.591741  
     173A      1.597238   174A      1.613988   175A      1.630772  
     176A      1.631840   177A      1.641518   178A      1.672077  
     179A      1.678357   180A      1.686142   181A      1.706549  
     182A      1.726173   183A      1.738891   184A      1.751819  
     185A      1.771865   186A      1.796706   187A      1.804857  
     188A      1.811233   189A      1.833686   190A      1.854650  
     191A      1.873373   192A      1.896132   193A      1.919394  
     194A      1.932333   195A      1.945381   196A      1.961826  
     197A      2.001588   198A      2.041125   199A      2.043360  
     200A      2.077083   201A      2.095908   202A      2.118645  
     203A      2.145066   204A      2.235564   205A      2.261309  
     206A      2.381816   207A      2.389171   208A      2.504124  
     209A      2.554220   210A      2.623780   211A      2.714304  
     212A      2.727055   213A      2.756883   214A      2.773885  
     215A      2.781699   216A      2.816064   217A      2.828634  
     218A      2.841709   219A      2.856382   220A      2.874180  
     221A      2.887727   222A      2.911821   223A      2.921026  
     224A      2.962068   225A      2.963434   226A      3.001954  
     227A      3.002780   228A      3.020633   229A      3.027098  
     230A      3.053976   231A      3.104640   232A      3.110727  
     233A      3.112597   234A      3.138988   235A      3.144889  
     236A      3.161596   237A      3.181462   238A      3.204683  
     239A      3.213611   240A      3.241466   241A      3.244321  
     242A      3.259576   243A      3.280303   244A      3.297734  
     245A      3.315965   246A      3.337690   247A      3.360780  
     248A      3.383800   249A      3.389954   250A      3.405036  
     251A      3.418429   252A      3.439848   253A      3.455015  
     254A      3.469089   255A      3.482929   256A      3.499841  
     257A      3.513417   258A      3.519122   259A      3.520983  
     260A      3.551943   261A      3.558424   262A      3.563214  
     263A      3.578317   264A      3.588650   265A      3.608734  
     266A      3.618986   267A      3.642165   268A      3.651691  
     269A      3.665597   270A      3.685639   271A      3.704046  
     272A      3.736305   273A      3.744047   274A      3.764346  
     275A      3.777562   276A      3.800096   277A      3.819128  
     278A      3.829915   279A      3.842161   280A      3.851611  
     281A      3.858049   282A      3.878688   283A      3.886525  
     284A      3.895388   285A      3.902271   286A      3.921002  
     287A      3.944567   288A      3.968849   289A      3.990998  
     290A      4.004936   291A      4.027535   292A      4.041055  
     293A      4.049464   294A      4.058696   295A      4.078854  
     296A      4.111553   297A      4.119538   298A      4.178392  
     299A      4.186382   300A      4.198356   301A      4.200615  
     302A      4.231380   303A      4.250242   304A      4.270364  
     305A      4.299195   306A      4.308532   307A      4.314986  
     308A      4.326092   309A      4.340352   310A      4.359196  
     311A      4.370502   312A      4.383792   313A      4.386382  
     314A      4.402016   315A      4.420675   316A      4.429106  
     317A      4.433489   318A      4.449280   319A      4.453734  
     320A      4.455478   321A      4.475849   322A      4.486124  
     323A      4.515077   324A      4.523609   325A      4.546316  
     326A      4.554412   327A      4.572839   328A      4.588231  
     329A      4.599068   330A      4.622166   331A      4.628534  
     332A      4.657319   333A      4.670747   334A      4.683842  
     335A      4.714089   336A      4.733095   337A      4.750998  
     338A      4.758677   339A      4.761721   340A      4.775137  
     341A      4.782343   342A      4.805276   343A      4.815596  
     344A      4.823949   345A      4.843058   346A      4.856526  
     347A      4.869861   348A      4.905520   349A      4.911026  
     350A      4.936659   351A      4.945734   352A      4.948891  
     353A      4.965043   354A      4.976932   355A      5.008932  
     356A      5.014007   357A      5.040574   358A      5.065398  
     359A      5.085143   360A      5.113748   361A      5.135212  
     362A      5.150933   363A      5.202935   364A      5.231734  
     365A      5.238034   366A      5.247998   367A      5.257404  
     368A      5.291962   369A      5.302935   370A      5.316515  
     371A      5.368402   372A      5.390701   373A      5.406386  
     374A      5.422755   375A      5.434447   376A      5.511484  
     377A      5.580239   378A      5.618223   379A      5.625161  
     380A      5.649278   381A      5.673272   382A      5.719424  
     383A      5.746874   384A      5.758959   385A      5.772457  
     386A      5.784956   387A      5.810183   388A      5.828920  
     389A      5.918143   390A      5.922235   391A      5.949399  
     392A      6.021100   393A      6.067685   394A      6.111238  
     395A      6.123353   396A      6.176742   397A      6.211474  
     398A      6.277306   399A      6.290821   400A      6.330077  
     401A      6.409085   402A      6.478637   403A      6.488491  
     404A      6.497277   405A      6.504370   406A      6.515337  
     407A      6.599728   408A      6.609246   409A      6.709965  
     410A      6.716445   411A      6.777322   412A      6.881083  
     413A      7.019388   414A      7.323854   415A      7.463929  
     416A      7.573176   417A      7.610243   418A      7.818112  
     419A      7.850820   420A      7.914480   421A      8.160866  
     422A      8.323280   423A      8.495423   424A      9.410883  
     425A      9.477315   426A      9.823799   427A      9.863626  
     428A      9.909785   429A      9.919929   430A     10.051434  
     431A     11.007759   432A     11.684452   433A     11.882748  
     434A     12.486441   435A     13.732782   436A     14.131607  
     437A     14.488996   438A     15.338660   439A     43.307959  
     440A     45.910063   441A     60.679296  

    Final Occupation by Irrep:
              A 
    DOCC [    16 ]

  @DF-RHF Final Energy:  -156.16441334898539

   => Energetics <=

    Nuclear Repulsion Energy =            117.5028746135385518
    One-Electron Energy =                -441.7768555854179908
    Two-Electron Energy =                 168.1095676228940476
    Total Energy =                       -156.1644133489853914

Computation Completed


Properties will be evaluated at   0.000000,   0.000000,   0.000000 [a0]

Properties computed using the SCF density matrix

  Nuclear Dipole Moment: [e a0]
     X:    95.8905      Y:    15.6712      Z:     1.5100

  Electronic Dipole Moment: [e a0]
     X:   -95.8500      Y:   -15.8358      Z:    -1.4719

  Dipole Moment: [e a0]
     X:     0.0405      Y:    -0.1646      Z:     0.0381     Total:     0.1738

  Dipole Moment: [D]
     X:     0.1030      Y:    -0.4184      Z:     0.0969     Total:     0.4416


*** tstop() called on r282 at Fri Sep 10 14:07:45 2021
Module time:
	user time   =      21.98 seconds =       0.37 minutes
	system time =       0.48 seconds =       0.01 minutes
	total time  =         23 seconds =       0.38 minutes
Total time:
	user time   =      85.52 seconds =       1.43 minutes
	system time =       1.95 seconds =       0.03 minutes
	total time  =         88 seconds =       1.47 minutes
  Constructing Basis Sets for SAPT...

   => Loading Basis Set <=

    Name: (JUN-CC-PVTZ AUX)
    Role: RIFIT
    Keyword: DF_BASIS_SAPT
    atoms 1, 5-7, 12-19 entry H          line    30 file /home/r08543048/miniconda3/share/psi4/basis/jun-cc-pvtz-ri.gbs 
    atoms 2-3, 8-11     entry C          line   132 file /home/r08543048/miniconda3/share/psi4/basis/jun-cc-pvtz-ri.gbs 
    atoms 4             entry O          line   244 file /home/r08543048/miniconda3/share/psi4/basis/jun-cc-pvtz-ri.gbs 


  //>>>>>>>>>>>>>>>>>>>>>>>>>>>>>>>>>>>//
  //               SAPT0               //
  //<<<<<<<<<<<<<<<<<<<<<<<<<<<<<<<<<<<//


*** tstart() called on r282
*** at Fri Sep 10 14:07:45 2021

        SAPT0  
    Ed Hohenstein
     6 June 2009

      Orbital Information
  --------------------------
    NSO        =       441
    NMO        =       441
    NRI        =      1039
    NOCC A     =        12
    NOCC B     =        16
    FOCC A     =         0
    FOCC B     =         0
    NVIR A     =       429
    NVIR B     =       425

    Elst10,r            =    -0.005760297251 [Eh]
    Exch10              =     0.008401139122 [Eh]
    Exch10 (S^2)        =     0.008361655594 [Eh]

    Iter     Energy [mEh]          dE [mEh]         Residual      Time [s]
       1      -0.59421253       0.594212526       4.452112477             1
       2      -0.66511322       0.070900693       2.192045432             2
       3      -0.70953968       0.044426462       0.517497636             2
       4      -0.70978301       0.000243330       0.214693424             3
       5      -0.70748539      -0.002297617       0.063985836             4
       6      -0.70780693       0.000321541       0.025704497             4
       7      -0.70795090       0.000143969       0.006299739             5
       8      -0.70789442      -0.000056484       0.002744318             6
       9      -0.70790117       0.000006750       0.001537033             6
      10      -0.70790577       0.000004600       0.000393235             7
      11      -0.70790443      -0.000001343       0.000142754             7
      12      -0.70790410      -0.000000324       0.000035211             8
      13      -0.70790426       0.000000158       0.000008855             9
      14      -0.70790426      -0.000000004       0.000002225             9
      15      -0.70790425      -0.000000007       0.000000419            10

    CHF Iterations converged


    Iter     Energy [mEh]          dE [mEh]         Residual      Time [s]
       1      -2.37013125       2.370131250       8.004965590             0
       2      -2.92788296       0.557751715       3.742073975             1
       3      -3.03367558       0.105792619       0.973563863             2
       4      -3.02232625      -0.011349336       0.330601263             2
       5      -3.01664983      -0.005676418       0.084024113             3
       6      -3.01751408       0.000864250       0.036142803             4
       7      -3.01794418       0.000430105       0.010137167             4
       8      -3.01778058      -0.000163602       0.002414684             5
       9      -3.01778070       0.000000115       0.000701905             6
      10      -3.01778643       0.000005733       0.000186891             6
      11      -3.01778677       0.000000338       0.000044049             7
      12      -3.01778632      -0.000000450       0.000008965             7
      13      -3.01778639       0.000000076       0.000001991             8
      14      -3.01778639      -0.000000006       0.000000539             9

    CHF Iterations converged

    Ind20,r (A<-B)      =    -0.000707904250 [Eh]
    Ind20,r (B<-A)      =    -0.003017786389 [Eh]
    Ind20,r             =    -0.003725690638 [Eh]
    Exch-Ind20,r (A<-B) =     0.000544157223 [Eh]
    Exch-Ind20,r (B<-A) =     0.002422922974 [Eh]
    Exch-Ind20,r        =     0.002967080198 [Eh]
    Disp20              =    -0.008425869492 [Eh]
    Disp20 (SS)         =    -0.004212934746 [Eh]
    Disp20 (OS)         =    -0.004212934746 [Eh]
    Exch-Disp20         =     0.000979586556 [Eh]
    Exch-Disp20 (SS)    =     0.000633036702 [Eh]
    Exch-Disp20 (OS)    =     0.000346549854 [Eh]

    SAPT Results 
  --------------------------------------------------------------------------------------------------------
    Electrostatics                 -5.76029725 [mEh]      -3.61464110 [kcal/mol]     -15.12365835 [kJ/mol]
      Elst10,r                     -5.76029725 [mEh]      -3.61464110 [kcal/mol]     -15.12365835 [kJ/mol]

    Exchange                        8.40113912 [mEh]       5.27179439 [kcal/mol]      22.05718773 [kJ/mol]
      Exch10                        8.40113912 [mEh]       5.27179439 [kcal/mol]      22.05718773 [kJ/mol]
      Exch10(S^2)                   8.36165559 [mEh]       5.24701810 [kcal/mol]      21.95352374 [kJ/mol]

    Induction                      -1.47137515 [mEh]      -0.92330185 [kcal/mol]      -3.86309493 [kJ/mol]
      Ind20,r                      -3.72569064 [mEh]      -2.33790617 [kcal/mol]      -9.78179942 [kJ/mol]
      Exch-Ind20,r                  2.96708020 [mEh]       1.86187093 [kcal/mol]       7.79006799 [kJ/mol]
      delta HF,r (2)               -0.71276471 [mEh]      -0.44726661 [kcal/mol]      -1.87136349 [kJ/mol]

    Dispersion                     -7.44628294 [mEh]      -4.67261309 [kcal/mol]     -19.55021315 [kJ/mol]
      Disp20                       -8.42586949 [mEh]      -5.28731293 [kcal/mol]     -22.12211730 [kJ/mol]
      Exch-Disp20                   0.97958656 [mEh]       0.61469984 [kcal/mol]       2.57190415 [kJ/mol]
      Disp20 (SS)                  -4.21293475 [mEh]      -2.64365647 [kcal/mol]     -11.06105865 [kJ/mol]
      Disp20 (OS)                  -4.21293475 [mEh]      -2.64365647 [kcal/mol]     -11.06105865 [kJ/mol]
      Exch-Disp20 (SS)              0.63303670 [mEh]       0.39723653 [kcal/mol]       1.66203763 [kJ/mol]
      Exch-Disp20 (OS)              0.34654985 [mEh]       0.21746332 [kcal/mol]       0.90986652 [kJ/mol]

  Total HF                          1.16946672 [mEh]       0.73385145 [kcal/mol]       3.07043445 [kJ/mol]
  Total SAPT0                      -6.27681622 [mEh]      -3.93876164 [kcal/mol]     -16.47977871 [kJ/mol]

  Special recipe for scaled SAPT0 (see Manual):
    Electrostatics sSAPT0          -5.76029725 [mEh]      -3.61464110 [kcal/mol]     -15.12365835 [kJ/mol]
    Exchange sSAPT0                 8.40113912 [mEh]       5.27179439 [kcal/mol]      22.05718773 [kJ/mol]
    Induction sSAPT0               -1.42914493 [mEh]      -0.89680198 [kcal/mol]      -3.75221950 [kJ/mol]
    Dispersion sSAPT0              -7.43234056 [mEh]      -4.66386411 [kcal/mol]     -19.51360744 [kJ/mol]
  Total sSAPT0                     -6.22064362 [mEh]      -3.90351280 [kcal/mol]     -16.33229757 [kJ/mol]
  --------------------------------------------------------------------------------------------------------

*** tstop() called on r282 at Fri Sep 10 14:09:02 2021
Module time:
	user time   =      63.90 seconds =       1.07 minutes
	system time =      11.67 seconds =       0.19 minutes
	total time  =         77 seconds =       1.28 minutes
Total time:
	user time   =     149.55 seconds =       2.49 minutes
	system time =      13.62 seconds =       0.23 minutes
	total time  =        165 seconds =       2.75 minutes

    Psi4 stopped on: Friday, 10 September 2021 02:09PM
    Psi4 wall time for execution: 0:02:45.23

*** Psi4 exiting successfully. Buy a developer a beer!
