
    -----------------------------------------------------------------------
          Psi4: An Open-Source Ab Initio Electronic Structure Package
                               Psi4 1.3.2 release

                         Git: Rev {HEAD} ecbda83 


    R. M. Parrish, L. A. Burns, D. G. A. Smith, A. C. Simmonett,
    A. E. DePrince III, E. G. Hohenstein, U. Bozkaya, A. Yu. Sokolov,
    R. Di Remigio, R. M. Richard, J. F. Gonthier, A. M. James,
    H. R. McAlexander, A. Kumar, M. Saitow, X. Wang, B. P. Pritchard,
    P. Verma, H. F. Schaefer III, K. Patkowski, R. A. King, E. F. Valeev,
    F. A. Evangelista, J. M. Turney, T. D. Crawford, and C. D. Sherrill,
    J. Chem. Theory Comput. 13(7) pp 3185--3197 (2017).
    (doi: 10.1021/acs.jctc.7b00174)


                         Additional Contributions by
    P. Kraus, H. Kruse, M. H. Lechner, M. C. Schieber, R. A. Shaw,
    A. Alenaizan, R. Galvelis, Z. L. Glick, S. Lehtola, and J. P. Misiewicz

    -----------------------------------------------------------------------


    Psi4 started on: Friday, 10 September 2021 02:20PM

    Process ID: 56733
    Host:       r282
    PSIDATADIR: /home/r08543048/miniconda3/share/psi4
    Memory:     500.0 MiB
    Threads:    1
    
  ==> Input File <==

--------------------------------------------------------------------------
# Any line starting with the # character is a comment line
#! Sample  computation

memory 22 gb

molecule Dimer {
0 1
 H  -1.672903    1.926209   -0.266204
 C  -2.012724   -0.182929   -0.838872
 C  -1.762911    0.910418    0.158715
 O  -1.654224    0.734856    1.357774
 H  -1.162390   -0.167959   -1.529111
 C  -2.209968   -1.549883   -0.208658
 H  -1.341646   -1.829720    0.384229
 H  -3.071065   -1.545418    0.457261
 H  -2.368089   -2.307342   -0.974277
 H  -2.877778    0.118525   -1.437712
    
    
    
  
  

    
    
 --
0 1
 C   1.415443    1.859204   -0.223198
 C   1.720339    0.643239   -0.688235
 C   1.536075   -0.628090    0.077733
 C   2.880121   -1.270499    0.426495
 H   1.601992    2.748190   -0.810134
 H   0.976895    1.984895    0.759195
 H   2.167204    0.555581   -1.675328
 H   0.966427   -0.426821    0.987206
 H   0.952675   -1.333879   -0.520604
 H   3.460070   -1.470511   -0.475053
 H   3.465403   -0.605773    1.060916
 H   2.738748   -2.213584    0.953542
   
   
   




units angstrom

no_reorient
symmetry c1
}

set globals{
  basis jun-cc-pvtz
}

energy('sapt0')


--------------------------------------------------------------------------

  Memory set to  20.489 GiB by Python driver.

  //>>>>>>>>>>>>>>>>>>>>>>>>>>>>>>>>>>>//
  //              Dimer HF             //
  //<<<<<<<<<<<<<<<<<<<<<<<<<<<<<<<<<<<//


*** tstart() called on r282
*** at Fri Sep 10 14:20:13 2021

   => Loading Basis Set <=

    Name: JUN-CC-PVTZ
    Role: ORBITAL
    Keyword: BASIS
    atoms 1, 5, 7-10, 15-22 entry H          line    36 file /home/r08543048/miniconda3/share/psi4/basis/jun-cc-pvtz.gbs 
    atoms 2-3, 6, 11-14     entry C          line   217 file /home/r08543048/miniconda3/share/psi4/basis/jun-cc-pvtz.gbs 
    atoms 4                 entry O          line   305 file /home/r08543048/miniconda3/share/psi4/basis/jun-cc-pvtz.gbs 


         ---------------------------------------------------------
                                   SCF
               by Justin Turney, Rob Parrish, Andy Simmonett
                          and Daniel G. A. Smith
                              RHF Reference
                        1 Threads,  20980 MiB Core
         ---------------------------------------------------------

  ==> Geometry <==

    Molecular point group: c1
    Full point group: C1

    Geometry (in Angstrom), charge = 0, multiplicity = 1:

       Center              X                  Y                   Z               Mass       
    ------------   -----------------  -----------------  -----------------  -----------------
         H           -1.639625464439     1.886524923633    -0.292977856503     1.007825032230
         C           -1.979446464439    -0.222613076367    -0.865645856503    12.000000000000
         C           -1.729633464439     0.870733923633     0.131941143497    12.000000000000
         O           -1.620946464439     0.695171923633     1.331000143497    15.994914619570
         H           -1.129112464439    -0.207643076367    -1.555884856503     1.007825032230
         C           -2.176690464439    -1.589567076367    -0.235431856503    12.000000000000
         H           -1.308368464439    -1.869404076367     0.357455143497     1.007825032230
         H           -3.037787464439    -1.585102076367     0.430487143497     1.007825032230
         H           -2.334811464439    -2.347026076367    -1.001050856503     1.007825032230
         H           -2.844500464439     0.078840923633    -1.464485856503     1.007825032230
         C            1.448720535561     1.819519923633    -0.249971856503    12.000000000000
         C            1.753616535561     0.603554923633    -0.715008856503    12.000000000000
         C            1.569352535561    -0.667774076367     0.050959143497    12.000000000000
         C            2.913398535561    -1.310183076367     0.399721143497    12.000000000000
         H            1.635269535561     2.708505923633    -0.836907856503     1.007825032230
         H            1.010172535561     1.945210923633     0.732421143497     1.007825032230
         H            2.200481535561     0.515896923633    -1.702101856503     1.007825032230
         H            0.999704535561    -0.466505076367     0.960432143497     1.007825032230
         H            0.985952535561    -1.373563076367    -0.547377856503     1.007825032230
         H            3.493347535561    -1.510195076367    -0.501826856503     1.007825032230
         H            3.498680535561    -0.645457076367     1.034142143497     1.007825032230
         H            2.772025535561    -2.253268076367     0.926768143497     1.007825032230

  Running in c1 symmetry.

  Rotational constants: A =      0.07842  B =      0.03322  C =      0.02802 [cm^-1]
  Rotational constants: A =   2351.10691  B =    995.81215  C =    840.01359 [MHz]
  Nuclear repulsion =  365.270196506986508

  Charge       = 0
  Multiplicity = 1
  Electrons    = 64
  Nalpha       = 32
  Nbeta        = 32

  ==> Algorithm <==

  SCF Algorithm Type is DF.
  DIIS enabled.
  MOM disabled.
  Fractional occupation disabled.
  Guess Type is SAD.
  Energy threshold   = 1.00e-08
  Density threshold  = 1.00e-08
  Integral threshold = 0.00e+00

  ==> Primary Basis <==

  Basis Set: JUN-CC-PVTZ
    Blend: JUN-CC-PVTZ
    Number of shells: 188
    Number of basis function: 508
    Number of Cartesian functions: 570
    Spherical Harmonics?: true
    Max angular momentum: 3

   => Loading Basis Set <=

    Name: (JUN-CC-PVTZ AUX)
    Role: JKFIT
    Keyword: DF_BASIS_SCF
    atoms 1, 5, 7-10, 15-22 entry H          line    70 file /home/r08543048/miniconda3/share/psi4/basis/jun-cc-pvtz-jkfit.gbs 
    atoms 2-3, 6, 11-14     entry C          line   152 file /home/r08543048/miniconda3/share/psi4/basis/jun-cc-pvtz-jkfit.gbs 
    atoms 4                 entry O          line   272 file /home/r08543048/miniconda3/share/psi4/basis/jun-cc-pvtz-jkfit.gbs 

  ==> Pre-Iterations <==

   -------------------------------------------------------
    Irrep   Nso     Nmo     Nalpha   Nbeta   Ndocc  Nsocc
   -------------------------------------------------------
     A        508     508       0       0       0       0
   -------------------------------------------------------
    Total     508     508      32      32      32       0
   -------------------------------------------------------

  ==> Integral Setup <==

  ==> DiskDFJK: Density-Fitted J/K Matrices <==

    J tasked:                  Yes
    K tasked:                  Yes
    wK tasked:                  No
    OpenMP threads:              1
    Integrals threads:           1
    Memory [MiB]:            15735
    Algorithm:                Core
    Integral Cache:           SAVE
    Schwarz Cutoff:          1E-12
    Fitting Condition:       1E-10

   => Auxiliary Basis Set <=

  Basis Set: (JUN-CC-PVTZ AUX)
    Blend: JUN-CC-PVTZ-JKFIT
    Number of shells: 372
    Number of basis function: 1180
    Number of Cartesian functions: 1418
    Spherical Harmonics?: true
    Max angular momentum: 4

  Minimum eigenvalue in the overlap matrix is 3.4832822483E-05.
  Using Symmetric Orthogonalization.

  SCF Guess: Superposition of Atomic Densities via on-the-fly atomic UHF.

  ==> Iterations <==

                           Total Energy        Delta E     RMS |[F,P]|

   @DF-RHF iter SAD:  -346.70879940643772   -3.46709e+02   0.00000e+00 
   @DF-RHF iter   1:  -347.85757316573836   -1.14877e+00   1.48596e-03 DIIS
   @DF-RHF iter   2:  -348.11084796076528   -2.53275e-01   8.12307e-04 DIIS
   @DF-RHF iter   3:  -348.18079663099257   -6.99487e-02   1.79407e-04 DIIS
   @DF-RHF iter   4:  -348.18570792063463   -4.91129e-03   7.97806e-05 DIIS
   @DF-RHF iter   5:  -348.18666049378692   -9.52573e-04   1.20440e-05 DIIS
   @DF-RHF iter   6:  -348.18670598596862   -4.54922e-05   5.36345e-06 DIIS
   @DF-RHF iter   7:  -348.18671248737741   -6.50141e-06   2.14190e-06 DIIS
   @DF-RHF iter   8:  -348.18671398691026   -1.49953e-06   9.16466e-07 DIIS
   @DF-RHF iter   9:  -348.18671429579695   -3.08887e-07   2.30161e-07 DIIS
   @DF-RHF iter  10:  -348.18671431711715   -2.13202e-08   6.95541e-08 DIIS
   @DF-RHF iter  11:  -348.18671431881978   -1.70263e-09   2.14825e-08 DIIS
   @DF-RHF iter  12:  -348.18671431904903   -2.29250e-10   9.64800e-09 DIIS
  Energy and wave function converged.


  ==> Post-Iterations <==

    Orbital Energies [Eh]
    ---------------------

    Doubly Occupied:                                                      

       1A    -20.552681     2A    -11.329077     3A    -11.240632  
       4A    -11.234156     5A    -11.224433     6A    -11.219924  
       7A    -11.218742     8A    -11.214558     9A     -1.384650  
      10A     -1.083397    11A     -1.060580    12A     -0.989425  
      13A     -0.909860    14A     -0.857778    15A     -0.770813  
      16A     -0.757118    17A     -0.677650    18A     -0.647658  
      19A     -0.633373    20A     -0.624044    21A     -0.607390  
      22A     -0.583466    23A     -0.540253    24A     -0.538565  
      25A     -0.524965    26A     -0.520198    27A     -0.515455  
      28A     -0.492982    29A     -0.484396    30A     -0.474637  
      31A     -0.419296    32A     -0.360843  

    Virtual:                                                              

      33A      0.045699    34A      0.049898    35A      0.052630  
      36A      0.058485    37A      0.067367    38A      0.075170  
      39A      0.077498    40A      0.086280    41A      0.089862  
      42A      0.103816    43A      0.108592    44A      0.111531  
      45A      0.113998    46A      0.119452    47A      0.123991  
      48A      0.132626    49A      0.138306    50A      0.144392  
      51A      0.145992    52A      0.158549    53A      0.162380  
      54A      0.169303    55A      0.171571    56A      0.182824  
      57A      0.188586    58A      0.195592    59A      0.204571  
      60A      0.210428    61A      0.218375    62A      0.225649  
      63A      0.239241    64A      0.257044    65A      0.262419  
      66A      0.271709    67A      0.274956    68A      0.284189  
      69A      0.289132    70A      0.292582    71A      0.296560  
      72A      0.298204    73A      0.313184    74A      0.316911  
      75A      0.322380    76A      0.327285    77A      0.332102  
      78A      0.335185    79A      0.343824    80A      0.347106  
      81A      0.353552    82A      0.356774    83A      0.361193  
      84A      0.366730    85A      0.368608    86A      0.377565  
      87A      0.383309    88A      0.388060    89A      0.394336  
      90A      0.401057    91A      0.414491    92A      0.419135  
      93A      0.424746    94A      0.426005    95A      0.441060  
      96A      0.447283    97A      0.458300    98A      0.463963  
      99A      0.467867   100A      0.483107   101A      0.487017  
     102A      0.497781   103A      0.502670   104A      0.513965  
     105A      0.519655   106A      0.525123   107A      0.531754  
     108A      0.539002   109A      0.543819   110A      0.552716  
     111A      0.556212   112A      0.566132   113A      0.574154  
     114A      0.579940   115A      0.596136   116A      0.602440  
     117A      0.611368   118A      0.620730   119A      0.635255  
     120A      0.651390   121A      0.655156   122A      0.677234  
     123A      0.682494   124A      0.686944   125A      0.693293  
     126A      0.703680   127A      0.720111   128A      0.728592  
     129A      0.732635   130A      0.740561   131A      0.748927  
     132A      0.751027   133A      0.770534   134A      0.783847  
     135A      0.791617   136A      0.794395   137A      0.804040  
     138A      0.807416   139A      0.814621   140A      0.825877  
     141A      0.835760   142A      0.838261   143A      0.838843  
     144A      0.855643   145A      0.862781   146A      0.863203  
     147A      0.873597   148A      0.880726   149A      0.892013  
     150A      0.894707   151A      0.903377   152A      0.916935  
     153A      0.930058   154A      0.944079   155A      0.952525  
     156A      0.966958   157A      0.975660   158A      0.981820  
     159A      0.994391   160A      1.011336   161A      1.030334  
     162A      1.034248   163A      1.046795   164A      1.055023  
     165A      1.082363   166A      1.083502   167A      1.102090  
     168A      1.103992   169A      1.124073   170A      1.126687  
     171A      1.128660   172A      1.141813   173A      1.151846  
     174A      1.171535   175A      1.175336   176A      1.196680  
     177A      1.215251   178A      1.240981   179A      1.249548  
     180A      1.252685   181A      1.267627   182A      1.281038  
     183A      1.300031   184A      1.307934   185A      1.321889  
     186A      1.322691   187A      1.331618   188A      1.337603  
     189A      1.364882   190A      1.379007   191A      1.385092  
     192A      1.391392   193A      1.400003   194A      1.403788  
     195A      1.422001   196A      1.430601   197A      1.436748  
     198A      1.439697   199A      1.448636   200A      1.454617  
     201A      1.472628   202A      1.478167   203A      1.493327  
     204A      1.495238   205A      1.514876   206A      1.531993  
     207A      1.536522   208A      1.553831   209A      1.564793  
     210A      1.578173   211A      1.585672   212A      1.596545  
     213A      1.603667   214A      1.614191   215A      1.620811  
     216A      1.623989   217A      1.631457   218A      1.644686  
     219A      1.651903   220A      1.668315   221A      1.679610  
     222A      1.683494   223A      1.702019   224A      1.719496  
     225A      1.736776   226A      1.744879   227A      1.752981  
     228A      1.777134   229A      1.783011   230A      1.783782  
     231A      1.803052   232A      1.824655   233A      1.829524  
     234A      1.853978   235A      1.867660   236A      1.878278  
     237A      1.890004   238A      1.909167   239A      1.931037  
     240A      1.938886   241A      1.952922   242A      1.973331  
     243A      2.000185   244A      2.022427   245A      2.078916  
     246A      2.122669   247A      2.148394   248A      2.249212  
     249A      2.348296   250A      2.395625   251A      2.416175  
     252A      2.464137   253A      2.566213   254A      2.673133  
     255A      2.726898   256A      2.732334   257A      2.752883  
     258A      2.768556   259A      2.784337   260A      2.804749  
     261A      2.816907   262A      2.824925   263A      2.843988  
     264A      2.860803   265A      2.873684   266A      2.879196  
     267A      2.894330   268A      2.912729   269A      2.929654  
     270A      2.938674   271A      2.946895   272A      2.951796  
     273A      2.971763   274A      2.977115   275A      2.992736  
     276A      3.007959   277A      3.026098   278A      3.044984  
     279A      3.060512   280A      3.063104   281A      3.086959  
     282A      3.089858   283A      3.111900   284A      3.118988  
     285A      3.132789   286A      3.134610   287A      3.138404  
     288A      3.143342   289A      3.156582   290A      3.169425  
     291A      3.186137   292A      3.210214   293A      3.234668  
     294A      3.246974   295A      3.262270   296A      3.265184  
     297A      3.269705   298A      3.294288   299A      3.311947  
     300A      3.313197   301A      3.334465   302A      3.345755  
     303A      3.348151   304A      3.353185   305A      3.357940  
     306A      3.373233   307A      3.390130   308A      3.396569  
     309A      3.401414   310A      3.408776   311A      3.422609  
     312A      3.431386   313A      3.438246   314A      3.452634  
     315A      3.461379   316A      3.478813   317A      3.483648  
     318A      3.494164   319A      3.506921   320A      3.514063  
     321A      3.520692   322A      3.525228   323A      3.534277  
     324A      3.540687   325A      3.547100   326A      3.556744  
     327A      3.579197   328A      3.584196   329A      3.592866  
     330A      3.603347   331A      3.610106   332A      3.628287  
     333A      3.631737   334A      3.644841   335A      3.664209  
     336A      3.677665   337A      3.691230   338A      3.707901  
     339A      3.718511   340A      3.723559   341A      3.732402  
     342A      3.747528   343A      3.762373   344A      3.780800  
     345A      3.797792   346A      3.806213   347A      3.823817  
     348A      3.844929   349A      3.854829   350A      3.866281  
     351A      3.878670   352A      3.885761   353A      3.890191  
     354A      3.899434   355A      3.910366   356A      3.936093  
     357A      3.944221   358A      3.954662   359A      3.966413  
     360A      3.989177   361A      4.006932   362A      4.032296  
     363A      4.035879   364A      4.047909   365A      4.074475  
     366A      4.108820   367A      4.115835   368A      4.139731  
     369A      4.146535   370A      4.153999   371A      4.185964  
     372A      4.191414   373A      4.215774   374A      4.225527  
     375A      4.241944   376A      4.246292   377A      4.255790  
     378A      4.277331   379A      4.301391   380A      4.317717  
     381A      4.319233   382A      4.324781   383A      4.338467  
     384A      4.349117   385A      4.358522   386A      4.374089  
     387A      4.383084   388A      4.393621   389A      4.399980  
     390A      4.412814   391A      4.425744   392A      4.436297  
     393A      4.445236   394A      4.450113   395A      4.458834  
     396A      4.466059   397A      4.476123   398A      4.486646  
     399A      4.499333   400A      4.505585   401A      4.518982  
     402A      4.529584   403A      4.535960   404A      4.559364  
     405A      4.588091   406A      4.597585   407A      4.638638  
     408A      4.647246   409A      4.650111   410A      4.664138  
     411A      4.669238   412A      4.684955   413A      4.710191  
     414A      4.719006   415A      4.734759   416A      4.755814  
     417A      4.792987   418A      4.808610   419A      4.817514  
     420A      4.851269   421A      4.860481   422A      4.893418  
     423A      4.906301   424A      4.922680   425A      4.940140  
     426A      4.952562   427A      4.980652   428A      4.991406  
     429A      5.005806   430A      5.031729   431A      5.048046  
     432A      5.073703   433A      5.084519   434A      5.110689  
     435A      5.171672   436A      5.197424   437A      5.223782  
     438A      5.238398   439A      5.250878   440A      5.257267  
     441A      5.280659   442A      5.288554   443A      5.297938  
     444A      5.306620   445A      5.310797   446A      5.321646  
     447A      5.351412   448A      5.372930   449A      5.376811  
     450A      5.405016   451A      5.416346   452A      5.434637  
     453A      5.442279   454A      5.479625   455A      5.505520  
     456A      5.523250   457A      5.567574   458A      5.630059  
     459A      5.638556   460A      5.674461   461A      5.677308  
     462A      5.701819   463A      5.713119   464A      5.720277  
     465A      5.744364   466A      5.747934   467A      5.754938  
     468A      5.770451   469A      5.791582   470A      5.820270  
     471A      5.827600   472A      5.854402   473A      5.906014  
     474A      5.909782   475A      5.930989   476A      5.939041  
     477A      5.958291   478A      5.975812   479A      6.031095  
     480A      6.134027   481A      6.196967   482A      6.217672  
     483A      6.327511   484A      6.417790   485A      6.475761  
     486A      6.492959   487A      6.501098   488A      6.505660  
     489A      6.530610   490A      6.569328   491A      6.606985  
     492A      6.712294   493A      6.803071   494A      6.972730  
     495A      7.253934   496A      7.296110   497A      7.311317  
     498A      7.443499   499A      7.637216   500A      7.731363  
     501A     12.288567   502A     12.502729   503A     14.023306  
     504A     14.222035   505A     14.398753   506A     14.507356  
     507A     14.724442   508A     15.356603  

    Final Occupation by Irrep:
              A 
    DOCC [    32 ]

  @DF-RHF Final Energy:  -348.18671431904903

   => Energetics <=

    Nuclear Repulsion Energy =            365.2701965069865082
    One-Electron Energy =               -1195.5278352830223412
    Two-Electron Energy =                 482.0709244569868019
    Total Energy =                       -348.1867143190490310

Computation Completed


Properties will be evaluated at   0.000000,   0.000000,   0.000000 [a0]

Properties computed using the SCF density matrix

  Nuclear Dipole Moment: [e a0]
     X:     4.0247      Y:    -4.7995      Z:    -3.2381

  Electronic Dipole Moment: [e a0]
     X:    -4.0839      Y:     4.6308      Z:     2.0911

  Dipole Moment: [e a0]
     X:    -0.0593      Y:    -0.1687      Z:    -1.1470     Total:     1.1609

  Dipole Moment: [D]
     X:    -0.1506      Y:    -0.4287      Z:    -2.9154     Total:     2.9506


*** tstop() called on r282 at Fri Sep 10 14:21:19 2021
Module time:
	user time   =      64.73 seconds =       1.08 minutes
	system time =       1.53 seconds =       0.03 minutes
	total time  =         66 seconds =       1.10 minutes
Total time:
	user time   =      64.73 seconds =       1.08 minutes
	system time =       1.53 seconds =       0.03 minutes
	total time  =         66 seconds =       1.10 minutes

  //>>>>>>>>>>>>>>>>>>>>>>>>>>>>>>>>>>>//
  //            Monomer A HF           //
  //<<<<<<<<<<<<<<<<<<<<<<<<<<<<<<<<<<<//


*** tstart() called on r282
*** at Fri Sep 10 14:21:19 2021

   => Loading Basis Set <=

    Name: JUN-CC-PVTZ
    Role: ORBITAL
    Keyword: BASIS
    atoms 1, 5, 7-10, 15-22 entry H          line    36 file /home/r08543048/miniconda3/share/psi4/basis/jun-cc-pvtz.gbs 
    atoms 2-3, 6, 11-14     entry C          line   217 file /home/r08543048/miniconda3/share/psi4/basis/jun-cc-pvtz.gbs 
    atoms 4                 entry O          line   305 file /home/r08543048/miniconda3/share/psi4/basis/jun-cc-pvtz.gbs 


         ---------------------------------------------------------
                                   SCF
               by Justin Turney, Rob Parrish, Andy Simmonett
                          and Daniel G. A. Smith
                              RHF Reference
                        1 Threads,  20980 MiB Core
         ---------------------------------------------------------

  ==> Geometry <==

    Molecular point group: c1
    Full point group: C1

    Geometry (in Angstrom), charge = 0, multiplicity = 1:

       Center              X                  Y                   Z               Mass       
    ------------   -----------------  -----------------  -----------------  -----------------
         H           -1.639625464439     1.886524923633    -0.292977856503     1.007825032230
         C           -1.979446464439    -0.222613076367    -0.865645856503    12.000000000000
         C           -1.729633464439     0.870733923633     0.131941143497    12.000000000000
         O           -1.620946464439     0.695171923633     1.331000143497    15.994914619570
         H           -1.129112464439    -0.207643076367    -1.555884856503     1.007825032230
         C           -2.176690464439    -1.589567076367    -0.235431856503    12.000000000000
         H           -1.308368464439    -1.869404076367     0.357455143497     1.007825032230
         H           -3.037787464439    -1.585102076367     0.430487143497     1.007825032230
         H           -2.334811464439    -2.347026076367    -1.001050856503     1.007825032230
         H           -2.844500464439     0.078840923633    -1.464485856503     1.007825032230
      Gh(C)           1.448720535561     1.819519923633    -0.249971856503    12.000000000000
      Gh(C)           1.753616535561     0.603554923633    -0.715008856503    12.000000000000
      Gh(C)           1.569352535561    -0.667774076367     0.050959143497    12.000000000000
      Gh(C)           2.913398535561    -1.310183076367     0.399721143497    12.000000000000
      Gh(H)           1.635269535561     2.708505923633    -0.836907856503     1.007825032230
      Gh(H)           1.010172535561     1.945210923633     0.732421143497     1.007825032230
      Gh(H)           2.200481535561     0.515896923633    -1.702101856503     1.007825032230
      Gh(H)           0.999704535561    -0.466505076367     0.960432143497     1.007825032230
      Gh(H)           0.985952535561    -1.373563076367    -0.547377856503     1.007825032230
      Gh(H)           3.493347535561    -1.510195076367    -0.501826856503     1.007825032230
      Gh(H)           3.498680535561    -0.645457076367     1.034142143497     1.007825032230
      Gh(H)           2.772025535561    -2.253268076367     0.926768143497     1.007825032230

  Running in c1 symmetry.

  Rotational constants: A =      0.07842  B =      0.03322  C =      0.02802 [cm^-1]
  Rotational constants: A =   2351.10691  B =    995.81215  C =    840.01359 [MHz]
  Nuclear repulsion =  118.676727162580349

  Charge       = 0
  Multiplicity = 1
  Electrons    = 32
  Nalpha       = 16
  Nbeta        = 16

  ==> Algorithm <==

  SCF Algorithm Type is DF.
  DIIS enabled.
  MOM disabled.
  Fractional occupation disabled.
  Guess Type is SAD.
  Energy threshold   = 1.00e-08
  Density threshold  = 1.00e-08
  Integral threshold = 0.00e+00

  ==> Primary Basis <==

  Basis Set: JUN-CC-PVTZ
    Blend: JUN-CC-PVTZ
    Number of shells: 188
    Number of basis function: 508
    Number of Cartesian functions: 570
    Spherical Harmonics?: true
    Max angular momentum: 3

   => Loading Basis Set <=

    Name: (JUN-CC-PVTZ AUX)
    Role: JKFIT
    Keyword: DF_BASIS_SCF
    atoms 1, 5, 7-10, 15-22 entry H          line    70 file /home/r08543048/miniconda3/share/psi4/basis/jun-cc-pvtz-jkfit.gbs 
    atoms 2-3, 6, 11-14     entry C          line   152 file /home/r08543048/miniconda3/share/psi4/basis/jun-cc-pvtz-jkfit.gbs 
    atoms 4                 entry O          line   272 file /home/r08543048/miniconda3/share/psi4/basis/jun-cc-pvtz-jkfit.gbs 

  ==> Pre-Iterations <==

   -------------------------------------------------------
    Irrep   Nso     Nmo     Nalpha   Nbeta   Ndocc  Nsocc
   -------------------------------------------------------
     A        508     508       0       0       0       0
   -------------------------------------------------------
    Total     508     508      16      16      16       0
   -------------------------------------------------------

  ==> Integral Setup <==

  ==> DiskDFJK: Density-Fitted J/K Matrices <==

    J tasked:                  Yes
    K tasked:                  Yes
    wK tasked:                  No
    OpenMP threads:              1
    Integrals threads:           1
    Memory [MiB]:            15735
    Algorithm:                Core
    Integral Cache:           LOAD
    Schwarz Cutoff:          1E-12
    Fitting Condition:       1E-10

   => Auxiliary Basis Set <=

  Basis Set: (JUN-CC-PVTZ AUX)
    Blend: JUN-CC-PVTZ-JKFIT
    Number of shells: 372
    Number of basis function: 1180
    Number of Cartesian functions: 1418
    Spherical Harmonics?: true
    Max angular momentum: 4

  Minimum eigenvalue in the overlap matrix is 3.4832822483E-05.
  Using Symmetric Orthogonalization.

  SCF Guess: Superposition of Atomic Densities via on-the-fly atomic UHF.

  ==> Iterations <==

                           Total Energy        Delta E     RMS |[F,P]|

   @DF-RHF iter SAD:  -191.17720933767731   -1.91177e+02   0.00000e+00 
   @DF-RHF iter   1:  -191.85944570168144   -6.82236e-01   1.09403e-03 DIIS
   @DF-RHF iter   2:  -191.97473133994569   -1.15286e-01   7.01230e-04 DIIS
   @DF-RHF iter   3:  -192.02092245711077   -4.61911e-02   1.29671e-04 DIIS
   @DF-RHF iter   4:  -192.02370292327356   -2.78047e-03   5.52211e-05 DIIS
   @DF-RHF iter   5:  -192.02425025843525   -5.47335e-04   9.98392e-06 DIIS
   @DF-RHF iter   6:  -192.02428828488496   -3.80264e-05   3.79563e-06 DIIS
   @DF-RHF iter   7:  -192.02429347313131   -5.18825e-06   1.64043e-06 DIIS
   @DF-RHF iter   8:  -192.02429434849847   -8.75367e-07   5.16573e-07 DIIS
   @DF-RHF iter   9:  -192.02429445470506   -1.06207e-07   1.04367e-07 DIIS
   @DF-RHF iter  10:  -192.02429445886835   -4.16330e-09   2.19113e-08 DIIS
   @DF-RHF iter  11:  -192.02429445901225   -1.43899e-10   4.76957e-09 DIIS
  Energy and wave function converged.


  ==> Post-Iterations <==

    Orbital Energies [Eh]
    ---------------------

    Doubly Occupied:                                                      

       1A    -20.557896     2A    -11.332964     3A    -11.245457  
       4A    -11.221183     5A     -1.388248     6A     -1.064398  
       7A     -0.913204     8A     -0.774506     9A     -0.681243  
      10A     -0.636120    11A     -0.627492    12A     -0.542122  
      13A     -0.527635    14A     -0.520987    15A     -0.491107  
      16A     -0.423242  

    Virtual:                                                              

      17A      0.029239    18A      0.042585    19A      0.047684  
      20A      0.055267    21A      0.062377    22A      0.070977  
      23A      0.074274    24A      0.079969    25A      0.086584  
      26A      0.097204    27A      0.103018    28A      0.106346  
      29A      0.109976    30A      0.116656    31A      0.121276  
      32A      0.126740    33A      0.135178    34A      0.139159  
      35A      0.142023    36A      0.150286    37A      0.152961  
      38A      0.157229    39A      0.161333    40A      0.167377  
      41A      0.170230    42A      0.185144    43A      0.191839  
      44A      0.202590    45A      0.207583    46A      0.223179  
      47A      0.243530    48A      0.251670    49A      0.263500  
      50A      0.268726    51A      0.273662    52A      0.279594  
      53A      0.286413    54A      0.287388    55A      0.289291  
      56A      0.296961    57A      0.306687    58A      0.315154  
      59A      0.322196    60A      0.325697    61A      0.330751  
      62A      0.334685    63A      0.339410    64A      0.346200  
      65A      0.350528    66A      0.359735    67A      0.366134  
      68A      0.374356    69A      0.379372    70A      0.381476  
      71A      0.394029    72A      0.394835    73A      0.402148  
      74A      0.405374    75A      0.412971    76A      0.421291  
      77A      0.428940    78A      0.439366    79A      0.445666  
      80A      0.463561    81A      0.467358    82A      0.470152  
      83A      0.480760    84A      0.488595    85A      0.497386  
      86A      0.507053    87A      0.510207    88A      0.515515  
      89A      0.523092    90A      0.528422    91A      0.535527  
      92A      0.544864    93A      0.551818    94A      0.553527  
      95A      0.566255    96A      0.569537    97A      0.586360  
      98A      0.589259    99A      0.603133   100A      0.605573  
     101A      0.610176   102A      0.626209   103A      0.627421  
     104A      0.629005   105A      0.642105   106A      0.650369  
     107A      0.663037   108A      0.665879   109A      0.685992  
     110A      0.687925   111A      0.700164   112A      0.707647  
     113A      0.712704   114A      0.725618   115A      0.739361  
     116A      0.748983   117A      0.753214   118A      0.768230  
     119A      0.772339   120A      0.779664   121A      0.794179  
     122A      0.803623   123A      0.824303   124A      0.831527  
     125A      0.841901   126A      0.857413   127A      0.858873  
     128A      0.868777   129A      0.871892   130A      0.895041  
     131A      0.908758   132A      0.919203   133A      0.939488  
     134A      0.947358   135A      0.985216   136A      1.000931  
     137A      1.021074   138A      1.029103   139A      1.051471  
     140A      1.071989   141A      1.089135   142A      1.094861  
     143A      1.096859   144A      1.110905   145A      1.121352  
     146A      1.128644   147A      1.132379   148A      1.140043  
     149A      1.160977   150A      1.166619   151A      1.184501  
     152A      1.191836   153A      1.206367   154A      1.211065  
     155A      1.218614   156A      1.241967   157A      1.250615  
     158A      1.251766   159A      1.263577   160A      1.279368  
     161A      1.286453   162A      1.299670   163A      1.317884  
     164A      1.319358   165A      1.325244   166A      1.337474  
     167A      1.351667   168A      1.351708   169A      1.357898  
     170A      1.373393   171A      1.379854   172A      1.385514  
     173A      1.399881   174A      1.406786   175A      1.416511  
     176A      1.428776   177A      1.437397   178A      1.438991  
     179A      1.449944   180A      1.456157   181A      1.468793  
     182A      1.477774   183A      1.495207   184A      1.504871  
     185A      1.505210   186A      1.513264   187A      1.523621  
     188A      1.537891   189A      1.544946   190A      1.554268  
     191A      1.565311   192A      1.574874   193A      1.580391  
     194A      1.596178   195A      1.598205   196A      1.605611  
     197A      1.613501   198A      1.618005   199A      1.624904  
     200A      1.634596   201A      1.646029   202A      1.653085  
     203A      1.667357   204A      1.679389   205A      1.693643  
     206A      1.704425   207A      1.712438   208A      1.725224  
     209A      1.745677   210A      1.753666   211A      1.768806  
     212A      1.788507   213A      1.797749   214A      1.806838  
     215A      1.825609   216A      1.835342   217A      1.857883  
     218A      1.887473   219A      1.916322   220A      1.941708  
     221A      1.947104   222A      1.953765   223A      1.984847  
     224A      1.998674   225A      2.006977   226A      2.019588  
     227A      2.071812   228A      2.101737   229A      2.125046  
     230A      2.134085   231A      2.169177   232A      2.208729  
     233A      2.244990   234A      2.289946   235A      2.336974  
     236A      2.364711   237A      2.380062   238A      2.400762  
     239A      2.425960   240A      2.441800   241A      2.460758  
     242A      2.471314   243A      2.510009   244A      2.537564  
     245A      2.561803   246A      2.582990   247A      2.631170  
     248A      2.715160   249A      2.735724   250A      2.777838  
     251A      2.816411   252A      2.826187   253A      2.879541  
     254A      2.906052   255A      2.923512   256A      2.937577  
     257A      2.957099   258A      2.965271   259A      2.990548  
     260A      3.009402   261A      3.060087   262A      3.071560  
     263A      3.106857   264A      3.134859   265A      3.144310  
     266A      3.181447   267A      3.247588   268A      3.293944  
     269A      3.314501   270A      3.323979   271A      3.347875  
     272A      3.382865   273A      3.397294   274A      3.405063  
     275A      3.427865   276A      3.437779   277A      3.455269  
     278A      3.470309   279A      3.491160   280A      3.496001  
     281A      3.506415   282A      3.522466   283A      3.532334  
     284A      3.546058   285A      3.557610   286A      3.568648  
     287A      3.584835   288A      3.589523   289A      3.600909  
     290A      3.609032   291A      3.615841   292A      3.638169  
     293A      3.646805   294A      3.658389   295A      3.667068  
     296A      3.683043   297A      3.699487   298A      3.711043  
     299A      3.714396   300A      3.729071   301A      3.751670  
     302A      3.773728   303A      3.785839   304A      3.791569  
     305A      3.807646   306A      3.817358   307A      3.829640  
     308A      3.849994   309A      3.854363   310A      3.855666  
     311A      3.864055   312A      3.881422   313A      3.899211  
     314A      3.902860   315A      3.911035   316A      3.934226  
     317A      3.942876   318A      3.951953   319A      3.967966  
     320A      3.993346   321A      4.008395   322A      4.024943  
     323A      4.037416   324A      4.063931   325A      4.088039  
     326A      4.099349   327A      4.102990   328A      4.126208  
     329A      4.133756   330A      4.138595   331A      4.164925  
     332A      4.174035   333A      4.197973   334A      4.199257  
     335A      4.214902   336A      4.221931   337A      4.235511  
     338A      4.242635   339A      4.262197   340A      4.285868  
     341A      4.305267   342A      4.318153   343A      4.328104  
     344A      4.339894   345A      4.357296   346A      4.369139  
     347A      4.372653   348A      4.397158   349A      4.406305  
     350A      4.428115   351A      4.432340   352A      4.445106  
     353A      4.462584   354A      4.471745   355A      4.485252  
     356A      4.489849   357A      4.499956   358A      4.502708  
     359A      4.507339   360A      4.510800   361A      4.535318  
     362A      4.547136   363A      4.564444   364A      4.583770  
     365A      4.595705   366A      4.612272   367A      4.622716  
     368A      4.631657   369A      4.641764   370A      4.656374  
     371A      4.670329   372A      4.687074   373A      4.692032  
     374A      4.702510   375A      4.713990   376A      4.721334  
     377A      4.735735   378A      4.740185   379A      4.771336  
     380A      4.777274   381A      4.794856   382A      4.803935  
     383A      4.820384   384A      4.826188   385A      4.828678  
     386A      4.839276   387A      4.856589   388A      4.867726  
     389A      4.881425   390A      4.882487   391A      4.896129  
     392A      4.909579   393A      4.924984   394A      4.940740  
     395A      4.945312   396A      4.956548   397A      4.973447  
     398A      4.981906   399A      4.990792   400A      5.004051  
     401A      5.027765   402A      5.035634   403A      5.047851  
     404A      5.056281   405A      5.080429   406A      5.083370  
     407A      5.116014   408A      5.130661   409A      5.135232  
     410A      5.165562   411A      5.174668   412A      5.199441  
     413A      5.249358   414A      5.251950   415A      5.278514  
     416A      5.283590   417A      5.293649   418A      5.307104  
     419A      5.325547   420A      5.342277   421A      5.352882  
     422A      5.373102   423A      5.390427   424A      5.433639  
     425A      5.442020   426A      5.464275   427A      5.494418  
     428A      5.496341   429A      5.525867   430A      5.579414  
     431A      5.594752   432A      5.630997   433A      5.663298  
     434A      5.674672   435A      5.698707   436A      5.713002  
     437A      5.719195   438A      5.729916   439A      5.746364  
     440A      5.757469   441A      5.815069   442A      5.825165  
     443A      5.833695   444A      5.852717   445A      5.895234  
     446A      5.910778   447A      5.936174   448A      5.969311  
     449A      5.982414   450A      6.031791   451A      6.052547  
     452A      6.063618   453A      6.129297   454A      6.143621  
     455A      6.177508   456A      6.211732   457A      6.290011  
     458A      6.321885   459A      6.333168   460A      6.346340  
     461A      6.375771   462A      6.398205   463A      6.468807  
     464A      6.489306   465A      6.504838   466A      6.531659  
     467A      6.563495   468A      6.656645   469A      6.733636  
     470A      6.789558   471A      6.799846   472A      6.858023  
     473A      6.948253   474A      6.977658   475A      7.107613  
     476A      7.248935   477A      7.291243   478A      7.306448  
     479A      7.387901   480A      7.423120   481A      7.441260  
     482A      7.492979   483A      7.573323   484A      7.608097  
     485A      7.633705   486A      7.687662   487A      7.702963  
     488A      7.728972   489A      7.843940   490A      7.887100  
     491A      7.981751   492A      7.982858   493A      8.138223  
     494A      8.284218   495A      8.470537   496A      8.807174  
     497A      9.405856   498A      9.729858   499A      9.896752  
     500A     10.213396   501A     12.512630   502A     14.024477  
     503A     14.364380   504A     14.726075   505A     40.990431  
     506A     45.009883   507A     45.644690   508A     47.184646  

    Final Occupation by Irrep:
              A 
    DOCC [    16 ]

  @DF-RHF Final Energy:  -192.02429445901225

   => Energetics <=

    Nuclear Repulsion Energy =            118.6767271625803488
    One-Electron Energy =                -495.5064399849945289
    Two-Electron Energy =                 184.8054183634019410
    Total Energy =                       -192.0242944590122534

Computation Completed


Properties will be evaluated at   0.000000,   0.000000,   0.000000 [a0]

Properties computed using the SCF density matrix

  Nuclear Dipole Moment: [e a0]
     X:  -114.4728      Y:    -7.8067      Z:     2.4694

  Electronic Dipole Moment: [e a0]
     X:   114.3319      Y:     7.7566      Z:    -3.7069

  Dipole Moment: [e a0]
     X:    -0.1409      Y:    -0.0501      Z:    -1.2376     Total:     1.2466

  Dipole Moment: [D]
     X:    -0.3582      Y:    -0.1273      Z:    -3.1456     Total:     3.1685


*** tstop() called on r282 at Fri Sep 10 14:22:02 2021
Module time:
	user time   =      41.91 seconds =       0.70 minutes
	system time =       0.66 seconds =       0.01 minutes
	total time  =         43 seconds =       0.72 minutes
Total time:
	user time   =     106.64 seconds =       1.78 minutes
	system time =       2.19 seconds =       0.04 minutes
	total time  =        109 seconds =       1.82 minutes

  //>>>>>>>>>>>>>>>>>>>>>>>>>>>>>>>>>>>//
  //            Monomer B HF           //
  //<<<<<<<<<<<<<<<<<<<<<<<<<<<<<<<<<<<//


*** tstart() called on r282
*** at Fri Sep 10 14:22:02 2021

   => Loading Basis Set <=

    Name: JUN-CC-PVTZ
    Role: ORBITAL
    Keyword: BASIS
    atoms 1, 5, 7-10, 15-22 entry H          line    36 file /home/r08543048/miniconda3/share/psi4/basis/jun-cc-pvtz.gbs 
    atoms 2-3, 6, 11-14     entry C          line   217 file /home/r08543048/miniconda3/share/psi4/basis/jun-cc-pvtz.gbs 
    atoms 4                 entry O          line   305 file /home/r08543048/miniconda3/share/psi4/basis/jun-cc-pvtz.gbs 


         ---------------------------------------------------------
                                   SCF
               by Justin Turney, Rob Parrish, Andy Simmonett
                          and Daniel G. A. Smith
                              RHF Reference
                        1 Threads,  20980 MiB Core
         ---------------------------------------------------------

  ==> Geometry <==

    Molecular point group: c1
    Full point group: C1

    Geometry (in Angstrom), charge = 0, multiplicity = 1:

       Center              X                  Y                   Z               Mass       
    ------------   -----------------  -----------------  -----------------  -----------------
      Gh(H)          -1.639625464439     1.886524923633    -0.292977856503     1.007825032230
      Gh(C)          -1.979446464439    -0.222613076367    -0.865645856503    12.000000000000
      Gh(C)          -1.729633464439     0.870733923633     0.131941143497    12.000000000000
      Gh(O)          -1.620946464439     0.695171923633     1.331000143497    15.994914619570
      Gh(H)          -1.129112464439    -0.207643076367    -1.555884856503     1.007825032230
      Gh(C)          -2.176690464439    -1.589567076367    -0.235431856503    12.000000000000
      Gh(H)          -1.308368464439    -1.869404076367     0.357455143497     1.007825032230
      Gh(H)          -3.037787464439    -1.585102076367     0.430487143497     1.007825032230
      Gh(H)          -2.334811464439    -2.347026076367    -1.001050856503     1.007825032230
      Gh(H)          -2.844500464439     0.078840923633    -1.464485856503     1.007825032230
         C            1.448720535561     1.819519923633    -0.249971856503    12.000000000000
         C            1.753616535561     0.603554923633    -0.715008856503    12.000000000000
         C            1.569352535561    -0.667774076367     0.050959143497    12.000000000000
         C            2.913398535561    -1.310183076367     0.399721143497    12.000000000000
         H            1.635269535561     2.708505923633    -0.836907856503     1.007825032230
         H            1.010172535561     1.945210923633     0.732421143497     1.007825032230
         H            2.200481535561     0.515896923633    -1.702101856503     1.007825032230
         H            0.999704535561    -0.466505076367     0.960432143497     1.007825032230
         H            0.985952535561    -1.373563076367    -0.547377856503     1.007825032230
         H            3.493347535561    -1.510195076367    -0.501826856503     1.007825032230
         H            3.498680535561    -0.645457076367     1.034142143497     1.007825032230
         H            2.772025535561    -2.253268076367     0.926768143497     1.007825032230

  Running in c1 symmetry.

  Rotational constants: A =      0.07842  B =      0.03322  C =      0.02802 [cm^-1]
  Rotational constants: A =   2351.10691  B =    995.81215  C =    840.01359 [MHz]
  Nuclear repulsion =  117.579901312341704

  Charge       = 0
  Multiplicity = 1
  Electrons    = 32
  Nalpha       = 16
  Nbeta        = 16

  ==> Algorithm <==

  SCF Algorithm Type is DF.
  DIIS enabled.
  MOM disabled.
  Fractional occupation disabled.
  Guess Type is SAD.
  Energy threshold   = 1.00e-08
  Density threshold  = 1.00e-08
  Integral threshold = 0.00e+00

  ==> Primary Basis <==

  Basis Set: JUN-CC-PVTZ
    Blend: JUN-CC-PVTZ
    Number of shells: 188
    Number of basis function: 508
    Number of Cartesian functions: 570
    Spherical Harmonics?: true
    Max angular momentum: 3

   => Loading Basis Set <=

    Name: (JUN-CC-PVTZ AUX)
    Role: JKFIT
    Keyword: DF_BASIS_SCF
    atoms 1, 5, 7-10, 15-22 entry H          line    70 file /home/r08543048/miniconda3/share/psi4/basis/jun-cc-pvtz-jkfit.gbs 
    atoms 2-3, 6, 11-14     entry C          line   152 file /home/r08543048/miniconda3/share/psi4/basis/jun-cc-pvtz-jkfit.gbs 
    atoms 4                 entry O          line   272 file /home/r08543048/miniconda3/share/psi4/basis/jun-cc-pvtz-jkfit.gbs 

  ==> Pre-Iterations <==

   -------------------------------------------------------
    Irrep   Nso     Nmo     Nalpha   Nbeta   Ndocc  Nsocc
   -------------------------------------------------------
     A        508     508       0       0       0       0
   -------------------------------------------------------
    Total     508     508      16      16      16       0
   -------------------------------------------------------

  ==> Integral Setup <==

  ==> DiskDFJK: Density-Fitted J/K Matrices <==

    J tasked:                  Yes
    K tasked:                  Yes
    wK tasked:                  No
    OpenMP threads:              1
    Integrals threads:           1
    Memory [MiB]:            15735
    Algorithm:                Core
    Integral Cache:           LOAD
    Schwarz Cutoff:          1E-12
    Fitting Condition:       1E-10

   => Auxiliary Basis Set <=

  Basis Set: (JUN-CC-PVTZ AUX)
    Blend: JUN-CC-PVTZ-JKFIT
    Number of shells: 372
    Number of basis function: 1180
    Number of Cartesian functions: 1418
    Spherical Harmonics?: true
    Max angular momentum: 4

  Minimum eigenvalue in the overlap matrix is 3.4832822483E-05.
  Using Symmetric Orthogonalization.

  SCF Guess: Superposition of Atomic Densities via on-the-fly atomic UHF.

  ==> Iterations <==

                           Total Energy        Delta E     RMS |[F,P]|

   @DF-RHF iter SAD:  -155.38192853346985   -1.55382e+02   0.00000e+00 
   @DF-RHF iter   1:  -155.99475435200645   -6.12826e-01   1.02914e-03 DIIS
   @DF-RHF iter   2:  -156.13409527957177   -1.39341e-01   4.57620e-04 DIIS
   @DF-RHF iter   3:  -156.16225176370102   -2.81565e-02   8.79254e-05 DIIS
   @DF-RHF iter   4:  -156.16409188000537   -1.84012e-03   3.22078e-05 DIIS
   @DF-RHF iter   5:  -156.16425615740130   -1.64277e-04   6.13252e-06 DIIS
   @DF-RHF iter   6:  -156.16426501726488   -8.85986e-06   1.13960e-06 DIIS
   @DF-RHF iter   7:  -156.16426538031732   -3.63052e-07   2.91462e-07 DIIS
   @DF-RHF iter   8:  -156.16426540483832   -2.45210e-08   8.49817e-08 DIIS
   @DF-RHF iter   9:  -156.16426540707678   -2.23847e-09   3.50279e-08 DIIS
   @DF-RHF iter  10:  -156.16426540751510   -4.38320e-10   1.15054e-08 DIIS
   @DF-RHF iter  11:  -156.16426540756692   -5.18128e-11   2.99864e-09 DIIS
  Energy and wave function converged.


  ==> Post-Iterations <==

    Orbital Energies [Eh]
    ---------------------

    Doubly Occupied:                                                      

       1A    -11.231432     2A    -11.224879     3A    -11.217741  
       4A    -11.214470     5A     -1.081038     6A     -0.987555  
       7A     -0.856252     8A     -0.754974     9A     -0.644804  
      10A     -0.606593    11A     -0.582652    12A     -0.536908  
      13A     -0.517749    14A     -0.486300    15A     -0.476875  
      16A     -0.357082  

    Virtual:                                                              

      17A      0.033965    18A      0.048044    19A      0.050651  
      20A      0.053517    21A      0.066540    22A      0.074561  
      23A      0.075423    24A      0.079640    25A      0.087581  
      26A      0.102276    27A      0.106160    28A      0.109538  
      29A      0.113349    30A      0.114280    31A      0.120514  
      32A      0.128206    33A      0.140112    34A      0.142674  
      35A      0.143833    36A      0.152068    37A      0.156860  
      38A      0.162871    39A      0.168540    40A      0.175269  
      41A      0.183809    42A      0.187141    43A      0.197351  
      44A      0.207802    45A      0.212079    46A      0.218668  
      47A      0.230121    48A      0.237643    49A      0.251524  
      50A      0.260224    51A      0.275351    52A      0.283389  
      53A      0.286786    54A      0.292946    55A      0.299443  
      56A      0.309080    57A      0.312462    58A      0.316536  
      59A      0.325019    60A      0.331009    61A      0.334205  
      62A      0.345517    63A      0.350458    64A      0.353284  
      65A      0.357450    66A      0.365042    67A      0.366912  
      68A      0.374792    69A      0.381652    70A      0.386495  
      71A      0.389399    72A      0.397066    73A      0.398474  
      74A      0.408194    75A      0.411892    76A      0.415028  
      77A      0.429833    78A      0.438324    79A      0.450070  
      80A      0.458959    81A      0.462316    82A      0.475935  
      83A      0.481371    84A      0.486441    85A      0.492877  
      86A      0.504018    87A      0.510938    88A      0.512292  
      89A      0.523526    90A      0.532257    91A      0.539795  
      92A      0.541811    93A      0.547106    94A      0.556622  
      95A      0.565474    96A      0.573345    97A      0.575775  
      98A      0.599848    99A      0.606641   100A      0.611985  
     101A      0.613841   102A      0.619557   103A      0.627689  
     104A      0.635599   105A      0.645883   106A      0.665772  
     107A      0.669351   108A      0.683003   109A      0.685794  
     110A      0.695518   111A      0.699051   112A      0.710997  
     113A      0.719659   114A      0.743154   115A      0.744619  
     116A      0.765416   117A      0.768642   118A      0.788835  
     119A      0.794063   120A      0.810488   121A      0.818095  
     122A      0.823242   123A      0.829470   124A      0.838299  
     125A      0.847592   126A      0.863573   127A      0.869613  
     128A      0.876235   129A      0.894443   130A      0.904136  
     131A      0.917712   132A      0.933591   133A      0.940590  
     134A      0.952655   135A      0.955412   136A      0.965471  
     137A      0.980773   138A      0.992727   139A      1.006024  
     140A      1.015264   141A      1.043353   142A      1.056086  
     143A      1.060309   144A      1.079832   145A      1.091388  
     146A      1.102251   147A      1.116873   148A      1.119614  
     149A      1.126817   150A      1.133235   151A      1.153227  
     152A      1.158988   153A      1.183173   154A      1.192175  
     155A      1.209676   156A      1.216555   157A      1.218646  
     158A      1.233170   159A      1.246613   160A      1.257414  
     161A      1.261501   162A      1.278750   163A      1.289105  
     164A      1.291254   165A      1.303072   166A      1.312705  
     167A      1.320199   168A      1.334997   169A      1.351809  
     170A      1.360345   171A      1.362069   172A      1.367454  
     173A      1.382573   174A      1.391422   175A      1.403098  
     176A      1.408076   177A      1.412903   178A      1.431027  
     179A      1.441941   180A      1.444264   181A      1.454047  
     182A      1.466276   183A      1.475269   184A      1.483589  
     185A      1.493249   186A      1.498113   187A      1.520345  
     188A      1.534453   189A      1.557670   190A      1.562482  
     191A      1.567598   192A      1.581066   193A      1.596038  
     194A      1.602684   195A      1.611254   196A      1.616669  
     197A      1.626139   198A      1.633132   199A      1.643575  
     200A      1.652657   201A      1.670328   202A      1.684443  
     203A      1.688972   204A      1.703123   205A      1.709239  
     206A      1.724570   207A      1.743302   208A      1.748306  
     209A      1.774827   210A      1.778700   211A      1.793477  
     212A      1.806840   213A      1.821299   214A      1.830784  
     215A      1.838885   216A      1.863212   217A      1.876263  
     218A      1.899707   219A      1.913711   220A      1.942294  
     221A      1.957681   222A      1.974493   223A      1.985174  
     224A      2.005644   225A      2.022618   226A      2.076826  
     227A      2.111345   228A      2.115254   229A      2.136995  
     230A      2.151361   231A      2.198658   232A      2.199447  
     233A      2.274720   234A      2.290864   235A      2.365737  
     236A      2.417509   237A      2.428769   238A      2.470192  
     239A      2.542946   240A      2.602568   241A      2.635059  
     242A      2.667660   243A      2.725815   244A      2.749451  
     245A      2.770183   246A      2.805129   247A      2.822911  
     248A      2.828334   249A      2.836285   250A      2.845012  
     251A      2.857560   252A      2.882210   253A      2.896465  
     254A      2.928200   255A      2.944714   256A      2.966251  
     257A      2.977429   258A      3.006081   259A      3.016624  
     260A      3.025525   261A      3.053181   262A      3.068362  
     263A      3.097760   264A      3.112592   265A      3.119973  
     266A      3.141923   267A      3.144074   268A      3.169056  
     269A      3.201376   270A      3.211701   271A      3.223997  
     272A      3.231324   273A      3.265232   274A      3.266984  
     275A      3.281204   276A      3.324070   277A      3.328910  
     278A      3.329504   279A      3.362276   280A      3.383106  
     281A      3.396929   282A      3.415473   283A      3.424417  
     284A      3.455577   285A      3.463980   286A      3.478781  
     287A      3.489622   288A      3.504020   289A      3.516661  
     290A      3.529873   291A      3.541682   292A      3.542860  
     293A      3.554143   294A      3.572068   295A      3.582848  
     296A      3.587079   297A      3.590034   298A      3.598375  
     299A      3.613526   300A      3.641280   301A      3.660460  
     302A      3.667360   303A      3.681762   304A      3.692463  
     305A      3.705560   306A      3.716359   307A      3.731441  
     308A      3.740842   309A      3.753210   310A      3.777418  
     311A      3.816284   312A      3.818891   313A      3.829338  
     314A      3.831050   315A      3.844763   316A      3.854853  
     317A      3.864091   318A      3.872034   319A      3.893872  
     320A      3.898512   321A      3.902909   322A      3.909344  
     323A      3.927453   324A      3.943458   325A      3.962459  
     326A      3.989425   327A      3.994143   328A      4.010656  
     329A      4.021304   330A      4.043824   331A      4.052965  
     332A      4.061733   333A      4.085726   334A      4.120662  
     335A      4.133029   336A      4.134411   337A      4.149844  
     338A      4.185929   339A      4.196210   340A      4.221937  
     341A      4.232530   342A      4.245327   343A      4.255128  
     344A      4.273498   345A      4.287289   346A      4.307327  
     347A      4.318037   348A      4.319659   349A      4.355574  
     350A      4.360984   351A      4.376824   352A      4.387056  
     353A      4.403996   354A      4.420305   355A      4.432042  
     356A      4.436260   357A      4.452786   358A      4.456649  
     359A      4.461603   360A      4.469865   361A      4.477494  
     362A      4.494810   363A      4.498692   364A      4.506062  
     365A      4.524539   366A      4.533833   367A      4.552463  
     368A      4.556521   369A      4.576256   370A      4.586840  
     371A      4.601767   372A      4.623689   373A      4.628151  
     374A      4.640580   375A      4.647416   376A      4.666570  
     377A      4.669666   378A      4.679673   379A      4.717035  
     380A      4.725629   381A      4.729632   382A      4.742279  
     383A      4.752941   384A      4.785709   385A      4.799762  
     386A      4.807535   387A      4.812254   388A      4.836713  
     389A      4.838775   390A      4.849395   391A      4.860340  
     392A      4.870414   393A      4.874048   394A      4.885961  
     395A      4.893318   396A      4.907338   397A      4.930366  
     398A      4.949291   399A      4.957064   400A      4.967821  
     401A      4.982159   402A      4.986746   403A      4.992246  
     404A      4.996143   405A      5.007166   406A      5.028472  
     407A      5.051949   408A      5.074107   409A      5.082765  
     410A      5.099924   411A      5.114326   412A      5.133140  
     413A      5.152124   414A      5.195694   415A      5.206597  
     416A      5.230831   417A      5.248189   418A      5.257053  
     419A      5.279950   420A      5.293688   421A      5.305882  
     422A      5.314465   423A      5.355137   424A      5.362858  
     425A      5.373499   426A      5.410205   427A      5.415651  
     428A      5.441026   429A      5.462886   430A      5.509058  
     431A      5.566708   432A      5.574989   433A      5.622936  
     434A      5.639812   435A      5.666175   436A      5.678298  
     437A      5.715564   438A      5.740867   439A      5.745602  
     440A      5.770295   441A      5.791060   442A      5.807220  
     443A      5.825829   444A      5.870671   445A      5.880486  
     446A      5.911912   447A      5.929019   448A      5.956014  
     449A      6.029700   450A      6.045014   451A      6.086294  
     452A      6.115859   453A      6.160259   454A      6.211999  
     455A      6.249975   456A      6.332980   457A      6.378463  
     458A      6.397974   459A      6.418229   460A      6.441627  
     461A      6.455232   462A      6.483400   463A      6.501201  
     464A      6.508435   465A      6.513010   466A      6.515939  
     467A      6.607965   468A      6.630150   469A      6.668849  
     470A      6.715305   471A      6.880339   472A      6.902526  
     473A      6.974213   474A      7.028616   475A      7.332016  
     476A      7.357615   477A      7.546998   478A      7.567557  
     479A      7.701281   480A      7.723280   481A      7.802176  
     482A      7.884273   483A      7.901366   484A      8.030890  
     485A      8.144566   486A      8.261835   487A      8.476340  
     488A      8.569121   489A      9.443786   490A      9.509436  
     491A      9.660014   492A      9.835724   493A      9.880415  
     494A      9.914172   495A      9.940896   496A     10.101804  
     497A     11.027653   498A     11.709498   499A     11.984734  
     500A     12.308455   501A     13.746895   502A     14.253986  
     503A     14.504404   504A     15.342842   505A     43.673452  
     506A     44.939204   507A     45.895571   508A     60.859766  

    Final Occupation by Irrep:
              A 
    DOCC [    16 ]

  @DF-RHF Final Energy:  -156.16426540756692

   => Energetics <=

    Nuclear Repulsion Energy =            117.5799013123417041
    One-Electron Energy =                -441.9337252976398531
    Two-Electron Energy =                 168.1895585777312476
    Total Energy =                       -156.1642654075669157

Computation Completed


Properties will be evaluated at   0.000000,   0.000000,   0.000000 [a0]

Properties computed using the SCF density matrix

  Nuclear Dipole Moment: [e a0]
     X:   118.4975      Y:     3.0072      Z:    -5.7075

  Electronic Dipole Moment: [e a0]
     X:  -118.4675      Y:    -3.1753      Z:     5.7252

  Dipole Moment: [e a0]
     X:     0.0299      Y:    -0.1681      Z:     0.0178     Total:     0.1717

  Dipole Moment: [D]
     X:     0.0761      Y:    -0.4274      Z:     0.0452     Total:     0.4364


*** tstop() called on r282 at Fri Sep 10 14:22:39 2021
Module time:
	user time   =      36.67 seconds =       0.61 minutes
	system time =       0.69 seconds =       0.01 minutes
	total time  =         37 seconds =       0.62 minutes
Total time:
	user time   =     143.31 seconds =       2.39 minutes
	system time =       2.88 seconds =       0.05 minutes
	total time  =        146 seconds =       2.43 minutes
  Constructing Basis Sets for SAPT...

   => Loading Basis Set <=

    Name: (JUN-CC-PVTZ AUX)
    Role: RIFIT
    Keyword: DF_BASIS_SAPT
    atoms 1, 5, 7-10, 15-22 entry H          line    30 file /home/r08543048/miniconda3/share/psi4/basis/jun-cc-pvtz-ri.gbs 
    atoms 2-3, 6, 11-14     entry C          line   132 file /home/r08543048/miniconda3/share/psi4/basis/jun-cc-pvtz-ri.gbs 
    atoms 4                 entry O          line   244 file /home/r08543048/miniconda3/share/psi4/basis/jun-cc-pvtz-ri.gbs 


  //>>>>>>>>>>>>>>>>>>>>>>>>>>>>>>>>>>>//
  //               SAPT0               //
  //<<<<<<<<<<<<<<<<<<<<<<<<<<<<<<<<<<<//


*** tstart() called on r282
*** at Fri Sep 10 14:22:39 2021

        SAPT0  
    Ed Hohenstein
     6 June 2009

      Orbital Information
  --------------------------
    NSO        =       508
    NMO        =       508
    NRI        =      1196
    NOCC A     =        16
    NOCC B     =        16
    FOCC A     =         0
    FOCC B     =         0
    NVIR A     =       492
    NVIR B     =       492

    Elst10,r            =    -0.004993153016 [Eh]
    Exch10              =     0.008063546727 [Eh]
    Exch10 (S^2)        =     0.008039881298 [Eh]

    Iter     Energy [mEh]          dE [mEh]         Residual      Time [s]
       1      -0.47817291       0.478172911       3.950912303             1
       2      -0.52861346       0.050440548       1.833659455             2
       3      -0.56383985       0.035226390       0.413555309             3
       4      -0.56396779       0.000127939       0.179364404             4
       5      -0.56224850      -0.001719285       0.055224045             5
       6      -0.56256790       0.000319400       0.023192114             5
       7      -0.56264694       0.000079036       0.007740815             6
       8      -0.56259681      -0.000050134       0.003742934             7
       9      -0.56259848       0.000001677       0.001676671             8
      10      -0.56260510       0.000006614       0.000502723             9
      11      -0.56260483      -0.000000267       0.000129065            10
      12      -0.56260435      -0.000000478       0.000036273            11
      13      -0.56260441       0.000000060       0.000010891            12
      14      -0.56260444       0.000000029       0.000003219            13
      15      -0.56260444      -0.000000004       0.000000805            14

    CHF Iterations converged


    Iter     Energy [mEh]          dE [mEh]         Residual      Time [s]
       1      -1.98026132       1.980261323       6.890318514             1
       2      -2.44778834       0.467527019       2.664710819             2
       3      -2.50194236       0.054154016       0.648516841             2
       4      -2.49339864      -0.008543720       0.259029985             3
       5      -2.48940286      -0.003995773       0.050938166             4
       6      -2.48984186       0.000438996       0.019062751             5
       7      -2.49008032       0.000238460       0.005351719             6
       8      -2.49001309      -0.000067234       0.001785076             7
       9      -2.49001133      -0.000001759       0.000551853             8
      10      -2.49001568       0.000004356       0.000160125             9
      11      -2.49001587       0.000000189       0.000036892            10
      12      -2.49001554      -0.000000329       0.000007197            11
      13      -2.49001559       0.000000049       0.000001541            12
      14      -2.49001559      -0.000000000       0.000000473            13

    CHF Iterations converged

    Ind20,r (A<-B)      =    -0.000562604437 [Eh]
    Ind20,r (B<-A)      =    -0.002490015591 [Eh]
    Ind20,r             =    -0.003052620028 [Eh]
    Exch-Ind20,r (A<-B) =     0.000431783810 [Eh]
    Exch-Ind20,r (B<-A) =     0.002039006671 [Eh]
    Exch-Ind20,r        =     0.002470790482 [Eh]
    Disp20              =    -0.008922983623 [Eh]
    Disp20 (SS)         =    -0.004461491811 [Eh]
    Disp20 (OS)         =    -0.004461491811 [Eh]
    Exch-Disp20         =     0.000931089098 [Eh]
    Exch-Disp20 (SS)    =     0.000608110200 [Eh]
    Exch-Disp20 (OS)    =     0.000322978898 [Eh]

    SAPT Results 
  --------------------------------------------------------------------------------------------------------
    Electrostatics                 -4.99315302 [mEh]      -3.13325082 [kcal/mol]     -13.10952144 [kJ/mol]
      Elst10,r                     -4.99315302 [mEh]      -3.13325082 [kcal/mol]     -13.10952144 [kJ/mol]

    Exchange                        8.06354673 [mEh]       5.05995196 [kcal/mol]      21.17083901 [kJ/mol]
      Exch10                        8.06354673 [mEh]       5.05995196 [kcal/mol]      21.17083901 [kJ/mol]
      Exch10(S^2)                   8.03988130 [mEh]       5.04510168 [kcal/mol]      21.10870544 [kJ/mol]

    Induction                      -1.22484618 [mEh]      -0.76860258 [kcal/mol]      -3.21583321 [kJ/mol]
      Ind20,r                      -3.05262003 [mEh]      -1.91554799 [kcal/mol]      -8.01465278 [kJ/mol]
      Exch-Ind20,r                  2.47079048 [mEh]       1.55044444 [kcal/mol]       6.48705952 [kJ/mol]
      delta HF,r (2)               -0.64301663 [mEh]      -0.40349903 [kcal/mol]      -1.68823994 [kJ/mol]

    Dispersion                     -7.99189452 [mEh]      -5.01498953 [kcal/mol]     -20.98271618 [kJ/mol]
      Disp20                       -8.92298362 [mEh]      -5.59925676 [kcal/mol]     -23.42729027 [kJ/mol]
      Exch-Disp20                   0.93108910 [mEh]       0.58426723 [kcal/mol]       2.44457409 [kJ/mol]
      Disp20 (SS)                  -4.46149181 [mEh]      -2.79962838 [kcal/mol]     -11.71364514 [kJ/mol]
      Disp20 (OS)                  -4.46149181 [mEh]      -2.79962838 [kcal/mol]     -11.71364514 [kJ/mol]
      Exch-Disp20 (SS)              0.60811020 [mEh]       0.38159491 [kcal/mol]       1.59659311 [kJ/mol]
      Exch-Disp20 (OS)              0.32297890 [mEh]       0.20267232 [kcal/mol]       0.84798098 [kJ/mol]

  Total HF                          1.84554753 [mEh]       1.15809856 [kcal/mol]       4.84548437 [kJ/mol]
  Total SAPT0                      -6.14634699 [mEh]      -3.85689097 [kcal/mol]     -16.13723181 [kJ/mol]

  Special recipe for scaled SAPT0 (see Manual):
    Electrostatics sSAPT0          -4.99315302 [mEh]      -3.13325082 [kcal/mol]     -13.10952144 [kJ/mol]
    Exchange sSAPT0                 8.06354673 [mEh]       5.05995196 [kcal/mol]      21.17083901 [kJ/mol]
    Induction sSAPT0               -1.20296355 [mEh]      -0.75487102 [kcal/mol]      -3.15838035 [kJ/mol]
    Dispersion sSAPT0              -7.98364830 [mEh]      -5.00981495 [kcal/mol]     -20.96106573 [kJ/mol]
  Total sSAPT0                     -6.11621814 [mEh]      -3.83798483 [kcal/mol]     -16.05812851 [kJ/mol]
  --------------------------------------------------------------------------------------------------------

*** tstop() called on r282 at Fri Sep 10 14:24:43 2021
Module time:
	user time   =     105.08 seconds =       1.75 minutes
	system time =      17.65 seconds =       0.29 minutes
	total time  =        124 seconds =       2.07 minutes
Total time:
	user time   =     248.54 seconds =       4.14 minutes
	system time =      20.53 seconds =       0.34 minutes
	total time  =        270 seconds =       4.50 minutes

    Psi4 stopped on: Friday, 10 September 2021 02:24PM
    Psi4 wall time for execution: 0:04:30.21

*** Psi4 exiting successfully. Buy a developer a beer!
