
    -----------------------------------------------------------------------
          Psi4: An Open-Source Ab Initio Electronic Structure Package
                               Psi4 1.3.2 release

                         Git: Rev {HEAD} ecbda83 


    R. M. Parrish, L. A. Burns, D. G. A. Smith, A. C. Simmonett,
    A. E. DePrince III, E. G. Hohenstein, U. Bozkaya, A. Yu. Sokolov,
    R. Di Remigio, R. M. Richard, J. F. Gonthier, A. M. James,
    H. R. McAlexander, A. Kumar, M. Saitow, X. Wang, B. P. Pritchard,
    P. Verma, H. F. Schaefer III, K. Patkowski, R. A. King, E. F. Valeev,
    F. A. Evangelista, J. M. Turney, T. D. Crawford, and C. D. Sherrill,
    J. Chem. Theory Comput. 13(7) pp 3185--3197 (2017).
    (doi: 10.1021/acs.jctc.7b00174)


                         Additional Contributions by
    P. Kraus, H. Kruse, M. H. Lechner, M. C. Schieber, R. A. Shaw,
    A. Alenaizan, R. Galvelis, Z. L. Glick, S. Lehtola, and J. P. Misiewicz

    -----------------------------------------------------------------------


    Psi4 started on: Friday, 10 September 2021 02:31PM

    Process ID: 56745
    Host:       r282
    PSIDATADIR: /home/r08543048/miniconda3/share/psi4
    Memory:     500.0 MiB
    Threads:    1
    
  ==> Input File <==

--------------------------------------------------------------------------
# Any line starting with the # character is a comment line
#! Sample  computation

memory 22 gb

molecule Dimer {
0 1
 H   0.524586    2.136419    1.215209
 C  -0.892495    0.504879    0.745007
 C   0.082492    1.579608    0.367061
 O   0.400949    1.855848   -0.774117
 H  -1.664107    0.970576    1.369050
 C  -1.502195   -0.232987   -0.432491
 H  -2.013006    0.482289   -1.078790
 H  -0.699649   -0.666355   -1.030473
 H  -0.356985   -0.184484    1.408143
 C  -2.465855   -1.320432    0.024435
 H  -1.954464   -2.055508    0.647281
 H  -3.283041   -0.898596    0.611064
 H  -2.901031   -1.846121   -0.824530
  
  

    
    
 --
0 1
 C   2.597854   -0.855072    0.585677
 H   2.850874   -1.633601    1.292246
 H   2.753253    0.169284    0.897154
 C   2.126423   -1.141967   -0.629123
 H   1.875851   -0.358604   -1.331313
 H   1.982785   -2.166252   -0.945496
   
   
   
   
   
   
   
   
   




units angstrom

no_reorient
symmetry c1
}

set globals{
  basis jun-cc-pvtz
}

energy('sapt0')


--------------------------------------------------------------------------

  Memory set to  20.489 GiB by Python driver.

  //>>>>>>>>>>>>>>>>>>>>>>>>>>>>>>>>>>>//
  //              Dimer HF             //
  //<<<<<<<<<<<<<<<<<<<<<<<<<<<<<<<<<<<//


*** tstart() called on r282
*** at Fri Sep 10 14:31:27 2021

   => Loading Basis Set <=

    Name: JUN-CC-PVTZ
    Role: ORBITAL
    Keyword: BASIS
    atoms 1, 5, 7-9, 11-13, 15-16, 18-19 entry H          line    36 file /home/r08543048/miniconda3/share/psi4/basis/jun-cc-pvtz.gbs 
    atoms 2-3, 6, 10, 14, 17             entry C          line   217 file /home/r08543048/miniconda3/share/psi4/basis/jun-cc-pvtz.gbs 
    atoms 4                              entry O          line   305 file /home/r08543048/miniconda3/share/psi4/basis/jun-cc-pvtz.gbs 


         ---------------------------------------------------------
                                   SCF
               by Justin Turney, Rob Parrish, Andy Simmonett
                          and Daniel G. A. Smith
                              RHF Reference
                        1 Threads,  20980 MiB Core
         ---------------------------------------------------------

  ==> Geometry <==

    Molecular point group: c1
    Full point group: C1

    Geometry (in Angstrom), charge = 0, multiplicity = 1:

       Center              X                  Y                   Z               Mass       
    ------------   -----------------  -----------------  -----------------  -----------------
         H            0.496008138227     2.076530425994     1.237270926290     1.007825032230
         C           -0.921072861773     0.444990425994     0.767068926290    12.000000000000
         C            0.053914138227     1.519719425994     0.389122926290    12.000000000000
         O            0.372371138227     1.795959425994    -0.752055073710    15.994914619570
         H           -1.692684861773     0.910687425994     1.391111926290     1.007825032230
         C           -1.530772861773    -0.292875574006    -0.410429073710    12.000000000000
         H           -2.041583861773     0.422400425994    -1.056728073710     1.007825032230
         H           -0.728226861773    -0.726243574006    -1.008411073710     1.007825032230
         H           -0.385562861773    -0.244372574006     1.430204926290     1.007825032230
         C           -2.494432861773    -1.380320574006     0.046496926290    12.000000000000
         H           -1.983041861773    -2.115396574006     0.669342926290     1.007825032230
         H           -3.311618861773    -0.958484574006     0.633125926290     1.007825032230
         H           -2.929608861773    -1.906009574006    -0.802468073710     1.007825032230
         C            2.569276138227    -0.914960574006     0.607738926290    12.000000000000
         H            2.822296138227    -1.693489574006     1.314307926290     1.007825032230
         H            2.724675138227     0.109395425994     0.919215926290     1.007825032230
         C            2.097845138227    -1.201855574006    -0.607061073710    12.000000000000
         H            1.847273138227    -0.418492574006    -1.309251073710     1.007825032230
         H            1.954207138227    -2.226140574006    -0.923434073710     1.007825032230

  Running in c1 symmetry.

  Rotational constants: A =      0.08461  B =      0.04888  C =      0.03681 [cm^-1]
  Rotational constants: A =   2536.47693  B =   1465.51280  C =   1103.57114 [MHz]
  Nuclear repulsion =  291.098327085424614

  Charge       = 0
  Multiplicity = 1
  Electrons    = 56
  Nalpha       = 28
  Nbeta        = 28

  ==> Algorithm <==

  SCF Algorithm Type is DF.
  DIIS enabled.
  MOM disabled.
  Fractional occupation disabled.
  Guess Type is SAD.
  Energy threshold   = 1.00e-08
  Density threshold  = 1.00e-08
  Integral threshold = 0.00e+00

  ==> Primary Basis <==

  Basis Set: JUN-CC-PVTZ
    Blend: JUN-CC-PVTZ
    Number of shells: 163
    Number of basis function: 441
    Number of Cartesian functions: 495
    Spherical Harmonics?: true
    Max angular momentum: 3

   => Loading Basis Set <=

    Name: (JUN-CC-PVTZ AUX)
    Role: JKFIT
    Keyword: DF_BASIS_SCF
    atoms 1, 5, 7-9, 11-13, 15-16, 18-19 entry H          line    70 file /home/r08543048/miniconda3/share/psi4/basis/jun-cc-pvtz-jkfit.gbs 
    atoms 2-3, 6, 10, 14, 17             entry C          line   152 file /home/r08543048/miniconda3/share/psi4/basis/jun-cc-pvtz-jkfit.gbs 
    atoms 4                              entry O          line   272 file /home/r08543048/miniconda3/share/psi4/basis/jun-cc-pvtz-jkfit.gbs 

  ==> Pre-Iterations <==

   -------------------------------------------------------
    Irrep   Nso     Nmo     Nalpha   Nbeta   Ndocc  Nsocc
   -------------------------------------------------------
     A        441     441       0       0       0       0
   -------------------------------------------------------
    Total     441     441      28      28      28       0
   -------------------------------------------------------

  ==> Integral Setup <==

  ==> DiskDFJK: Density-Fitted J/K Matrices <==

    J tasked:                  Yes
    K tasked:                  Yes
    wK tasked:                  No
    OpenMP threads:              1
    Integrals threads:           1
    Memory [MiB]:            15735
    Algorithm:                Core
    Integral Cache:           SAVE
    Schwarz Cutoff:          1E-12
    Fitting Condition:       1E-10

   => Auxiliary Basis Set <=

  Basis Set: (JUN-CC-PVTZ AUX)
    Blend: JUN-CC-PVTZ-JKFIT
    Number of shells: 323
    Number of basis function: 1025
    Number of Cartesian functions: 1232
    Spherical Harmonics?: true
    Max angular momentum: 4

  Minimum eigenvalue in the overlap matrix is 3.4503032615E-05.
  Using Symmetric Orthogonalization.

  SCF Guess: Superposition of Atomic Densities via on-the-fly atomic UHF.

  ==> Iterations <==

                           Total Energy        Delta E     RMS |[F,P]|

   @DF-RHF iter SAD:  -307.64359450189403   -3.07644e+02   0.00000e+00 
   @DF-RHF iter   1:  -308.85245294895992   -1.20886e+00   1.60623e-03 DIIS
   @DF-RHF iter   2:  -309.06685768289634   -2.14405e-01   9.01321e-04 DIIS
   @DF-RHF iter   3:  -309.12963505223138   -6.27774e-02   1.94078e-04 DIIS
   @DF-RHF iter   4:  -309.13380863521365   -4.17358e-03   8.41268e-05 DIIS
   @DF-RHF iter   5:  -309.13462048599530   -8.11851e-04   1.29544e-05 DIIS
   @DF-RHF iter   6:  -309.13466028629421   -3.98003e-05   5.37608e-06 DIIS
   @DF-RHF iter   7:  -309.13466634030925   -6.05402e-06   2.23719e-06 DIIS
   @DF-RHF iter   8:  -309.13466760570782   -1.26540e-06   7.88960e-07 DIIS
   @DF-RHF iter   9:  -309.13466779691220   -1.91204e-07   1.88456e-07 DIIS
   @DF-RHF iter  10:  -309.13466780685928   -9.94709e-09   6.80160e-08 DIIS
   @DF-RHF iter  11:  -309.13466780765879   -7.99503e-10   1.80398e-08 DIIS
   @DF-RHF iter  12:  -309.13466780774769   -8.89031e-11   7.03893e-09 DIIS
  Energy and wave function converged.


  ==> Post-Iterations <==

    Orbital Energies [Eh]
    ---------------------

    Doubly Occupied:                                                      

       1A    -20.555249     2A    -11.331733     3A    -11.237862  
       4A    -11.230801     5A    -11.229004     6A    -11.222720  
       7A    -11.216255     8A     -1.386937     9A     -1.081068  
      10A     -1.034561    11A     -0.975653    12A     -0.847184  
      13A     -0.793321    14A     -0.768536    15A     -0.672024  
      16A     -0.652184    17A     -0.642713    18A     -0.631498  
      19A     -0.586798    20A     -0.567326    21A     -0.566125  
      22A     -0.510728    23A     -0.509480    24A     -0.500776  
      25A     -0.489317    26A     -0.477315    27A     -0.419372  
      28A     -0.377273  

    Virtual:                                                              

      29A      0.044472    30A      0.048556    31A      0.059490  
      32A      0.061725    33A      0.068928    34A      0.077710  
      35A      0.087483    36A      0.088676    37A      0.093460  
      38A      0.102816    39A      0.112064    40A      0.118191  
      41A      0.119855    42A      0.124299    43A      0.128394  
      44A      0.132797    45A      0.144453    46A      0.154366  
      47A      0.163102    48A      0.172894    49A      0.178233  
      50A      0.182878    51A      0.191926    52A      0.195788  
      53A      0.211388    54A      0.219312    55A      0.234368  
      56A      0.251441    57A      0.260382    58A      0.267403  
      59A      0.277358    60A      0.282447    61A      0.288650  
      62A      0.298247    63A      0.300023    64A      0.301782  
      65A      0.312952    66A      0.321450    67A      0.324787  
      68A      0.329473    69A      0.335291    70A      0.340851  
      71A      0.347797    72A      0.355359    73A      0.361901  
      74A      0.368747    75A      0.369988    76A      0.373019  
      77A      0.390489    78A      0.391718    79A      0.395571  
      80A      0.405605    81A      0.411295    82A      0.417537  
      83A      0.424591    84A      0.434930    85A      0.445401  
      86A      0.453311    87A      0.465675    88A      0.468742  
      89A      0.477568    90A      0.493390    91A      0.495382  
      92A      0.509667    93A      0.526280    94A      0.533338  
      95A      0.538383    96A      0.543582    97A      0.551504  
      98A      0.557015    99A      0.559828   100A      0.568480  
     101A      0.590586   102A      0.602510   103A      0.626630  
     104A      0.640180   105A      0.643267   106A      0.653310  
     107A      0.658523   108A      0.680533   109A      0.687286  
     110A      0.699622   111A      0.711229   112A      0.731494  
     113A      0.734371   114A      0.740310   115A      0.752386  
     116A      0.758317   117A      0.767666   118A      0.771062  
     119A      0.786316   120A      0.795133   121A      0.805098  
     122A      0.819048   123A      0.826347   124A      0.828319  
     125A      0.837253   126A      0.856055   127A      0.861555  
     128A      0.869352   129A      0.877344   130A      0.881320  
     131A      0.889225   132A      0.894002   133A      0.917888  
     134A      0.924195   135A      0.939648   136A      0.948294  
     137A      0.953561   138A      0.978245   139A      0.987465  
     140A      1.003848   141A      1.010902   142A      1.033833  
     143A      1.051397   144A      1.061066   145A      1.076031  
     146A      1.082404   147A      1.098755   148A      1.101609  
     149A      1.117981   150A      1.129199   151A      1.154475  
     152A      1.158308   153A      1.171217   154A      1.204844  
     155A      1.209627   156A      1.227322   157A      1.238160  
     158A      1.253591   159A      1.266082   160A      1.276203  
     161A      1.296929   162A      1.308277   163A      1.314918  
     164A      1.329724   165A      1.346531   166A      1.351140  
     167A      1.357405   168A      1.366945   169A      1.379811  
     170A      1.401993   171A      1.405677   172A      1.427643  
     173A      1.438546   174A      1.446591   175A      1.459611  
     176A      1.467651   177A      1.477864   178A      1.480341  
     179A      1.486199   180A      1.525328   181A      1.531757  
     182A      1.551574   183A      1.569895   184A      1.578521  
     185A      1.589747   186A      1.602675   187A      1.604458  
     188A      1.611355   189A      1.629578   190A      1.633510  
     191A      1.648189   192A      1.661442   193A      1.674662  
     194A      1.679395   195A      1.693472   196A      1.700193  
     197A      1.720731   198A      1.732120   199A      1.771926  
     200A      1.785378   201A      1.815650   202A      1.853788  
     203A      1.870668   204A      1.872587   205A      1.899443  
     206A      1.917516   207A      1.922889   208A      1.938719  
     209A      1.971824   210A      1.988273   211A      1.998278  
     212A      2.016775   213A      2.031815   214A      2.051078  
     215A      2.179835   216A      2.303340   217A      2.378976  
     218A      2.404504   219A      2.468250   220A      2.577867  
     221A      2.600154   222A      2.690757   223A      2.718092  
     224A      2.737851   225A      2.752367   226A      2.756567  
     227A      2.775197   228A      2.786301   229A      2.794802  
     230A      2.820249   231A      2.833034   232A      2.848835  
     233A      2.876426   234A      2.889217   235A      2.903052  
     236A      2.924605   237A      2.941883   238A      2.974762  
     239A      2.975999   240A      2.989264   241A      3.003935  
     242A      3.031935   243A      3.039396   244A      3.064223  
     245A      3.079135   246A      3.101631   247A      3.109025  
     248A      3.115199   249A      3.118677   250A      3.139160  
     251A      3.140560   252A      3.142876   253A      3.156869  
     254A      3.184510   255A      3.208430   256A      3.216237  
     257A      3.242754   258A      3.267015   259A      3.275611  
     260A      3.282804   261A      3.290844   262A      3.308416  
     263A      3.316483   264A      3.333978   265A      3.344093  
     266A      3.355245   267A      3.370279   268A      3.393168  
     269A      3.414505   270A      3.425819   271A      3.434005  
     272A      3.447634   273A      3.452630   274A      3.456344  
     275A      3.468301   276A      3.473733   277A      3.486158  
     278A      3.490529   279A      3.502002   280A      3.508394  
     281A      3.521116   282A      3.522992   283A      3.535920  
     284A      3.549673   285A      3.559639   286A      3.566426  
     287A      3.579409   288A      3.587776   289A      3.592575  
     290A      3.605950   291A      3.617576   292A      3.630854  
     293A      3.640188   294A      3.657923   295A      3.680376  
     296A      3.708070   297A      3.744895   298A      3.755269  
     299A      3.766018   300A      3.774363   301A      3.782370  
     302A      3.796877   303A      3.833377   304A      3.860766  
     305A      3.875649   306A      3.897369   307A      3.912282  
     308A      3.936197   309A      3.941000   310A      3.948973  
     311A      3.960020   312A      4.009122   313A      4.017484  
     314A      4.025719   315A      4.029819   316A      4.039036  
     317A      4.046983   318A      4.052904   319A      4.059718  
     320A      4.088288   321A      4.110394   322A      4.129477  
     323A      4.182886   324A      4.199939   325A      4.209944  
     326A      4.240673   327A      4.264082   328A      4.272231  
     329A      4.278635   330A      4.288612   331A      4.298661  
     332A      4.306046   333A      4.324932   334A      4.329927  
     335A      4.336373   336A      4.353051   337A      4.364979  
     338A      4.376877   339A      4.390281   340A      4.403389  
     341A      4.416866   342A      4.438798   343A      4.440544  
     344A      4.467232   345A      4.484716   346A      4.498206  
     347A      4.507953   348A      4.529357   349A      4.545657  
     350A      4.563863   351A      4.580760   352A      4.598705  
     353A      4.608939   354A      4.632848   355A      4.652291  
     356A      4.657455   357A      4.693298   358A      4.699194  
     359A      4.730397   360A      4.747942   361A      4.818604  
     362A      4.820842   363A      4.846323   364A      4.855931  
     365A      4.881433   366A      4.889215   367A      4.897692  
     368A      4.909061   369A      4.948282   370A      4.983718  
     371A      5.007546   372A      5.020716   373A      5.058107  
     374A      5.089402   375A      5.095285   376A      5.106670  
     377A      5.111669   378A      5.143250   379A      5.168289  
     380A      5.191017   381A      5.241295   382A      5.270345  
     383A      5.284595   384A      5.291521   385A      5.316202  
     386A      5.340652   387A      5.358860   388A      5.375598  
     389A      5.399040   390A      5.406552   391A      5.425743  
     392A      5.430882   393A      5.438988   394A      5.459391  
     395A      5.518110   396A      5.521688   397A      5.578665  
     398A      5.588360   399A      5.618688   400A      5.631461  
     401A      5.671447   402A      5.698112   403A      5.708816  
     404A      5.758371   405A      5.760384   406A      5.800237  
     407A      5.813357   408A      5.847006   409A      5.885146  
     410A      5.905612   411A      5.942326   412A      5.961744  
     413A      5.979336   414A      6.063186   415A      6.116976  
     416A      6.130478   417A      6.246076   418A      6.296025  
     419A      6.321863   420A      6.429308   421A      6.505475  
     422A      6.518534   423A      6.560562   424A      6.569129  
     425A      6.605185   426A      6.800241   427A      6.853112  
     428A      6.972326   429A      7.239756   430A      7.294555  
     431A      7.306889   432A      7.442493   433A      7.630500  
     434A      7.718729   435A     12.524010   436A     12.839479  
     437A     13.947485   438A     14.289035   439A     14.436863  
     440A     14.546484   441A     15.557125  

    Final Occupation by Irrep:
              A 
    DOCC [    28 ]

  @DF-RHF Final Energy:  -309.13466780774769

   => Energetics <=

    Nuclear Repulsion Energy =            291.0983270854246143
    One-Electron Energy =                -995.4383675243064999
    Two-Electron Energy =                 395.2053726311342530
    Total Energy =                       -309.1346678077476895

Computation Completed


Properties will be evaluated at   0.000000,   0.000000,   0.000000 [a0]

Properties computed using the SCF density matrix

  Nuclear Dipole Moment: [e a0]
     X:    -3.0242      Y:    -6.3377      Z:     2.3347

  Electronic Dipole Moment: [e a0]
     X:     2.5800      Y:     5.8751      Z:    -1.3662

  Dipole Moment: [e a0]
     X:    -0.4443      Y:    -0.4626      Z:     0.9685     Total:     1.1616

  Dipole Moment: [D]
     X:    -1.1293      Y:    -1.1757      Z:     2.4617     Total:     2.9525


*** tstop() called on r282 at Fri Sep 10 14:32:09 2021
Module time:
	user time   =      40.51 seconds =       0.68 minutes
	system time =       0.99 seconds =       0.02 minutes
	total time  =         42 seconds =       0.70 minutes
Total time:
	user time   =      40.51 seconds =       0.68 minutes
	system time =       0.99 seconds =       0.02 minutes
	total time  =         42 seconds =       0.70 minutes

  //>>>>>>>>>>>>>>>>>>>>>>>>>>>>>>>>>>>//
  //            Monomer A HF           //
  //<<<<<<<<<<<<<<<<<<<<<<<<<<<<<<<<<<<//


*** tstart() called on r282
*** at Fri Sep 10 14:32:09 2021

   => Loading Basis Set <=

    Name: JUN-CC-PVTZ
    Role: ORBITAL
    Keyword: BASIS
    atoms 1, 5, 7-9, 11-13, 15-16, 18-19 entry H          line    36 file /home/r08543048/miniconda3/share/psi4/basis/jun-cc-pvtz.gbs 
    atoms 2-3, 6, 10, 14, 17             entry C          line   217 file /home/r08543048/miniconda3/share/psi4/basis/jun-cc-pvtz.gbs 
    atoms 4                              entry O          line   305 file /home/r08543048/miniconda3/share/psi4/basis/jun-cc-pvtz.gbs 


         ---------------------------------------------------------
                                   SCF
               by Justin Turney, Rob Parrish, Andy Simmonett
                          and Daniel G. A. Smith
                              RHF Reference
                        1 Threads,  20980 MiB Core
         ---------------------------------------------------------

  ==> Geometry <==

    Molecular point group: c1
    Full point group: C1

    Geometry (in Angstrom), charge = 0, multiplicity = 1:

       Center              X                  Y                   Z               Mass       
    ------------   -----------------  -----------------  -----------------  -----------------
         H            0.496008138227     2.076530425994     1.237270926290     1.007825032230
         C           -0.921072861773     0.444990425994     0.767068926290    12.000000000000
         C            0.053914138227     1.519719425994     0.389122926290    12.000000000000
         O            0.372371138227     1.795959425994    -0.752055073710    15.994914619570
         H           -1.692684861773     0.910687425994     1.391111926290     1.007825032230
         C           -1.530772861773    -0.292875574006    -0.410429073710    12.000000000000
         H           -2.041583861773     0.422400425994    -1.056728073710     1.007825032230
         H           -0.728226861773    -0.726243574006    -1.008411073710     1.007825032230
         H           -0.385562861773    -0.244372574006     1.430204926290     1.007825032230
         C           -2.494432861773    -1.380320574006     0.046496926290    12.000000000000
         H           -1.983041861773    -2.115396574006     0.669342926290     1.007825032230
         H           -3.311618861773    -0.958484574006     0.633125926290     1.007825032230
         H           -2.929608861773    -1.906009574006    -0.802468073710     1.007825032230
      Gh(C)           2.569276138227    -0.914960574006     0.607738926290    12.000000000000
      Gh(H)           2.822296138227    -1.693489574006     1.314307926290     1.007825032230
      Gh(H)           2.724675138227     0.109395425994     0.919215926290     1.007825032230
      Gh(C)           2.097845138227    -1.201855574006    -0.607061073710    12.000000000000
      Gh(H)           1.847273138227    -0.418492574006    -1.309251073710     1.007825032230
      Gh(H)           1.954207138227    -2.226140574006    -0.923434073710     1.007825032230

  Running in c1 symmetry.

  Rotational constants: A =      0.08461  B =      0.04888  C =      0.03681 [cm^-1]
  Rotational constants: A =   2536.47693  B =   1465.51280  C =   1103.57114 [MHz]
  Nuclear repulsion =  172.423985878851880

  Charge       = 0
  Multiplicity = 1
  Electrons    = 40
  Nalpha       = 20
  Nbeta        = 20

  ==> Algorithm <==

  SCF Algorithm Type is DF.
  DIIS enabled.
  MOM disabled.
  Fractional occupation disabled.
  Guess Type is SAD.
  Energy threshold   = 1.00e-08
  Density threshold  = 1.00e-08
  Integral threshold = 0.00e+00

  ==> Primary Basis <==

  Basis Set: JUN-CC-PVTZ
    Blend: JUN-CC-PVTZ
    Number of shells: 163
    Number of basis function: 441
    Number of Cartesian functions: 495
    Spherical Harmonics?: true
    Max angular momentum: 3

   => Loading Basis Set <=

    Name: (JUN-CC-PVTZ AUX)
    Role: JKFIT
    Keyword: DF_BASIS_SCF
    atoms 1, 5, 7-9, 11-13, 15-16, 18-19 entry H          line    70 file /home/r08543048/miniconda3/share/psi4/basis/jun-cc-pvtz-jkfit.gbs 
    atoms 2-3, 6, 10, 14, 17             entry C          line   152 file /home/r08543048/miniconda3/share/psi4/basis/jun-cc-pvtz-jkfit.gbs 
    atoms 4                              entry O          line   272 file /home/r08543048/miniconda3/share/psi4/basis/jun-cc-pvtz-jkfit.gbs 

  ==> Pre-Iterations <==

   -------------------------------------------------------
    Irrep   Nso     Nmo     Nalpha   Nbeta   Ndocc  Nsocc
   -------------------------------------------------------
     A        441     441       0       0       0       0
   -------------------------------------------------------
    Total     441     441      20      20      20       0
   -------------------------------------------------------

  ==> Integral Setup <==

  ==> DiskDFJK: Density-Fitted J/K Matrices <==

    J tasked:                  Yes
    K tasked:                  Yes
    wK tasked:                  No
    OpenMP threads:              1
    Integrals threads:           1
    Memory [MiB]:            15735
    Algorithm:                Core
    Integral Cache:           LOAD
    Schwarz Cutoff:          1E-12
    Fitting Condition:       1E-10

   => Auxiliary Basis Set <=

  Basis Set: (JUN-CC-PVTZ AUX)
    Blend: JUN-CC-PVTZ-JKFIT
    Number of shells: 323
    Number of basis function: 1025
    Number of Cartesian functions: 1232
    Spherical Harmonics?: true
    Max angular momentum: 4

  Minimum eigenvalue in the overlap matrix is 3.4503032615E-05.
  Using Symmetric Orthogonalization.

  SCF Guess: Superposition of Atomic Densities via on-the-fly atomic UHF.

  ==> Iterations <==

                           Total Energy        Delta E     RMS |[F,P]|

   @DF-RHF iter SAD:  -230.24716323433964   -2.30247e+02   0.00000e+00 
   @DF-RHF iter   1:  -230.86141603056271   -6.14253e-01   1.39813e-03 DIIS
   @DF-RHF iter   2:  -231.01357339892706   -1.52157e-01   8.56656e-04 DIIS
   @DF-RHF iter   3:  -231.06778349963108   -5.42101e-02   1.68698e-04 DIIS
   @DF-RHF iter   4:  -231.07121141768675   -3.42792e-03   7.23707e-05 DIIS
   @DF-RHF iter   5:  -231.07186681414936   -6.55396e-04   1.26526e-05 DIIS
   @DF-RHF iter   6:  -231.07190665885693   -3.98447e-05   5.22503e-06 DIIS
   @DF-RHF iter   7:  -231.07191291648365   -6.25763e-06   2.29374e-06 DIIS
   @DF-RHF iter   8:  -231.07191423322359   -1.31674e-06   7.49685e-07 DIIS
   @DF-RHF iter   9:  -231.07191441050205   -1.77278e-07   1.39154e-07 DIIS
   @DF-RHF iter  10:  -231.07191441630189   -5.79985e-09   3.62186e-08 DIIS
   @DF-RHF iter  11:  -231.07191441655348   -2.51589e-10   1.03984e-08 DIIS
   @DF-RHF iter  12:  -231.07191441657704   -2.35616e-11   2.69681e-09 DIIS
  Energy and wave function converged.


  ==> Post-Iterations <==

    Orbital Energies [Eh]
    ---------------------

    Doubly Occupied:                                                      

       1A    -20.557141     2A    -11.332489     3A    -11.242317  
       4A    -11.225850     5A    -11.218619     6A     -1.387596  
       7A     -1.084323     8A     -0.978435     9A     -0.849202  
      10A     -0.770548    11A     -0.673564    12A     -0.651810  
      13A     -0.633424    14A     -0.569946    15A     -0.569066  
      16A     -0.513154    17A     -0.502433    18A     -0.492081  
      19A     -0.480811    20A     -0.420705  

    Virtual:                                                              

      21A      0.036316    22A      0.046988    23A      0.048324  
      24A      0.059050    25A      0.067879    26A      0.076425  
      27A      0.080276    28A      0.087379    29A      0.092790  
      30A      0.104547    31A      0.109759    32A      0.112448  
      33A      0.119011    34A      0.122421    35A      0.124357  
      36A      0.131676    37A      0.139488    38A      0.147243  
      39A      0.158124    40A      0.163214    41A      0.174762  
      42A      0.179029    43A      0.191715    44A      0.201044  
      45A      0.211489    46A      0.225930    47A      0.243532  
      48A      0.249939    49A      0.263285    50A      0.267056  
      51A      0.270015    52A      0.284871    53A      0.288291  
      54A      0.290404    55A      0.298143    56A      0.308987  
      57A      0.316087    58A      0.319712    59A      0.323849  
      60A      0.325324    61A      0.329207    62A      0.340483  
      63A      0.346304    64A      0.353690    65A      0.360386  
      66A      0.372976    67A      0.383274    68A      0.384493  
      69A      0.387500    70A      0.400558    71A      0.400954  
      72A      0.408379    73A      0.413318    74A      0.421115  
      75A      0.426485    76A      0.430080    77A      0.450590  
      78A      0.460179    79A      0.468274    80A      0.477549  
      81A      0.481858    82A      0.495242    83A      0.496408  
      84A      0.516680    85A      0.526345    86A      0.533468  
      87A      0.541896    88A      0.545999    89A      0.553084  
      90A      0.563374    91A      0.570738    92A      0.575396  
      93A      0.588902    94A      0.591117    95A      0.594654  
      96A      0.613764    97A      0.644289    98A      0.648768  
      99A      0.657097   100A      0.657623   101A      0.674260  
     102A      0.675300   103A      0.688992   104A      0.701383  
     105A      0.710932   106A      0.720221   107A      0.749293  
     108A      0.757503   109A      0.762982   110A      0.786178  
     111A      0.800110   112A      0.806380   113A      0.813563  
     114A      0.823947   115A      0.830214   116A      0.837254  
     117A      0.848964   118A      0.864913   119A      0.884835  
     120A      0.887031   121A      0.893387   122A      0.898977  
     123A      0.911313   124A      0.920508   125A      0.950426  
     126A      0.983564   127A      0.988727   128A      0.998643  
     129A      1.019976   130A      1.033414   131A      1.062495  
     132A      1.071950   133A      1.092197   134A      1.095424  
     135A      1.097729   136A      1.104005   137A      1.115011  
     138A      1.139800   139A      1.152117   140A      1.167362  
     141A      1.178552   142A      1.195403   143A      1.200334  
     144A      1.209760   145A      1.225812   146A      1.237657  
     147A      1.242805   148A      1.259507   149A      1.291991  
     150A      1.308202   151A      1.312367   152A      1.334896  
     153A      1.342191   154A      1.347582   155A      1.362918  
     156A      1.364242   157A      1.377297   158A      1.382666  
     159A      1.386776   160A      1.394990   161A      1.406764  
     162A      1.422309   163A      1.427360   164A      1.433386  
     165A      1.449640   166A      1.454026   167A      1.472127  
     168A      1.478085   169A      1.491873   170A      1.501353  
     171A      1.514316   172A      1.526758   173A      1.538595  
     174A      1.546631   175A      1.562831   176A      1.579085  
     177A      1.583573   178A      1.596277   179A      1.609724  
     180A      1.617191   181A      1.633299   182A      1.642615  
     183A      1.649071   184A      1.661353   185A      1.676330  
     186A      1.682305   187A      1.692438   188A      1.724516  
     189A      1.736159   190A      1.777858   191A      1.788582  
     192A      1.806904   193A      1.817064   194A      1.830735  
     195A      1.853291   196A      1.872575   197A      1.874659  
     198A      1.895973   199A      1.906821   200A      1.916088  
     201A      1.927945   202A      1.940765   203A      1.989060  
     204A      2.008787   205A      2.029137   206A      2.054371  
     207A      2.115082   208A      2.183786   209A      2.251095  
     210A      2.307386   211A      2.338367   212A      2.395652  
     213A      2.410198   214A      2.417289   215A      2.475949  
     216A      2.578763   217A      2.595119   218A      2.694241  
     219A      2.730345   220A      2.757588   221A      2.780988  
     222A      2.812709   223A      2.818681   224A      2.850582  
     225A      2.869247   226A      2.876457   227A      2.907353  
     228A      2.944604   229A      2.955196   230A      2.990748  
     231A      3.027460   232A      3.040028   233A      3.063381  
     234A      3.103625   235A      3.115945   236A      3.122019  
     237A      3.136403   238A      3.140472   239A      3.164847  
     240A      3.206426   241A      3.267315   242A      3.277955  
     243A      3.297922   244A      3.306365   245A      3.314464  
     246A      3.333160   247A      3.340816   248A      3.358728  
     249A      3.365427   250A      3.400950   251A      3.426570  
     252A      3.439675   253A      3.446877   254A      3.462326  
     255A      3.468684   256A      3.480005   257A      3.489935  
     258A      3.499713   259A      3.511552   260A      3.521531  
     261A      3.539252   262A      3.546158   263A      3.557934  
     264A      3.564361   265A      3.572419   266A      3.590830  
     267A      3.602670   268A      3.617108   269A      3.625193  
     270A      3.665365   271A      3.680846   272A      3.693400  
     273A      3.703654   274A      3.707042   275A      3.735714  
     276A      3.746194   277A      3.764828   278A      3.766796  
     279A      3.773373   280A      3.791311   281A      3.811035  
     282A      3.825862   283A      3.851454   284A      3.875174  
     285A      3.905492   286A      3.918580   287A      3.926263  
     288A      3.931004   289A      3.934022   290A      3.941247  
     291A      3.949526   292A      3.984323   293A      4.007810  
     294A      4.015245   295A      4.025016   296A      4.040250  
     297A      4.049539   298A      4.098635   299A      4.124174  
     300A      4.127224   301A      4.148725   302A      4.175067  
     303A      4.177552   304A      4.184111   305A      4.205171  
     306A      4.219021   307A      4.247412   308A      4.256663  
     309A      4.258832   310A      4.269382   311A      4.279809  
     312A      4.306705   313A      4.327627   314A      4.333713  
     315A      4.343961   316A      4.349506   317A      4.365635  
     318A      4.401901   319A      4.404300   320A      4.424525  
     321A      4.426443   322A      4.440047   323A      4.443014  
     324A      4.480881   325A      4.493476   326A      4.498626  
     327A      4.513032   328A      4.527229   329A      4.533537  
     330A      4.544213   331A      4.562437   332A      4.574308  
     333A      4.584851   334A      4.596403   335A      4.610658  
     336A      4.617230   337A      4.633351   338A      4.651509  
     339A      4.675586   340A      4.692570   341A      4.702693  
     342A      4.714166   343A      4.752502   344A      4.772340  
     345A      4.797498   346A      4.809205   347A      4.821106  
     348A      4.839229   349A      4.848208   350A      4.872142  
     351A      4.873667   352A      4.883121   353A      4.907286  
     354A      4.944798   355A      4.960428   356A      4.972894  
     357A      4.998962   358A      5.010806   359A      5.026100  
     360A      5.053981   361A      5.068376   362A      5.093423  
     363A      5.104477   364A      5.114976   365A      5.136775  
     366A      5.148694   367A      5.179973   368A      5.268346  
     369A      5.280389   370A      5.289874   371A      5.299513  
     372A      5.324186   373A      5.353113   374A      5.368595  
     375A      5.398092   376A      5.402540   377A      5.404248  
     378A      5.414855   379A      5.428445   380A      5.444853  
     381A      5.485378   382A      5.516758   383A      5.575798  
     384A      5.586499   385A      5.610003   386A      5.626028  
     387A      5.665724   388A      5.669994   389A      5.697197  
     390A      5.709003   391A      5.756589   392A      5.758572  
     393A      5.797490   394A      5.843236   395A      5.881955  
     396A      5.902540   397A      5.906263   398A      5.940306  
     399A      5.956847   400A      5.976259   401A      6.004238  
     402A      6.113241   403A      6.126828   404A      6.151841  
     405A      6.162813   406A      6.170447   407A      6.243806  
     408A      6.298264   409A      6.319131   410A      6.436558  
     411A      6.500709   412A      6.513497   413A      6.531478  
     414A      6.558047   415A      6.603933   416A      6.799459  
     417A      6.817363   418A      6.971850   419A      7.239477  
     420A      7.243499   421A      7.268228   422A      7.296904  
     423A      7.306220   424A      7.442556   425A      7.482352  
     426A      7.535107   427A      7.630068   428A      7.719996  
     429A      7.897665   430A      8.045925   431A      8.219485  
     432A      8.684939   433A      9.610202   434A     10.289691  
     435A     12.531989   436A     13.943631   437A     14.288417  
     438A     14.435484   439A     14.544396   440A     41.728962  
     441A     47.506024  

    Final Occupation by Irrep:
              A 
    DOCC [    20 ]

  @DF-RHF Final Energy:  -231.07191441657704

   => Energetics <=

    Nuclear Repulsion Energy =            172.4239858788518802
    One-Electron Energy =                -654.6847761926059093
    Two-Electron Energy =                 251.1888758971769562
    Total Energy =                       -231.0719144165770444

Computation Completed


Properties will be evaluated at   0.000000,   0.000000,   0.000000 [a0]

Properties computed using the SCF density matrix

  Nuclear Dipole Moment: [e a0]
     X:   -73.6077      Y:    25.6547      Z:     2.3254

  Electronic Dipole Moment: [e a0]
     X:    73.1356      Y:   -26.1142      Z:    -1.2969

  Dipole Moment: [e a0]
     X:    -0.4722      Y:    -0.4596      Z:     1.0285     Total:     1.2215

  Dipole Moment: [D]
     X:    -1.2001      Y:    -1.1681      Z:     2.6143     Total:     3.1047


*** tstop() called on r282 at Fri Sep 10 14:32:35 2021
Module time:
	user time   =      25.64 seconds =       0.43 minutes
	system time =       0.57 seconds =       0.01 minutes
	total time  =         26 seconds =       0.43 minutes
Total time:
	user time   =      66.15 seconds =       1.10 minutes
	system time =       1.56 seconds =       0.03 minutes
	total time  =         68 seconds =       1.13 minutes

  //>>>>>>>>>>>>>>>>>>>>>>>>>>>>>>>>>>>//
  //            Monomer B HF           //
  //<<<<<<<<<<<<<<<<<<<<<<<<<<<<<<<<<<<//


*** tstart() called on r282
*** at Fri Sep 10 14:32:35 2021

   => Loading Basis Set <=

    Name: JUN-CC-PVTZ
    Role: ORBITAL
    Keyword: BASIS
    atoms 1, 5, 7-9, 11-13, 15-16, 18-19 entry H          line    36 file /home/r08543048/miniconda3/share/psi4/basis/jun-cc-pvtz.gbs 
    atoms 2-3, 6, 10, 14, 17             entry C          line   217 file /home/r08543048/miniconda3/share/psi4/basis/jun-cc-pvtz.gbs 
    atoms 4                              entry O          line   305 file /home/r08543048/miniconda3/share/psi4/basis/jun-cc-pvtz.gbs 


         ---------------------------------------------------------
                                   SCF
               by Justin Turney, Rob Parrish, Andy Simmonett
                          and Daniel G. A. Smith
                              RHF Reference
                        1 Threads,  20980 MiB Core
         ---------------------------------------------------------

  ==> Geometry <==

    Molecular point group: c1
    Full point group: C1

    Geometry (in Angstrom), charge = 0, multiplicity = 1:

       Center              X                  Y                   Z               Mass       
    ------------   -----------------  -----------------  -----------------  -----------------
      Gh(H)           0.496008138227     2.076530425994     1.237270926290     1.007825032230
      Gh(C)          -0.921072861773     0.444990425994     0.767068926290    12.000000000000
      Gh(C)           0.053914138227     1.519719425994     0.389122926290    12.000000000000
      Gh(O)           0.372371138227     1.795959425994    -0.752055073710    15.994914619570
      Gh(H)          -1.692684861773     0.910687425994     1.391111926290     1.007825032230
      Gh(C)          -1.530772861773    -0.292875574006    -0.410429073710    12.000000000000
      Gh(H)          -2.041583861773     0.422400425994    -1.056728073710     1.007825032230
      Gh(H)          -0.728226861773    -0.726243574006    -1.008411073710     1.007825032230
      Gh(H)          -0.385562861773    -0.244372574006     1.430204926290     1.007825032230
      Gh(C)          -2.494432861773    -1.380320574006     0.046496926290    12.000000000000
      Gh(H)          -1.983041861773    -2.115396574006     0.669342926290     1.007825032230
      Gh(H)          -3.311618861773    -0.958484574006     0.633125926290     1.007825032230
      Gh(H)          -2.929608861773    -1.906009574006    -0.802468073710     1.007825032230
         C            2.569276138227    -0.914960574006     0.607738926290    12.000000000000
         H            2.822296138227    -1.693489574006     1.314307926290     1.007825032230
         H            2.724675138227     0.109395425994     0.919215926290     1.007825032230
         C            2.097845138227    -1.201855574006    -0.607061073710    12.000000000000
         H            1.847273138227    -0.418492574006    -1.309251073710     1.007825032230
         H            1.954207138227    -2.226140574006    -0.923434073710     1.007825032230

  Running in c1 symmetry.

  Rotational constants: A =      0.08461  B =      0.04888  C =      0.03681 [cm^-1]
  Rotational constants: A =   2536.47693  B =   1465.51280  C =   1103.57114 [MHz]
  Nuclear repulsion =   33.390524869658705

  Charge       = 0
  Multiplicity = 1
  Electrons    = 16
  Nalpha       = 8
  Nbeta        = 8

  ==> Algorithm <==

  SCF Algorithm Type is DF.
  DIIS enabled.
  MOM disabled.
  Fractional occupation disabled.
  Guess Type is SAD.
  Energy threshold   = 1.00e-08
  Density threshold  = 1.00e-08
  Integral threshold = 0.00e+00

  ==> Primary Basis <==

  Basis Set: JUN-CC-PVTZ
    Blend: JUN-CC-PVTZ
    Number of shells: 163
    Number of basis function: 441
    Number of Cartesian functions: 495
    Spherical Harmonics?: true
    Max angular momentum: 3

   => Loading Basis Set <=

    Name: (JUN-CC-PVTZ AUX)
    Role: JKFIT
    Keyword: DF_BASIS_SCF
    atoms 1, 5, 7-9, 11-13, 15-16, 18-19 entry H          line    70 file /home/r08543048/miniconda3/share/psi4/basis/jun-cc-pvtz-jkfit.gbs 
    atoms 2-3, 6, 10, 14, 17             entry C          line   152 file /home/r08543048/miniconda3/share/psi4/basis/jun-cc-pvtz-jkfit.gbs 
    atoms 4                              entry O          line   272 file /home/r08543048/miniconda3/share/psi4/basis/jun-cc-pvtz-jkfit.gbs 

  ==> Pre-Iterations <==

   -------------------------------------------------------
    Irrep   Nso     Nmo     Nalpha   Nbeta   Ndocc  Nsocc
   -------------------------------------------------------
     A        441     441       0       0       0       0
   -------------------------------------------------------
    Total     441     441       8       8       8       0
   -------------------------------------------------------

  ==> Integral Setup <==

  ==> DiskDFJK: Density-Fitted J/K Matrices <==

    J tasked:                  Yes
    K tasked:                  Yes
    wK tasked:                  No
    OpenMP threads:              1
    Integrals threads:           1
    Memory [MiB]:            15735
    Algorithm:                Core
    Integral Cache:           LOAD
    Schwarz Cutoff:          1E-12
    Fitting Condition:       1E-10

   => Auxiliary Basis Set <=

  Basis Set: (JUN-CC-PVTZ AUX)
    Blend: JUN-CC-PVTZ-JKFIT
    Number of shells: 323
    Number of basis function: 1025
    Number of Cartesian functions: 1232
    Spherical Harmonics?: true
    Max angular momentum: 4

  Minimum eigenvalue in the overlap matrix is 3.4503032615E-05.
  Using Symmetric Orthogonalization.

  SCF Guess: Superposition of Atomic Densities via on-the-fly atomic UHF.

  ==> Iterations <==

                           Total Energy        Delta E     RMS |[F,P]|

   @DF-RHF iter SAD:   -77.28658935684852   -7.72866e+01   0.00000e+00 
   @DF-RHF iter   1:   -77.98993968017744   -7.03350e-01   8.14017e-04 DIIS
   @DF-RHF iter   2:   -78.05304237044662   -6.31027e-02   3.31088e-04 DIIS
   @DF-RHF iter   3:   -78.06381021560915   -1.07678e-02   5.13766e-05 DIIS
   @DF-RHF iter   4:   -78.06435564392783   -5.45428e-04   5.10476e-06 DIIS
   @DF-RHF iter   5:   -78.06436171417542   -6.07025e-06   5.81579e-07 DIIS
   @DF-RHF iter   6:   -78.06436180432385   -9.01484e-08   7.34143e-08 DIIS
   @DF-RHF iter   7:   -78.06436180556935   -1.24550e-09   1.63768e-08 DIIS
   @DF-RHF iter   8:   -78.06436180562585   -5.65024e-11   7.69920e-09 DIIS
  Energy and wave function converged.


  ==> Post-Iterations <==

    Orbital Energies [Eh]
    ---------------------

    Doubly Occupied:                                                      

       1A    -11.231669     2A    -11.229966     3A     -1.034131  
       4A     -0.793076     5A     -0.644958     6A     -0.586862  
       7A     -0.508948     8A     -0.376717  

    Virtual:                                                              

       9A      0.031811    10A      0.043742    11A      0.049810  
      12A      0.060150    13A      0.067642    14A      0.072150  
      15A      0.083832    16A      0.086595    17A      0.089395  
      18A      0.099339    19A      0.109882    20A      0.113790  
      21A      0.117920    22A      0.123331    23A      0.125643  
      24A      0.127580    25A      0.134900    26A      0.148229  
      27A      0.154262    28A      0.162042    29A      0.170849  
      30A      0.176730    31A      0.179851    32A      0.184051  
      33A      0.203459    34A      0.207843    35A      0.223983  
      36A      0.232495    37A      0.245073    38A      0.252276  
      39A      0.277956    40A      0.280079    41A      0.280969  
      42A      0.294368    43A      0.296470    44A      0.307451  
      45A      0.315962    46A      0.325400    47A      0.328021  
      48A      0.336889    49A      0.340424    50A      0.348530  
      51A      0.354749    52A      0.359170    53A      0.367233  
      54A      0.369051    55A      0.380366    56A      0.381574  
      57A      0.388752    58A      0.397568    59A      0.412152  
      60A      0.412844    61A      0.424207    62A      0.426383  
      63A      0.434207    64A      0.449712    65A      0.457983  
      66A      0.463684    67A      0.476123    68A      0.484072  
      69A      0.492913    70A      0.499973    71A      0.502545  
      72A      0.517195    73A      0.528126    74A      0.537925  
      75A      0.545942    76A      0.560776    77A      0.561768  
      78A      0.568339    79A      0.580807    80A      0.590335  
      81A      0.596637    82A      0.611473    83A      0.616766  
      84A      0.626615    85A      0.639367    86A      0.652237  
      87A      0.658613    88A      0.662136    89A      0.668574  
      90A      0.675643    91A      0.704026    92A      0.714466  
      93A      0.719419    94A      0.739083    95A      0.750986  
      96A      0.757865    97A      0.772074    98A      0.777559  
      99A      0.783646   100A      0.796987   101A      0.802985  
     102A      0.810362   103A      0.845104   104A      0.865172  
     105A      0.887251   106A      0.898575   107A      0.917925  
     108A      0.923243   109A      0.943640   110A      0.959070  
     111A      0.969886   112A      0.995543   113A      1.022261  
     114A      1.023142   115A      1.055545   116A      1.067853  
     117A      1.070237   118A      1.082614   119A      1.088635  
     120A      1.102962   121A      1.110831   122A      1.119061  
     123A      1.126259   124A      1.144673   125A      1.152150  
     126A      1.171859   127A      1.191958   128A      1.199903  
     129A      1.209511   130A      1.213668   131A      1.231268  
     132A      1.235478   133A      1.244274   134A      1.263244  
     135A      1.269761   136A      1.281545   137A      1.295484  
     138A      1.305354   139A      1.315237   140A      1.333871  
     141A      1.345203   142A      1.348125   143A      1.359956  
     144A      1.370682   145A      1.381009   146A      1.392628  
     147A      1.404899   148A      1.413966   149A      1.419109  
     150A      1.437517   151A      1.439978   152A      1.462011  
     153A      1.473911   154A      1.482929   155A      1.497891  
     156A      1.522241   157A      1.534306   158A      1.545606  
     159A      1.559940   160A      1.565368   161A      1.573755  
     162A      1.590711   163A      1.604722   164A      1.609529  
     165A      1.623152   166A      1.625781   167A      1.637051  
     168A      1.642163   169A      1.650116   170A      1.668381  
     171A      1.679325   172A      1.690498   173A      1.709895  
     174A      1.717802   175A      1.729361   176A      1.739385  
     177A      1.793281   178A      1.810244   179A      1.874999  
     180A      1.890278   181A      1.908252   182A      1.931682  
     183A      1.947755   184A      1.964445   185A      1.970613  
     186A      1.983554   187A      2.010293   188A      2.017605  
     189A      2.038954   190A      2.054718   191A      2.122190  
     192A      2.164048   193A      2.172313   194A      2.187436  
     195A      2.214579   196A      2.255191   197A      2.313893  
     198A      2.317323   199A      2.393903   200A      2.427186  
     201A      2.442558   202A      2.459234   203A      2.502650  
     204A      2.581189   205A      2.611792   206A      2.629694  
     207A      2.640081   208A      2.669318   209A      2.692087  
     210A      2.735038   211A      2.758700   212A      2.790156  
     213A      2.804576   214A      2.819528   215A      2.851930  
     216A      2.881094   217A      2.888254   218A      2.934633  
     219A      2.956283   220A      2.975499   221A      3.005247  
     222A      3.022693   223A      3.085272   224A      3.116653  
     225A      3.126217   226A      3.149195   227A      3.193079  
     228A      3.215097   229A      3.225469   230A      3.264529  
     231A      3.285293   232A      3.312515   233A      3.344140  
     234A      3.431962   235A      3.454907   236A      3.470494  
     237A      3.477865   238A      3.489416   239A      3.505485  
     240A      3.518636   241A      3.543731   242A      3.548174  
     243A      3.555855   244A      3.571496   245A      3.576934  
     246A      3.593491   247A      3.604118   248A      3.622588  
     249A      3.629082   250A      3.641938   251A      3.652885  
     252A      3.673798   253A      3.699927   254A      3.754334  
     255A      3.784651   256A      3.790327   257A      3.799265  
     258A      3.820363   259A      3.848067   260A      3.850412  
     261A      3.858124   262A      3.872440   263A      3.882351  
     264A      3.896380   265A      3.897349   266A      3.917422  
     267A      3.940904   268A      3.956825   269A      3.982907  
     270A      4.002671   271A      4.017156   272A      4.029944  
     273A      4.036216   274A      4.039732   275A      4.046526  
     276A      4.053343   277A      4.070352   278A      4.090866  
     279A      4.115339   280A      4.127586   281A      4.157310  
     282A      4.177920   283A      4.210642   284A      4.266066  
     285A      4.275964   286A      4.291905   287A      4.298525  
     288A      4.313224   289A      4.323740   290A      4.342728  
     291A      4.368842   292A      4.383601   293A      4.395689  
     294A      4.405589   295A      4.418700   296A      4.454008  
     297A      4.469821   298A      4.488926   299A      4.495323  
     300A      4.503925   301A      4.527044   302A      4.535847  
     303A      4.543115   304A      4.565582   305A      4.568695  
     306A      4.579985   307A      4.593941   308A      4.595100  
     309A      4.613256   310A      4.633679   311A      4.651791  
     312A      4.667927   313A      4.691040   314A      4.695217  
     315A      4.709897   316A      4.722598   317A      4.734811  
     318A      4.751741   319A      4.762753   320A      4.768406  
     321A      4.775703   322A      4.803939   323A      4.828277  
     324A      4.847622   325A      4.854892   326A      4.864154  
     327A      4.876509   328A      4.884948   329A      4.891326  
     330A      4.900552   331A      4.910850   332A      4.918312  
     333A      4.923964   334A      4.936901   335A      4.947788  
     336A      4.963989   337A      4.971140   338A      4.992555  
     339A      5.011001   340A      5.020941   341A      5.025056  
     342A      5.039877   343A      5.062743   344A      5.081418  
     345A      5.101935   346A      5.107746   347A      5.122046  
     348A      5.131351   349A      5.171474   350A      5.189462  
     351A      5.219762   352A      5.237980   353A      5.247729  
     354A      5.321629   355A      5.342954   356A      5.348631  
     357A      5.398661   358A      5.422825   359A      5.426103  
     360A      5.437121   361A      5.452128   362A      5.459002  
     363A      5.519534   364A      5.530065   365A      5.563822  
     366A      5.618844   367A      5.626745   368A      5.650408  
     369A      5.664899   370A      5.722391   371A      5.797104  
     372A      5.805465   373A      5.819339   374A      5.873650  
     375A      5.901054   376A      6.007985   377A      6.027744  
     378A      6.048584   379A      6.061074   380A      6.143479  
     381A      6.164991   382A      6.230501   383A      6.236731  
     384A      6.285207   385A      6.298045   386A      6.354981  
     387A      6.386304   388A      6.422235   389A      6.434631  
     390A      6.461106   391A      6.501350   392A      6.513885  
     393A      6.525116   394A      6.569061   395A      6.638311  
     396A      6.651128   397A      6.664248   398A      6.795943  
     399A      6.850882   400A      6.901534   401A      6.981431  
     402A      7.022378   403A      7.026603   404A      7.307180  
     405A      7.339595   406A      7.542704   407A      7.559403  
     408A      7.650508   409A      7.664142   410A      7.691807  
     411A      7.700299   412A      7.801936   413A      7.838658  
     414A      7.880883   415A      7.922051   416A      8.100248  
     417A      8.212089   418A      8.276989   419A      8.385453  
     420A      8.517099   421A      8.657558   422A      9.450466  
     423A      9.486214   424A      9.660303   425A      9.751411  
     426A      9.829013   427A      9.865571   428A      9.910721  
     429A      9.920556   430A     10.084048   431A     11.028284  
     432A     11.677644   433A     11.982382   434A     12.841927  
     435A     13.755272   436A     15.553303   437A     43.797661  
     438A     44.412900   439A     45.510075   440A     45.727669  
     441A     60.787323  

    Final Occupation by Irrep:
              A 
    DOCC [     8 ]

  @DF-RHF Final Energy:   -78.06436180562585

   => Energetics <=

    Nuclear Repulsion Energy =             33.3905248696587051
    One-Electron Energy =                -170.0971174968658772
    Two-Electron Energy =                  58.6422308215813075
    Total Energy =                        -78.0643618056258504

Computation Completed


Properties will be evaluated at   0.000000,   0.000000,   0.000000 [a0]

Properties computed using the SCF density matrix

  Nuclear Dipole Moment: [e a0]
     X:    70.5835      Y:   -31.9924      Z:     0.0093

  Electronic Dipole Moment: [e a0]
     X:   -70.5794      Y:    31.9919      Z:    -0.0099

  Dipole Moment: [e a0]
     X:     0.0041      Y:    -0.0005      Z:    -0.0006     Total:     0.0042

  Dipole Moment: [D]
     X:     0.0104      Y:    -0.0013      Z:    -0.0016     Total:     0.0106


*** tstop() called on r282 at Fri Sep 10 14:32:52 2021
Module time:
	user time   =      16.25 seconds =       0.27 minutes
	system time =       0.33 seconds =       0.01 minutes
	total time  =         17 seconds =       0.28 minutes
Total time:
	user time   =      82.40 seconds =       1.37 minutes
	system time =       1.89 seconds =       0.03 minutes
	total time  =         85 seconds =       1.42 minutes
  Constructing Basis Sets for SAPT...

   => Loading Basis Set <=

    Name: (JUN-CC-PVTZ AUX)
    Role: RIFIT
    Keyword: DF_BASIS_SAPT
    atoms 1, 5, 7-9, 11-13, 15-16, 18-19 entry H          line    30 file /home/r08543048/miniconda3/share/psi4/basis/jun-cc-pvtz-ri.gbs 
    atoms 2-3, 6, 10, 14, 17             entry C          line   132 file /home/r08543048/miniconda3/share/psi4/basis/jun-cc-pvtz-ri.gbs 
    atoms 4                              entry O          line   244 file /home/r08543048/miniconda3/share/psi4/basis/jun-cc-pvtz-ri.gbs 


  //>>>>>>>>>>>>>>>>>>>>>>>>>>>>>>>>>>>//
  //               SAPT0               //
  //<<<<<<<<<<<<<<<<<<<<<<<<<<<<<<<<<<<//


*** tstart() called on r282
*** at Fri Sep 10 14:32:52 2021

        SAPT0  
    Ed Hohenstein
     6 June 2009

      Orbital Information
  --------------------------
    NSO        =       441
    NMO        =       441
    NRI        =      1039
    NOCC A     =        20
    NOCC B     =         8
    FOCC A     =         0
    FOCC B     =         0
    NVIR A     =       421
    NVIR B     =       433

    Elst10,r            =    -0.004448360091 [Eh]
    Exch10              =     0.007135365410 [Eh]
    Exch10 (S^2)        =     0.007103523035 [Eh]

    Iter     Energy [mEh]          dE [mEh]         Residual      Time [s]
       1      -0.44399736       0.443997355       3.667806586             1
       2      -0.49534393       0.051346571       1.675411067             2
       3      -0.52305327       0.027709340       0.478091284             2
       4      -0.52456814       0.001514875       0.164938152             3
       5      -0.52261165      -0.001956490       0.060585372             4
       6      -0.52268199       0.000070344       0.029479529             4
       7      -0.52290542       0.000223428       0.009588009             5
       8      -0.52285511      -0.000050317       0.004697642             6
       9      -0.52284518      -0.000009923       0.001972041             6
      10      -0.52285437       0.000009190       0.000703482             7
      11      -0.52285476       0.000000389       0.000159390             8
      12      -0.52285414      -0.000000621       0.000046442             8
      13      -0.52285412      -0.000000020       0.000012249             9
      14      -0.52285417       0.000000045       0.000002611            10
      15      -0.52285416      -0.000000002       0.000000610            10

    CHF Iterations converged


    Iter     Energy [mEh]          dE [mEh]         Residual      Time [s]
       1      -1.96983291       1.969832914       6.818226333             1
       2      -2.51052202       0.540689106       2.540112316             2
       3      -2.54828635       0.037764334       0.790281794             2
       4      -2.53675463      -0.011531728       0.235100984             3
       5      -2.53442177      -0.002332850       0.059505126             4
       6      -2.53554921       0.001127440       0.019507889             4
       7      -2.53548584      -0.000063373       0.007203177             5
       8      -2.53539621      -0.000089630       0.001201321             5
       9      -2.53540988       0.000013669       0.000243559             6
      10      -2.53540843      -0.000001454       0.000049010             6
      11      -2.53540840      -0.000000023       0.000011384             7
      12      -2.53540847       0.000000061       0.000002710             8
      13      -2.53540845      -0.000000012       0.000000539             8

    CHF Iterations converged

    Ind20,r (A<-B)      =    -0.000522854163 [Eh]
    Ind20,r (B<-A)      =    -0.002535408454 [Eh]
    Ind20,r             =    -0.003058262617 [Eh]
    Exch-Ind20,r (A<-B) =     0.000397864051 [Eh]
    Exch-Ind20,r (B<-A) =     0.002164034159 [Eh]
    Exch-Ind20,r        =     0.002561898210 [Eh]
    Disp20              =    -0.007374968514 [Eh]
    Disp20 (SS)         =    -0.003687484257 [Eh]
    Disp20 (OS)         =    -0.003687484257 [Eh]
    Exch-Disp20         =     0.000880921588 [Eh]
    Exch-Disp20 (SS)    =     0.000563106871 [Eh]
    Exch-Disp20 (OS)    =     0.000317814717 [Eh]

    SAPT Results 
  --------------------------------------------------------------------------------------------------------
    Electrostatics                 -4.44836009 [mEh]      -2.79138810 [kcal/mol]     -11.67916781 [kJ/mol]
      Elst10,r                     -4.44836009 [mEh]      -2.79138810 [kcal/mol]     -11.67916781 [kJ/mol]

    Exchange                        7.13536541 [mEh]       4.47750939 [kcal/mol]      18.73389930 [kJ/mol]
      Exch10                        7.13536541 [mEh]       4.47750939 [kcal/mol]      18.73389930 [kJ/mol]
      Exch10(S^2)                   7.10352304 [mEh]       4.45752800 [kcal/mol]      18.65029716 [kJ/mol]

    Induction                      -1.07859086 [mEh]      -0.67682599 [kcal/mol]      -2.83183992 [kJ/mol]
      Ind20,r                      -3.05826262 [mEh]      -1.91908877 [kcal/mol]      -8.02946740 [kJ/mol]
      Exch-Ind20,r                  2.56189821 [mEh]       1.60761540 [kcal/mol]       6.72626282 [kJ/mol]
      delta HF,r (2)               -0.58222646 [mEh]      -0.36535262 [kcal/mol]      -1.52863535 [kJ/mol]

    Dispersion                     -6.49404693 [mEh]      -4.07507597 [kcal/mol]     -17.05011786 [kJ/mol]
      Disp20                       -7.37496851 [mEh]      -4.62786261 [kcal/mol]     -19.36297717 [kJ/mol]
      Exch-Disp20                   0.88092159 [mEh]       0.55278664 [kcal/mol]       2.31285931 [kJ/mol]
      Disp20 (SS)                  -3.68748426 [mEh]      -2.31393131 [kcal/mol]      -9.68148858 [kJ/mol]
      Disp20 (OS)                  -3.68748426 [mEh]      -2.31393131 [kcal/mol]      -9.68148858 [kJ/mol]
      Exch-Disp20 (SS)              0.56310687 [mEh]       0.35335490 [kcal/mol]       1.47843689 [kJ/mol]
      Exch-Disp20 (OS)              0.31781472 [mEh]       0.19943175 [kcal/mol]       0.83442242 [kJ/mol]

  Total HF                          1.60841446 [mEh]       1.00929531 [kcal/mol]       4.22289157 [kJ/mol]
  Total SAPT0                      -4.88563247 [mEh]      -3.06578066 [kcal/mol]     -12.82722629 [kJ/mol]

  Special recipe for scaled SAPT0 (see Manual):
    Electrostatics sSAPT0          -4.44836009 [mEh]      -2.79138810 [kcal/mol]     -11.67916781 [kJ/mol]
    Exchange sSAPT0                 7.13536541 [mEh]       4.47750939 [kcal/mol]      18.73389930 [kJ/mol]
    Induction sSAPT0               -1.04398417 [mEh]      -0.65510996 [kcal/mol]      -2.74098006 [kJ/mol]
    Dispersion sSAPT0              -6.48214724 [mEh]      -4.06760880 [kcal/mol]     -17.01887524 [kJ/mol]
  Total sSAPT0                     -4.83912609 [mEh]      -3.03659747 [kcal/mol]     -12.70512380 [kJ/mol]
  --------------------------------------------------------------------------------------------------------

*** tstop() called on r282 at Fri Sep 10 14:34:07 2021
Module time:
	user time   =      63.36 seconds =       1.06 minutes
	system time =      11.56 seconds =       0.19 minutes
	total time  =         75 seconds =       1.25 minutes
Total time:
	user time   =     145.89 seconds =       2.43 minutes
	system time =      13.45 seconds =       0.22 minutes
	total time  =        160 seconds =       2.67 minutes

    Psi4 stopped on: Friday, 10 September 2021 02:34PM
    Psi4 wall time for execution: 0:02:39.92

*** Psi4 exiting successfully. Buy a developer a beer!
