
    -----------------------------------------------------------------------
          Psi4: An Open-Source Ab Initio Electronic Structure Package
                               Psi4 1.3.2 release

                         Git: Rev {HEAD} ecbda83 


    R. M. Parrish, L. A. Burns, D. G. A. Smith, A. C. Simmonett,
    A. E. DePrince III, E. G. Hohenstein, U. Bozkaya, A. Yu. Sokolov,
    R. Di Remigio, R. M. Richard, J. F. Gonthier, A. M. James,
    H. R. McAlexander, A. Kumar, M. Saitow, X. Wang, B. P. Pritchard,
    P. Verma, H. F. Schaefer III, K. Patkowski, R. A. King, E. F. Valeev,
    F. A. Evangelista, J. M. Turney, T. D. Crawford, and C. D. Sherrill,
    J. Chem. Theory Comput. 13(7) pp 3185--3197 (2017).
    (doi: 10.1021/acs.jctc.7b00174)


                         Additional Contributions by
    P. Kraus, H. Kruse, M. H. Lechner, M. C. Schieber, R. A. Shaw,
    A. Alenaizan, R. Galvelis, Z. L. Glick, S. Lehtola, and J. P. Misiewicz

    -----------------------------------------------------------------------


    Psi4 started on: Friday, 10 September 2021 02:53PM

    Process ID: 56770
    Host:       r282
    PSIDATADIR: /home/r08543048/miniconda3/share/psi4
    Memory:     500.0 MiB
    Threads:    1
    
  ==> Input File <==

--------------------------------------------------------------------------
# Any line starting with the # character is a comment line
#! Sample  computation

memory 22 gb

molecule Dimer {
0 1
 H  -0.688092   -1.806680    1.082224
 C  -1.307485    0.298887    0.812393
 C  -0.881575   -1.045987    0.302503
 O  -0.744074   -1.328588   -0.872488
 H  -0.521109    0.635197    1.495549
 C  -1.569713    1.313186   -0.285075
 H  -0.667699    1.484924   -0.869267
 H  -2.339659    0.955289   -0.966044
 H  -1.893507    2.261955    0.138743
 H  -2.190852    0.136511    1.438556
  
  
  
  
  

    
    
 --
0 1
 C   2.465900   -0.108207    0.534697
 H   2.144332   -1.129011    0.692322
 H   3.075414    0.346117    1.303720
 C   2.133500    0.555227   -0.574110
 H   2.465366    1.571416   -0.738465
 H   1.524633    0.094356   -1.339881
   
   
   
   
   
   
   
   
   




units angstrom

no_reorient
symmetry c1
}

set globals{
  basis jun-cc-pvtz
}

energy('sapt0')


--------------------------------------------------------------------------

  Memory set to  20.489 GiB by Python driver.

  //>>>>>>>>>>>>>>>>>>>>>>>>>>>>>>>>>>>//
  //              Dimer HF             //
  //<<<<<<<<<<<<<<<<<<<<<<<<<<<<<<<<<<<//


*** tstart() called on r282
*** at Fri Sep 10 14:53:39 2021

   => Loading Basis Set <=

    Name: JUN-CC-PVTZ
    Role: ORBITAL
    Keyword: BASIS
    atoms 1, 5, 7-10, 12-13, 15-16 entry H          line    36 file /home/r08543048/miniconda3/share/psi4/basis/jun-cc-pvtz.gbs 
    atoms 2-3, 6, 11, 14           entry C          line   217 file /home/r08543048/miniconda3/share/psi4/basis/jun-cc-pvtz.gbs 
    atoms 4                        entry O          line   305 file /home/r08543048/miniconda3/share/psi4/basis/jun-cc-pvtz.gbs 


         ---------------------------------------------------------
                                   SCF
               by Justin Turney, Rob Parrish, Andy Simmonett
                          and Daniel G. A. Smith
                              RHF Reference
                        1 Threads,  20980 MiB Core
         ---------------------------------------------------------

  ==> Geometry <==

    Molecular point group: c1
    Full point group: C1

    Geometry (in Angstrom), charge = 0, multiplicity = 1:

       Center              X                  Y                   Z               Mass       
    ------------   -----------------  -----------------  -----------------  -----------------
         H           -0.677659741576    -1.754309424898     1.107963844642     1.007825032230
         C           -1.297052741576     0.351257575102     0.838132844642    12.000000000000
         C           -0.871142741576    -0.993616424898     0.328242844642    12.000000000000
         O           -0.733641741576    -1.276217424898    -0.846748155358    15.994914619570
         H           -0.510676741576     0.687567575102     1.521288844642     1.007825032230
         C           -1.559280741576     1.365556575102    -0.259335155358    12.000000000000
         H           -0.657266741576     1.537294575102    -0.843527155358     1.007825032230
         H           -2.329226741576     1.007659575102    -0.940304155358     1.007825032230
         H           -1.883074741576     2.314325575102     0.164482844642     1.007825032230
         H           -2.180419741576     0.188881575102     1.464295844642     1.007825032230
         C            2.476332258424    -0.055836424898     0.560436844642    12.000000000000
         H            2.154764258424    -1.076640424898     0.718061844642     1.007825032230
         H            3.085846258424     0.398487575102     1.329459844642     1.007825032230
         C            2.143932258424     0.607597575102    -0.548370155358    12.000000000000
         H            2.475798258424     1.623786575102    -0.712725155358     1.007825032230
         H            1.535065258424     0.146726575102    -1.314141155358     1.007825032230

  Running in c1 symmetry.

  Rotational constants: A =      0.13614  B =      0.06138  C =      0.05323 [cm^-1]
  Rotational constants: A =   4081.32194  B =   1840.14723  C =   1595.70921 [MHz]
  Nuclear repulsion =  223.702391419723796

  Charge       = 0
  Multiplicity = 1
  Electrons    = 48
  Nalpha       = 24
  Nbeta        = 24

  ==> Algorithm <==

  SCF Algorithm Type is DF.
  DIIS enabled.
  MOM disabled.
  Fractional occupation disabled.
  Guess Type is SAD.
  Energy threshold   = 1.00e-08
  Density threshold  = 1.00e-08
  Integral threshold = 0.00e+00

  ==> Primary Basis <==

  Basis Set: JUN-CC-PVTZ
    Blend: JUN-CC-PVTZ
    Number of shells: 138
    Number of basis function: 374
    Number of Cartesian functions: 420
    Spherical Harmonics?: true
    Max angular momentum: 3

   => Loading Basis Set <=

    Name: (JUN-CC-PVTZ AUX)
    Role: JKFIT
    Keyword: DF_BASIS_SCF
    atoms 1, 5, 7-10, 12-13, 15-16 entry H          line    70 file /home/r08543048/miniconda3/share/psi4/basis/jun-cc-pvtz-jkfit.gbs 
    atoms 2-3, 6, 11, 14           entry C          line   152 file /home/r08543048/miniconda3/share/psi4/basis/jun-cc-pvtz-jkfit.gbs 
    atoms 4                        entry O          line   272 file /home/r08543048/miniconda3/share/psi4/basis/jun-cc-pvtz-jkfit.gbs 

  ==> Pre-Iterations <==

   -------------------------------------------------------
    Irrep   Nso     Nmo     Nalpha   Nbeta   Ndocc  Nsocc
   -------------------------------------------------------
     A        374     374       0       0       0       0
   -------------------------------------------------------
    Total     374     374      24      24      24       0
   -------------------------------------------------------

  ==> Integral Setup <==

  ==> DiskDFJK: Density-Fitted J/K Matrices <==

    J tasked:                  Yes
    K tasked:                  Yes
    wK tasked:                  No
    OpenMP threads:              1
    Integrals threads:           1
    Memory [MiB]:            15735
    Algorithm:                Core
    Integral Cache:           SAVE
    Schwarz Cutoff:          1E-12
    Fitting Condition:       1E-10

   => Auxiliary Basis Set <=

  Basis Set: (JUN-CC-PVTZ AUX)
    Blend: JUN-CC-PVTZ-JKFIT
    Number of shells: 274
    Number of basis function: 870
    Number of Cartesian functions: 1046
    Spherical Harmonics?: true
    Max angular momentum: 4

  Minimum eigenvalue in the overlap matrix is 4.8158821027E-05.
  Using Symmetric Orthogonalization.

  SCF Guess: Superposition of Atomic Densities via on-the-fly atomic UHF.

  ==> Iterations <==

                           Total Energy        Delta E     RMS |[F,P]|

   @DF-RHF iter SAD:  -268.57105018823728   -2.68571e+02   0.00000e+00 
   @DF-RHF iter   1:  -269.85071471467757   -1.27966e+00   1.75485e-03 DIIS
   @DF-RHF iter   2:  -270.02840301738354   -1.77688e-01   1.00733e-03 DIIS
   @DF-RHF iter   3:  -270.08298464474302   -5.45816e-02   2.12705e-04 DIIS
   @DF-RHF iter   4:  -270.08656777103795   -3.58313e-03   9.02789e-05 DIIS
   @DF-RHF iter   5:  -270.08727629680959   -7.08526e-04   1.38742e-05 DIIS
   @DF-RHF iter   6:  -270.08731368418455   -3.73874e-05   5.38384e-06 DIIS
   @DF-RHF iter   7:  -270.08731865772995   -4.97355e-06   2.36949e-06 DIIS
   @DF-RHF iter   8:  -270.08731965090260   -9.93173e-07   8.61860e-07 DIIS
   @DF-RHF iter   9:  -270.08731980588476   -1.54982e-07   2.04651e-07 DIIS
   @DF-RHF iter  10:  -270.08731981404839   -8.16362e-09   7.68954e-08 DIIS
   @DF-RHF iter  11:  -270.08731981475239   -7.04006e-10   1.91809e-08 DIIS
   @DF-RHF iter  12:  -270.08731981482799   -7.56017e-11   6.76778e-09 DIIS
  Energy and wave function converged.


  ==> Post-Iterations <==

    Orbital Energies [Eh]
    ---------------------

    Doubly Occupied:                                                      

       1A    -20.555661     2A    -11.332024     3A    -11.241056  
       4A    -11.230684     5A    -11.228893     6A    -11.218359  
       7A     -1.387563     8A     -1.061645     9A     -1.034376  
      10A     -0.910767    11A     -0.793313    12A     -0.772082  
      13A     -0.679260    14A     -0.648048    15A     -0.631437  
      16A     -0.625748    17A     -0.586466    18A     -0.539747  
      19A     -0.526097    20A     -0.518032    21A     -0.508920  
      22A     -0.488124    23A     -0.421621    24A     -0.377320  

    Virtual:                                                              

      25A      0.046555    26A      0.051156    27A      0.061536  
      28A      0.063675    29A      0.070366    30A      0.087065  
      31A      0.091735    32A      0.096955    33A      0.098683  
      34A      0.106474    35A      0.119368    36A      0.119899  
      37A      0.125924    38A      0.135006    39A      0.144741  
      40A      0.147255    41A      0.153021    42A      0.175683  
      43A      0.179427    44A      0.184456    45A      0.199638  
      46A      0.215310    47A      0.226811    48A      0.249372  
      49A      0.257298    50A      0.262404    51A      0.275162  
      52A      0.276550    53A      0.283960    54A      0.297112  
      55A      0.304200    56A      0.312299    57A      0.321976  
      58A      0.326825    59A      0.335684    60A      0.337947  
      61A      0.342090    62A      0.344707    63A      0.351062  
      64A      0.360156    65A      0.367483    66A      0.369422  
      67A      0.382419    68A      0.393471    69A      0.397975  
      70A      0.409400    71A      0.423814    72A      0.430054  
      73A      0.438263    74A      0.453926    75A      0.468008  
      76A      0.470425    77A      0.474198    78A      0.493101  
      79A      0.497717    80A      0.508820    81A      0.516205  
      82A      0.532806    83A      0.537796    84A      0.542246  
      85A      0.563841    86A      0.581420    87A      0.601770  
      88A      0.621674    89A      0.637341    90A      0.647303  
      91A      0.651693    92A      0.668349    93A      0.673476  
      94A      0.688293    95A      0.704317    96A      0.720411  
      97A      0.727768    98A      0.743962    99A      0.749216  
     100A      0.760342   101A      0.765851   102A      0.769370  
     103A      0.782104   104A      0.802716   105A      0.804486  
     106A      0.819697   107A      0.837352   108A      0.853042  
     109A      0.857062   110A      0.862155   111A      0.871222  
     112A      0.881111   113A      0.901128   114A      0.910130  
     115A      0.928900   116A      0.938031   117A      0.957810  
     118A      0.968850   119A      0.978071   120A      0.995316  
     121A      1.011474   122A      1.040972   123A      1.054278  
     124A      1.063697   125A      1.076259   126A      1.094716  
     127A      1.097450   128A      1.116298   129A      1.126497  
     130A      1.144815   131A      1.151110   132A      1.166409  
     133A      1.204989   134A      1.232055   135A      1.244795  
     136A      1.265460   137A      1.279159   138A      1.290640  
     139A      1.293315   140A      1.310155   141A      1.327727  
     142A      1.341560   143A      1.350592   144A      1.364855  
     145A      1.385545   146A      1.399214   147A      1.416408  
     148A      1.431391   149A      1.438339   150A      1.466403  
     151A      1.468254   152A      1.475351   153A      1.493106  
     154A      1.519170   155A      1.527935   156A      1.556659  
     157A      1.575386   158A      1.577141   159A      1.592804  
     160A      1.611616   161A      1.614601   162A      1.625677  
     163A      1.628784   164A      1.657134   165A      1.665099  
     166A      1.684786   167A      1.701703   168A      1.710042  
     169A      1.715782   170A      1.752216   171A      1.783456  
     172A      1.805040   173A      1.812245   174A      1.852253  
     175A      1.919061   176A      1.928396   177A      1.936466  
     178A      1.955247   179A      1.973500   180A      1.998339  
     181A      2.029840   182A      2.098219   183A      2.286487  
     184A      2.369070   185A      2.389610   186A      2.453586  
     187A      2.552447   188A      2.593398   189A      2.683798  
     190A      2.706043   191A      2.730887   192A      2.742420  
     193A      2.761017   194A      2.775291   195A      2.788409  
     196A      2.806640   197A      2.822693   198A      2.864856  
     199A      2.886583   200A      2.910572   201A      2.919175  
     202A      2.927524   203A      2.952825   204A      2.961739  
     205A      2.970719   206A      2.994118   207A      3.010333  
     208A      3.043817   209A      3.051286   210A      3.076281  
     211A      3.094706   212A      3.115397   213A      3.116064  
     214A      3.128980   215A      3.146019   216A      3.159220  
     217A      3.173637   218A      3.204446   219A      3.227529  
     220A      3.242755   221A      3.260419   222A      3.290780  
     223A      3.308163   224A      3.312342   225A      3.326211  
     226A      3.331791   227A      3.352969   228A      3.379951  
     229A      3.390928   230A      3.409560   231A      3.427402  
     232A      3.435713   233A      3.446069   234A      3.463908  
     235A      3.469426   236A      3.476020   237A      3.486666  
     238A      3.491506   239A      3.499327   240A      3.517168  
     241A      3.528602   242A      3.544267   243A      3.553734  
     244A      3.573907   245A      3.582913   246A      3.587839  
     247A      3.604771   248A      3.620146   249A      3.640680  
     250A      3.658285   251A      3.674517   252A      3.696079  
     253A      3.706527   254A      3.718020   255A      3.765682  
     256A      3.779594   257A      3.801437   258A      3.847136  
     259A      3.854175   260A      3.870868   261A      3.892818  
     262A      3.902441   263A      3.908007   264A      3.949044  
     265A      4.006101   266A      4.011677   267A      4.024958  
     268A      4.029522   269A      4.040242   270A      4.051508  
     271A      4.058123   272A      4.080362   273A      4.104406  
     274A      4.133113   275A      4.139081   276A      4.210887  
     277A      4.215301   278A      4.250516   279A      4.265743  
     280A      4.287748   281A      4.294603   282A      4.311359  
     283A      4.319590   284A      4.325696   285A      4.340065  
     286A      4.347368   287A      4.363981   288A      4.386458  
     289A      4.400349   290A      4.415782   291A      4.438180  
     292A      4.450981   293A      4.470119   294A      4.485413  
     295A      4.489917   296A      4.512918   297A      4.523990  
     298A      4.561832   299A      4.596027   300A      4.628683  
     301A      4.634461   302A      4.661585   303A      4.690765  
     304A      4.693035   305A      4.711823   306A      4.756214  
     307A      4.806935   308A      4.831768   309A      4.884482  
     310A      4.896273   311A      4.907188   312A      4.938519  
     313A      4.945820   314A      4.971487   315A      5.011191  
     316A      5.021751   317A      5.037967   318A      5.070408  
     319A      5.099680   320A      5.167085   321A      5.171891  
     322A      5.234182   323A      5.250495   324A      5.277833  
     325A      5.285778   326A      5.304637   327A      5.325916  
     328A      5.348158   329A      5.367158   330A      5.424829  
     331A      5.428650   332A      5.434175   333A      5.454483  
     334A      5.467167   335A      5.515461   336A      5.521268  
     337A      5.621434   338A      5.629006   339A      5.673781  
     340A      5.692080   341A      5.716789   342A      5.744852  
     343A      5.751442   344A      5.801056   345A      5.821442  
     346A      5.845002   347A      5.912557   348A      5.922661  
     349A      5.966922   350A      6.058844   351A      6.126954  
     352A      6.184542   353A      6.291057   354A      6.316013  
     355A      6.420894   356A      6.488520   357A      6.520175  
     358A      6.545640   359A      6.569047   360A      6.798229  
     361A      6.853352   362A      6.954558   363A      7.231650  
     364A      7.289392   365A      7.305253   366A      7.440537  
     367A      7.621428   368A      7.714722   369A     12.404670  
     370A     12.806827   371A     14.009852   372A     14.272452  
     373A     14.687936   374A     15.519273  

    Final Occupation by Irrep:
              A 
    DOCC [    24 ]

  @DF-RHF Final Energy:  -270.08731981482799

   => Energetics <=

    Nuclear Repulsion Energy =            223.7023914197237957
    One-Electron Energy =                -808.9449403908191698
    Two-Electron Energy =                 315.1552291562674100
    Total Energy =                       -270.0873198148279926

Computation Completed


Properties will be evaluated at   0.000000,   0.000000,   0.000000 [a0]

Properties computed using the SCF density matrix

  Nuclear Dipole Moment: [e a0]
     X:     0.9463      Y:     4.7504      Z:     2.3348

  Electronic Dipole Moment: [e a0]
     X:    -1.1249      Y:    -4.2466      Z:    -1.2673

  Dipole Moment: [e a0]
     X:    -0.1786      Y:     0.5038      Z:     1.0675     Total:     1.1938

  Dipole Moment: [D]
     X:    -0.4539      Y:     1.2806      Z:     2.7133     Total:     3.0344


*** tstop() called on r282 at Fri Sep 10 14:54:01 2021
Module time:
	user time   =      21.43 seconds =       0.36 minutes
	system time =       0.65 seconds =       0.01 minutes
	total time  =         22 seconds =       0.37 minutes
Total time:
	user time   =      21.43 seconds =       0.36 minutes
	system time =       0.65 seconds =       0.01 minutes
	total time  =         22 seconds =       0.37 minutes

  //>>>>>>>>>>>>>>>>>>>>>>>>>>>>>>>>>>>//
  //            Monomer A HF           //
  //<<<<<<<<<<<<<<<<<<<<<<<<<<<<<<<<<<<//


*** tstart() called on r282
*** at Fri Sep 10 14:54:01 2021

   => Loading Basis Set <=

    Name: JUN-CC-PVTZ
    Role: ORBITAL
    Keyword: BASIS
    atoms 1, 5, 7-10, 12-13, 15-16 entry H          line    36 file /home/r08543048/miniconda3/share/psi4/basis/jun-cc-pvtz.gbs 
    atoms 2-3, 6, 11, 14           entry C          line   217 file /home/r08543048/miniconda3/share/psi4/basis/jun-cc-pvtz.gbs 
    atoms 4                        entry O          line   305 file /home/r08543048/miniconda3/share/psi4/basis/jun-cc-pvtz.gbs 


         ---------------------------------------------------------
                                   SCF
               by Justin Turney, Rob Parrish, Andy Simmonett
                          and Daniel G. A. Smith
                              RHF Reference
                        1 Threads,  20980 MiB Core
         ---------------------------------------------------------

  ==> Geometry <==

    Molecular point group: c1
    Full point group: C1

    Geometry (in Angstrom), charge = 0, multiplicity = 1:

       Center              X                  Y                   Z               Mass       
    ------------   -----------------  -----------------  -----------------  -----------------
         H           -0.677659741576    -1.754309424898     1.107963844642     1.007825032230
         C           -1.297052741576     0.351257575102     0.838132844642    12.000000000000
         C           -0.871142741576    -0.993616424898     0.328242844642    12.000000000000
         O           -0.733641741576    -1.276217424898    -0.846748155358    15.994914619570
         H           -0.510676741576     0.687567575102     1.521288844642     1.007825032230
         C           -1.559280741576     1.365556575102    -0.259335155358    12.000000000000
         H           -0.657266741576     1.537294575102    -0.843527155358     1.007825032230
         H           -2.329226741576     1.007659575102    -0.940304155358     1.007825032230
         H           -1.883074741576     2.314325575102     0.164482844642     1.007825032230
         H           -2.180419741576     0.188881575102     1.464295844642     1.007825032230
      Gh(C)           2.476332258424    -0.055836424898     0.560436844642    12.000000000000
      Gh(H)           2.154764258424    -1.076640424898     0.718061844642     1.007825032230
      Gh(H)           3.085846258424     0.398487575102     1.329459844642     1.007825032230
      Gh(C)           2.143932258424     0.607597575102    -0.548370155358    12.000000000000
      Gh(H)           2.475798258424     1.623786575102    -0.712725155358     1.007825032230
      Gh(H)           1.535065258424     0.146726575102    -1.314141155358     1.007825032230

  Running in c1 symmetry.

  Rotational constants: A =      0.13614  B =      0.06138  C =      0.05323 [cm^-1]
  Rotational constants: A =   4081.32194  B =   1840.14723  C =   1595.70921 [MHz]
  Nuclear repulsion =  118.678953292831551

  Charge       = 0
  Multiplicity = 1
  Electrons    = 32
  Nalpha       = 16
  Nbeta        = 16

  ==> Algorithm <==

  SCF Algorithm Type is DF.
  DIIS enabled.
  MOM disabled.
  Fractional occupation disabled.
  Guess Type is SAD.
  Energy threshold   = 1.00e-08
  Density threshold  = 1.00e-08
  Integral threshold = 0.00e+00

  ==> Primary Basis <==

  Basis Set: JUN-CC-PVTZ
    Blend: JUN-CC-PVTZ
    Number of shells: 138
    Number of basis function: 374
    Number of Cartesian functions: 420
    Spherical Harmonics?: true
    Max angular momentum: 3

   => Loading Basis Set <=

    Name: (JUN-CC-PVTZ AUX)
    Role: JKFIT
    Keyword: DF_BASIS_SCF
    atoms 1, 5, 7-10, 12-13, 15-16 entry H          line    70 file /home/r08543048/miniconda3/share/psi4/basis/jun-cc-pvtz-jkfit.gbs 
    atoms 2-3, 6, 11, 14           entry C          line   152 file /home/r08543048/miniconda3/share/psi4/basis/jun-cc-pvtz-jkfit.gbs 
    atoms 4                        entry O          line   272 file /home/r08543048/miniconda3/share/psi4/basis/jun-cc-pvtz-jkfit.gbs 

  ==> Pre-Iterations <==

   -------------------------------------------------------
    Irrep   Nso     Nmo     Nalpha   Nbeta   Ndocc  Nsocc
   -------------------------------------------------------
     A        374     374       0       0       0       0
   -------------------------------------------------------
    Total     374     374      16      16      16       0
   -------------------------------------------------------

  ==> Integral Setup <==

  ==> DiskDFJK: Density-Fitted J/K Matrices <==

    J tasked:                  Yes
    K tasked:                  Yes
    wK tasked:                  No
    OpenMP threads:              1
    Integrals threads:           1
    Memory [MiB]:            15735
    Algorithm:                Core
    Integral Cache:           LOAD
    Schwarz Cutoff:          1E-12
    Fitting Condition:       1E-10

   => Auxiliary Basis Set <=

  Basis Set: (JUN-CC-PVTZ AUX)
    Blend: JUN-CC-PVTZ-JKFIT
    Number of shells: 274
    Number of basis function: 870
    Number of Cartesian functions: 1046
    Spherical Harmonics?: true
    Max angular momentum: 4

  Minimum eigenvalue in the overlap matrix is 4.8158821027E-05.
  Using Symmetric Orthogonalization.

  SCF Guess: Superposition of Atomic Densities via on-the-fly atomic UHF.

  ==> Iterations <==

                           Total Energy        Delta E     RMS |[F,P]|

   @DF-RHF iter SAD:  -191.18012686533413   -1.91180e+02   0.00000e+00 
   @DF-RHF iter   1:  -191.85942551684411   -6.79299e-01   1.48636e-03 DIIS
   @DF-RHF iter   2:  -191.97485969696498   -1.15434e-01   9.51697e-04 DIIS
   @DF-RHF iter   3:  -192.02096761954630   -4.61079e-02   1.76114e-04 DIIS
   @DF-RHF iter   4:  -192.02374680065563   -2.77918e-03   7.50218e-05 DIIS
   @DF-RHF iter   5:  -192.02429401560920   -5.47215e-04   1.35502e-05 DIIS
   @DF-RHF iter   6:  -192.02433196318697   -3.79476e-05   5.14996e-06 DIIS
   @DF-RHF iter   7:  -192.02433713878838   -5.17560e-06   2.22308e-06 DIIS
   @DF-RHF iter   8:  -192.02433801037589   -8.71588e-07   6.98252e-07 DIIS
   @DF-RHF iter   9:  -192.02433811545058   -1.05075e-07   1.41145e-07 DIIS
   @DF-RHF iter  10:  -192.02433811955791   -4.10733e-09   2.93553e-08 DIIS
   @DF-RHF iter  11:  -192.02433811969570   -1.37788e-10   6.05371e-09 DIIS
  Energy and wave function converged.


  ==> Post-Iterations <==

    Orbital Energies [Eh]
    ---------------------

    Doubly Occupied:                                                      

       1A    -20.557963     2A    -11.332961     3A    -11.245460  
       4A    -11.221216     5A     -1.388513     6A     -1.064982  
       7A     -0.913271     8A     -0.773992     9A     -0.681190  
      10A     -0.636846    11A     -0.627666    12A     -0.542320  
      13A     -0.527836    14A     -0.520910    15A     -0.491412  
      16A     -0.423143  

    Virtual:                                                              

      17A      0.037052    18A      0.048336    19A      0.051032  
      20A      0.061759    21A      0.068526    22A      0.083820  
      23A      0.087610    24A      0.095139    25A      0.097424  
      26A      0.106594    27A      0.115399    28A      0.118744  
      29A      0.123099    30A      0.125941    31A      0.135232  
      32A      0.147431    33A      0.155226    34A      0.163611  
      35A      0.167668    36A      0.191288    37A      0.202348  
      38A      0.217042    39A      0.232348    40A      0.248813  
      41A      0.262744    42A      0.268711    43A      0.271019  
      44A      0.278904    45A      0.287601    46A      0.291898  
      47A      0.300506    48A      0.314262    49A      0.318092  
      50A      0.319939    51A      0.329842    52A      0.335068  
      53A      0.338819    54A      0.344016    55A      0.354796  
      56A      0.367392    57A      0.375458    58A      0.383921  
      59A      0.389921    60A      0.397871    61A      0.403203  
      62A      0.415470    63A      0.422035    64A      0.429264  
      65A      0.436452    66A      0.461737    67A      0.465424  
      68A      0.473816    69A      0.478938    70A      0.493742  
      71A      0.505255    72A      0.510700    73A      0.526161  
      74A      0.533796    75A      0.545834    76A      0.549677  
      77A      0.567737    78A      0.583009    79A      0.587513  
      80A      0.595276    81A      0.608249    82A      0.639604  
      83A      0.652549    84A      0.654056    85A      0.659288  
      86A      0.667118    87A      0.683661    88A      0.689699  
      89A      0.710817    90A      0.732012    91A      0.745840  
      92A      0.751525    93A      0.762553    94A      0.793191  
      95A      0.799224    96A      0.803059    97A      0.824578  
      98A      0.838178    99A      0.847191   100A      0.860579  
     101A      0.872414   102A      0.883121   103A      0.887376  
     104A      0.915484   105A      0.949537   106A      0.958365  
     107A      0.985089   108A      0.989562   109A      1.031653  
     110A      1.052930   111A      1.057693   112A      1.069208  
     113A      1.083740   114A      1.095401   115A      1.099573  
     116A      1.123705   117A      1.124524   118A      1.152649  
     119A      1.159672   120A      1.165364   121A      1.196146  
     122A      1.222179   123A      1.236412   124A      1.248126  
     125A      1.251505   126A      1.279947   127A      1.303725  
     128A      1.318461   129A      1.321312   130A      1.343725  
     131A      1.360872   132A      1.362468   133A      1.364287  
     134A      1.376063   135A      1.392669   136A      1.402026  
     137A      1.411576   138A      1.415755   139A      1.429313  
     140A      1.451039   141A      1.461265   142A      1.472890  
     143A      1.481976   144A      1.492048   145A      1.500585  
     146A      1.522034   147A      1.542724   148A      1.547316  
     149A      1.566190   150A      1.575467   151A      1.596617  
     152A      1.607722   153A      1.616176   154A      1.626219  
     155A      1.639540   156A      1.646430   157A      1.665576  
     158A      1.689418   159A      1.702985   160A      1.742579  
     161A      1.760272   162A      1.788353   163A      1.800411  
     164A      1.810070   165A      1.813674   166A      1.846418  
     167A      1.852403   168A      1.870741   169A      1.917071  
     170A      1.933002   171A      1.943897   172A      1.960611  
     173A      2.026200   174A      2.088259   175A      2.102124  
     176A      2.243772   177A      2.298203   178A      2.332263  
     179A      2.388859   180A      2.398409   181A      2.408817  
     182A      2.463236   183A      2.554623   184A      2.592406  
     185A      2.690078   186A      2.727222   187A      2.770897  
     188A      2.796918   189A      2.807157   190A      2.858503  
     191A      2.881896   192A      2.913870   193A      2.934468  
     194A      2.945706   195A      2.967323   196A      2.987022  
     197A      3.031780   198A      3.056024   199A      3.098720  
     200A      3.129839   201A      3.136938   202A      3.164281  
     203A      3.226980   204A      3.271570   205A      3.299286  
     206A      3.305136   207A      3.336432   208A      3.343504  
     209A      3.374222   210A      3.384340   211A      3.400547  
     212A      3.409688   213A      3.424883   214A      3.458324  
     215A      3.484958   216A      3.488301   217A      3.493846  
     218A      3.513856   219A      3.516413   220A      3.535380  
     221A      3.554441   222A      3.568036   223A      3.591940  
     224A      3.606668   225A      3.634885   226A      3.657079  
     227A      3.671956   228A      3.686062   229A      3.693054  
     230A      3.695308   231A      3.709245   232A      3.721947  
     233A      3.758438   234A      3.763857   235A      3.774915  
     236A      3.815629   237A      3.840166   238A      3.846088  
     239A      3.866376   240A      3.892774   241A      3.897946  
     242A      3.918391   243A      3.924560   244A      3.948401  
     245A      3.975181   246A      4.003091   247A      4.012451  
     248A      4.026784   249A      4.044345   250A      4.094862  
     251A      4.111842   252A      4.127903   253A      4.134218  
     254A      4.147713   255A      4.173014   256A      4.193534  
     257A      4.205711   258A      4.222311   259A      4.244109  
     260A      4.254233   261A      4.267929   262A      4.304236  
     263A      4.322840   264A      4.328838   265A      4.343022  
     266A      4.357773   267A      4.372150   268A      4.406967  
     269A      4.424534   270A      4.435737   271A      4.444193  
     272A      4.451158   273A      4.481928   274A      4.489641  
     275A      4.500573   276A      4.514709   277A      4.526136  
     278A      4.530644   279A      4.561364   280A      4.575525  
     281A      4.585719   282A      4.618730   283A      4.628499  
     284A      4.647833   285A      4.662906   286A      4.688145  
     287A      4.689767   288A      4.725442   289A      4.750627  
     290A      4.769248   291A      4.794777   292A      4.801185  
     293A      4.811161   294A      4.857903   295A      4.873223  
     296A      4.905001   297A      4.918749   298A      4.940081  
     299A      4.948486   300A      4.969559   301A      4.981736  
     302A      4.999461   303A      5.032453   304A      5.054157  
     305A      5.060928   306A      5.082751   307A      5.139229  
     308A      5.167614   309A      5.240161   310A      5.274613  
     311A      5.282631   312A      5.294394   313A      5.308892  
     314A      5.335432   315A      5.369049   316A      5.393069  
     317A      5.402459   318A      5.427337   319A      5.435524  
     320A      5.464880   321A      5.485708   322A      5.512729  
     323A      5.617555   324A      5.626826   325A      5.665916  
     326A      5.671252   327A      5.691498   328A      5.714687  
     329A      5.742662   330A      5.750944   331A      5.805631  
     332A      5.841502   333A      5.900355   334A      5.909433  
     335A      5.925810   336A      5.960978   337A      6.003156  
     338A      6.122342   339A      6.144839   340A      6.155226  
     341A      6.169993   342A      6.186557   343A      6.285678  
     344A      6.317129   345A      6.433124   346A      6.485387  
     347A      6.503347   348A      6.528732   349A      6.541822  
     350A      6.796999   351A      6.814679   352A      6.953670  
     353A      7.230865   354A      7.240228   355A      7.266554  
     356A      7.289898   357A      7.303656   358A      7.440175  
     359A      7.473195   360A      7.535408   361A      7.620934  
     362A      7.715618   363A      7.896356   364A      8.045162  
     365A      8.219550   366A      8.683502   367A      9.601466  
     368A     10.279329   369A     12.415415   370A     14.007161  
     371A     14.274415   372A     14.685757   373A     41.638444  
     374A     47.429239  

    Final Occupation by Irrep:
              A 
    DOCC [    16 ]

  @DF-RHF Final Energy:  -192.02433811969570

   => Energetics <=

    Nuclear Repulsion Energy =            118.6789532928315509
    One-Electron Energy =                -495.5072230881128235
    Two-Electron Energy =                 184.8039316755855452
    Total Energy =                       -192.0243381196956989

Computation Completed


Properties will be evaluated at   0.000000,   0.000000,   0.000000 [a0]

Properties computed using the SCF density matrix

  Nuclear Dipole Moment: [e a0]
     X:   -68.9227      Y:    -3.5699      Z:     2.1589

  Electronic Dipole Moment: [e a0]
     X:    68.7219      Y:     4.0712      Z:    -1.0334

  Dipole Moment: [e a0]
     X:    -0.2007      Y:     0.5012      Z:     1.1255     Total:     1.2484

  Dipole Moment: [D]
     X:    -0.5102      Y:     1.2740      Z:     2.8609     Total:     3.1730


*** tstop() called on r282 at Fri Sep 10 14:54:14 2021
Module time:
	user time   =      11.85 seconds =       0.20 minutes
	system time =       0.32 seconds =       0.01 minutes
	total time  =         13 seconds =       0.22 minutes
Total time:
	user time   =      33.28 seconds =       0.55 minutes
	system time =       0.97 seconds =       0.02 minutes
	total time  =         35 seconds =       0.58 minutes

  //>>>>>>>>>>>>>>>>>>>>>>>>>>>>>>>>>>>//
  //            Monomer B HF           //
  //<<<<<<<<<<<<<<<<<<<<<<<<<<<<<<<<<<<//


*** tstart() called on r282
*** at Fri Sep 10 14:54:14 2021

   => Loading Basis Set <=

    Name: JUN-CC-PVTZ
    Role: ORBITAL
    Keyword: BASIS
    atoms 1, 5, 7-10, 12-13, 15-16 entry H          line    36 file /home/r08543048/miniconda3/share/psi4/basis/jun-cc-pvtz.gbs 
    atoms 2-3, 6, 11, 14           entry C          line   217 file /home/r08543048/miniconda3/share/psi4/basis/jun-cc-pvtz.gbs 
    atoms 4                        entry O          line   305 file /home/r08543048/miniconda3/share/psi4/basis/jun-cc-pvtz.gbs 


         ---------------------------------------------------------
                                   SCF
               by Justin Turney, Rob Parrish, Andy Simmonett
                          and Daniel G. A. Smith
                              RHF Reference
                        1 Threads,  20980 MiB Core
         ---------------------------------------------------------

  ==> Geometry <==

    Molecular point group: c1
    Full point group: C1

    Geometry (in Angstrom), charge = 0, multiplicity = 1:

       Center              X                  Y                   Z               Mass       
    ------------   -----------------  -----------------  -----------------  -----------------
      Gh(H)          -0.677659741576    -1.754309424898     1.107963844642     1.007825032230
      Gh(C)          -1.297052741576     0.351257575102     0.838132844642    12.000000000000
      Gh(C)          -0.871142741576    -0.993616424898     0.328242844642    12.000000000000
      Gh(O)          -0.733641741576    -1.276217424898    -0.846748155358    15.994914619570
      Gh(H)          -0.510676741576     0.687567575102     1.521288844642     1.007825032230
      Gh(C)          -1.559280741576     1.365556575102    -0.259335155358    12.000000000000
      Gh(H)          -0.657266741576     1.537294575102    -0.843527155358     1.007825032230
      Gh(H)          -2.329226741576     1.007659575102    -0.940304155358     1.007825032230
      Gh(H)          -1.883074741576     2.314325575102     0.164482844642     1.007825032230
      Gh(H)          -2.180419741576     0.188881575102     1.464295844642     1.007825032230
         C            2.476332258424    -0.055836424898     0.560436844642    12.000000000000
         H            2.154764258424    -1.076640424898     0.718061844642     1.007825032230
         H            3.085846258424     0.398487575102     1.329459844642     1.007825032230
         C            2.143932258424     0.607597575102    -0.548370155358    12.000000000000
         H            2.475798258424     1.623786575102    -0.712725155358     1.007825032230
         H            1.535065258424     0.146726575102    -1.314141155358     1.007825032230

  Running in c1 symmetry.

  Rotational constants: A =      0.13614  B =      0.06138  C =      0.05323 [cm^-1]
  Rotational constants: A =   4081.32194  B =   1840.14723  C =   1595.70921 [MHz]
  Nuclear repulsion =   33.392447034227665

  Charge       = 0
  Multiplicity = 1
  Electrons    = 16
  Nalpha       = 8
  Nbeta        = 8

  ==> Algorithm <==

  SCF Algorithm Type is DF.
  DIIS enabled.
  MOM disabled.
  Fractional occupation disabled.
  Guess Type is SAD.
  Energy threshold   = 1.00e-08
  Density threshold  = 1.00e-08
  Integral threshold = 0.00e+00

  ==> Primary Basis <==

  Basis Set: JUN-CC-PVTZ
    Blend: JUN-CC-PVTZ
    Number of shells: 138
    Number of basis function: 374
    Number of Cartesian functions: 420
    Spherical Harmonics?: true
    Max angular momentum: 3

   => Loading Basis Set <=

    Name: (JUN-CC-PVTZ AUX)
    Role: JKFIT
    Keyword: DF_BASIS_SCF
    atoms 1, 5, 7-10, 12-13, 15-16 entry H          line    70 file /home/r08543048/miniconda3/share/psi4/basis/jun-cc-pvtz-jkfit.gbs 
    atoms 2-3, 6, 11, 14           entry C          line   152 file /home/r08543048/miniconda3/share/psi4/basis/jun-cc-pvtz-jkfit.gbs 
    atoms 4                        entry O          line   272 file /home/r08543048/miniconda3/share/psi4/basis/jun-cc-pvtz-jkfit.gbs 

  ==> Pre-Iterations <==

   -------------------------------------------------------
    Irrep   Nso     Nmo     Nalpha   Nbeta   Ndocc  Nsocc
   -------------------------------------------------------
     A        374     374       0       0       0       0
   -------------------------------------------------------
    Total     374     374       8       8       8       0
   -------------------------------------------------------

  ==> Integral Setup <==

  ==> DiskDFJK: Density-Fitted J/K Matrices <==

    J tasked:                  Yes
    K tasked:                  Yes
    wK tasked:                  No
    OpenMP threads:              1
    Integrals threads:           1
    Memory [MiB]:            15735
    Algorithm:                Core
    Integral Cache:           LOAD
    Schwarz Cutoff:          1E-12
    Fitting Condition:       1E-10

   => Auxiliary Basis Set <=

  Basis Set: (JUN-CC-PVTZ AUX)
    Blend: JUN-CC-PVTZ-JKFIT
    Number of shells: 274
    Number of basis function: 870
    Number of Cartesian functions: 1046
    Spherical Harmonics?: true
    Max angular momentum: 4

  Minimum eigenvalue in the overlap matrix is 4.8158821027E-05.
  Using Symmetric Orthogonalization.

  SCF Guess: Superposition of Atomic Densities via on-the-fly atomic UHF.

  ==> Iterations <==

                           Total Energy        Delta E     RMS |[F,P]|

   @DF-RHF iter SAD:   -77.28680554186036   -7.72868e+01   0.00000e+00 
   @DF-RHF iter   1:   -77.98992142152755   -7.03116e-01   9.59991e-04 DIIS
   @DF-RHF iter   2:   -78.05303520055180   -6.31138e-02   3.90437e-04 DIIS
   @DF-RHF iter   3:   -78.06380434801639   -1.07691e-02   6.05769e-05 DIIS
   @DF-RHF iter   4:   -78.06434964403226   -5.45296e-04   6.01705e-06 DIIS
   @DF-RHF iter   5:   -78.06435570893633   -6.06490e-06   6.85559e-07 DIIS
   @DF-RHF iter   6:   -78.06435579908296   -9.01466e-08   8.69251e-08 DIIS
   @DF-RHF iter   7:   -78.06435580032570   -1.24274e-09   2.04398e-08 DIIS
   @DF-RHF iter   8:   -78.06435580038422   -5.85203e-11   9.44270e-09 DIIS
  Energy and wave function converged.


  ==> Post-Iterations <==

    Orbital Energies [Eh]
    ---------------------

    Doubly Occupied:                                                      

       1A    -11.231639     2A    -11.229935     3A     -1.034170  
       4A     -0.793052     5A     -0.645027     6A     -0.586824  
       7A     -0.508978     8A     -0.376731  

    Virtual:                                                              

       9A      0.034842    10A      0.047044    11A      0.054179  
      12A      0.062510    13A      0.069085    14A      0.084737  
      15A      0.089167    16A      0.090796    17A      0.098180  
      18A      0.102037    19A      0.114498    20A      0.122703  
      21A      0.123356    22A      0.127879    23A      0.139063  
      24A      0.149472    25A      0.153043    26A      0.162990  
      27A      0.165903    28A      0.180339    29A      0.192758  
      30A      0.201526    31A      0.221198    32A      0.227942  
      33A      0.239305    34A      0.240236    35A      0.267032  
      36A      0.282138    37A      0.295045    38A      0.297840  
      39A      0.309643    40A      0.314368    41A      0.320747  
      42A      0.328732    43A      0.333801    44A      0.339568  
      45A      0.354407    46A      0.358222    47A      0.361618  
      48A      0.371039    49A      0.383667    50A      0.387382  
      51A      0.392555    52A      0.398626    53A      0.406182  
      54A      0.424155    55A      0.428407    56A      0.433730  
      57A      0.444828    58A      0.459642    59A      0.469856  
      60A      0.477824    61A      0.487472    62A      0.500330  
      63A      0.506648    64A      0.518928    65A      0.522556  
      66A      0.535610    67A      0.548881    68A      0.567190  
      69A      0.573150    70A      0.587526    71A      0.601382  
      72A      0.603685    73A      0.612441    74A      0.629444  
      75A      0.640035    76A      0.648261    77A      0.652859  
      78A      0.669491    79A      0.685335    80A      0.707938  
      81A      0.723912    82A      0.750012    83A      0.760449  
      84A      0.769763    85A      0.778858    86A      0.782239  
      87A      0.788360    88A      0.796600    89A      0.838598  
      90A      0.853315    91A      0.885466    92A      0.889105  
      93A      0.904040    94A      0.915768    95A      0.945235  
      96A      0.956436    97A      0.961620    98A      0.989671  
      99A      1.003085   100A      1.044303   101A      1.055372  
     102A      1.065160   103A      1.070193   104A      1.093280  
     105A      1.106799   106A      1.110349   107A      1.115910  
     108A      1.132746   109A      1.148786   110A      1.182141  
     111A      1.192715   112A      1.199086   113A      1.213708  
     114A      1.215683   115A      1.237932   116A      1.246238  
     117A      1.252348   118A      1.266973   119A      1.286416  
     120A      1.291617   121A      1.313783   122A      1.316130  
     123A      1.338601   124A      1.343920   125A      1.353761  
     126A      1.362590   127A      1.375602   128A      1.394252  
     129A      1.411358   130A      1.424075   131A      1.448301  
     132A      1.458710   133A      1.474313   134A      1.485931  
     135A      1.504406   136A      1.518403   137A      1.552626  
     138A      1.576865   139A      1.586101   140A      1.593462  
     141A      1.599847   142A      1.610040   143A      1.616795  
     144A      1.627000   145A      1.656058   146A      1.663102  
     147A      1.676260   148A      1.690933   149A      1.694041  
     150A      1.708497   151A      1.727352   152A      1.757989  
     153A      1.786792   154A      1.825999   155A      1.906331  
     156A      1.911586   157A      1.928275   158A      1.935987  
     159A      1.967598   160A      1.980320   161A      2.002777  
     162A      2.042248   163A      2.089821   164A      2.098270  
     165A      2.131689   166A      2.177982   167A      2.187751  
     168A      2.270270   169A      2.357337   170A      2.406091  
     171A      2.421373   172A      2.464006   173A      2.519186  
     174A      2.582297   175A      2.599662   176A      2.629067  
     177A      2.641592   178A      2.713817   179A      2.744384  
     180A      2.771552   181A      2.792325   182A      2.802992  
     183A      2.851308   184A      2.863048   185A      2.883406  
     186A      2.919641   187A      2.941393   188A      2.971426  
     189A      3.000385   190A      3.008939   191A      3.075865  
     192A      3.110761   193A      3.118472   194A      3.144987  
     195A      3.182857   196A      3.203497   197A      3.220798  
     198A      3.259248   199A      3.276860   200A      3.300136  
     201A      3.338236   202A      3.430247   203A      3.449932  
     204A      3.468982   205A      3.475772   206A      3.478682  
     207A      3.500259   208A      3.517634   209A      3.543872  
     210A      3.544983   211A      3.563906   212A      3.575407  
     213A      3.595852   214A      3.619710   215A      3.627829  
     216A      3.635654   217A      3.653612   218A      3.677621  
     219A      3.689792   220A      3.730387   221A      3.759784  
     222A      3.799994   223A      3.814491   224A      3.820690  
     225A      3.835172   226A      3.866616   227A      3.890260  
     228A      3.897189   229A      3.905047   230A      3.928495  
     231A      3.951837   232A      3.998872   233A      4.009871  
     234A      4.023070   235A      4.030540   236A      4.033379  
     237A      4.038238   238A      4.052120   239A      4.052857  
     240A      4.089464   241A      4.130529   242A      4.135499  
     243A      4.211104   244A      4.246734   245A      4.261381  
     246A      4.282901   247A      4.290445   248A      4.296129  
     249A      4.310756   250A      4.334043   251A      4.347126  
     252A      4.386062   253A      4.393449   254A      4.426033  
     255A      4.458781   256A      4.464364   257A      4.476670  
     258A      4.482847   259A      4.516236   260A      4.519111  
     261A      4.530432   262A      4.566642   263A      4.574055  
     264A      4.579912   265A      4.606744   266A      4.614669  
     267A      4.642262   268A      4.656181   269A      4.683245  
     270A      4.696200   271A      4.711549   272A      4.720275  
     273A      4.749392   274A      4.787053   275A      4.792648  
     276A      4.806840   277A      4.823256   278A      4.855744  
     279A      4.859506   280A      4.867603   281A      4.870953  
     282A      4.886680   283A      4.888553   284A      4.910949  
     285A      4.913886   286A      4.938878   287A      4.959764  
     288A      4.968031   289A      4.981342   290A      4.990621  
     291A      5.004378   292A      5.013332   293A      5.030352  
     294A      5.063722   295A      5.085583   296A      5.097864  
     297A      5.109456   298A      5.139860   299A      5.177817  
     300A      5.198606   301A      5.248946   302A      5.275576  
     303A      5.301747   304A      5.329830   305A      5.368519  
     306A      5.425601   307A      5.434362   308A      5.443910  
     309A      5.455250   310A      5.519784   311A      5.570656  
     312A      5.600647   313A      5.636311   314A      5.662168  
     315A      5.737687   316A      5.797298   317A      5.814703  
     318A      5.862375   319A      5.878109   320A      6.019106  
     321A      6.056940   322A      6.077718   323A      6.113182  
     324A      6.155527   325A      6.227621   326A      6.285139  
     327A      6.331081   328A      6.367965   329A      6.383793  
     330A      6.419144   331A      6.440632   332A      6.453629  
     333A      6.500541   334A      6.512302   335A      6.568370  
     336A      6.620172   337A      6.633066   338A      6.850866  
     339A      6.875753   340A      6.895395   341A      6.974199  
     342A      7.023862   343A      7.320712   344A      7.355923  
     345A      7.545388   346A      7.563755   347A      7.698392  
     348A      7.711536   349A      7.798020   350A      7.886529  
     351A      7.901001   352A      8.017781   353A      8.118310  
     354A      8.253699   355A      8.467572   356A      8.549245  
     357A      9.400675   358A      9.455304   359A      9.654458  
     360A      9.820893   361A      9.870288   362A      9.908530  
     363A      9.931427   364A     10.088228   365A     11.014698  
     366A     11.674998   367A     11.964564   368A     12.803153  
     369A     13.741248   370A     15.513478   371A     43.514621  
     372A     44.877108   373A     45.815072   374A     60.654353  

    Final Occupation by Irrep:
              A 
    DOCC [     8 ]

  @DF-RHF Final Energy:   -78.06435580038422

   => Energetics <=

    Nuclear Repulsion Energy =             33.3924470342276649
    One-Electron Energy =                -170.1008908701384144
    Two-Electron Energy =                  58.6440880355265222
    Total Energy =                        -78.0643558003842202

Computation Completed


Properties will be evaluated at   0.000000,   0.000000,   0.000000 [a0]

Properties computed using the SCF density matrix

  Nuclear Dipole Moment: [e a0]
     X:    69.8690      Y:     8.3203      Z:     0.1758

  Electronic Dipole Moment: [e a0]
     X:   -69.8649      Y:    -8.3217      Z:    -0.1770

  Dipole Moment: [e a0]
     X:     0.0040      Y:    -0.0013      Z:    -0.0012     Total:     0.0044

  Dipole Moment: [D]
     X:     0.0102      Y:    -0.0034      Z:    -0.0029     Total:     0.0112


*** tstop() called on r282 at Fri Sep 10 14:54:22 2021
Module time:
	user time   =       8.33 seconds =       0.14 minutes
	system time =       0.22 seconds =       0.00 minutes
	total time  =          8 seconds =       0.13 minutes
Total time:
	user time   =      41.62 seconds =       0.69 minutes
	system time =       1.19 seconds =       0.02 minutes
	total time  =         43 seconds =       0.72 minutes
  Constructing Basis Sets for SAPT...

   => Loading Basis Set <=

    Name: (JUN-CC-PVTZ AUX)
    Role: RIFIT
    Keyword: DF_BASIS_SAPT
    atoms 1, 5, 7-10, 12-13, 15-16 entry H          line    30 file /home/r08543048/miniconda3/share/psi4/basis/jun-cc-pvtz-ri.gbs 
    atoms 2-3, 6, 11, 14           entry C          line   132 file /home/r08543048/miniconda3/share/psi4/basis/jun-cc-pvtz-ri.gbs 
    atoms 4                        entry O          line   244 file /home/r08543048/miniconda3/share/psi4/basis/jun-cc-pvtz-ri.gbs 


  //>>>>>>>>>>>>>>>>>>>>>>>>>>>>>>>>>>>//
  //               SAPT0               //
  //<<<<<<<<<<<<<<<<<<<<<<<<<<<<<<<<<<<//


*** tstart() called on r282
*** at Fri Sep 10 14:54:22 2021

        SAPT0  
    Ed Hohenstein
     6 June 2009

      Orbital Information
  --------------------------
    NSO        =       374
    NMO        =       374
    NRI        =       882
    NOCC A     =        16
    NOCC B     =         8
    FOCC A     =         0
    FOCC B     =         0
    NVIR A     =       358
    NVIR B     =       366

    Elst10,r            =    -0.004370934665 [Eh]
    Exch10              =     0.006764341815 [Eh]
    Exch10 (S^2)        =     0.006735908995 [Eh]

    Iter     Energy [mEh]          dE [mEh]         Residual      Time [s]
       1      -0.41571764       0.415717644       3.582655985             0
       2      -0.46708132       0.051363677       1.717164373             0
       3      -0.49416057       0.027079252       0.458426314             1
       4      -0.49509874       0.000938168       0.166187511             1
       5      -0.49329834      -0.001800397       0.056781668             2
       6      -0.49342873       0.000130384       0.027015545             2
       7      -0.49360286       0.000174129       0.008570497             2
       8      -0.49355547      -0.000047391       0.004301488             3
       9      -0.49354764      -0.000007823       0.001853544             3
      10      -0.49355638       0.000008733       0.000667212             4
      11      -0.49355657       0.000000191       0.000147438             4
      12      -0.49355595      -0.000000614       0.000028981             4
      13      -0.49355603       0.000000080       0.000007835             5
      14      -0.49355605       0.000000013       0.000002107             5
      15      -0.49355604      -0.000000004       0.000000468             6

    CHF Iterations converged


    Iter     Energy [mEh]          dE [mEh]         Residual      Time [s]
       1      -1.89936517       1.899365167       6.658094907             0
       2      -2.41599130       0.516626129       2.422651188             0
       3      -2.44982392       0.033832628       0.768445788             1
       4      -2.43922508      -0.010598844       0.229925380             1
       5      -2.43675720      -0.002467884       0.056434899             1
       6      -2.43783945       0.001082251       0.018244361             2
       7      -2.43777245      -0.000067000       0.006876440             2
       8      -2.43769082      -0.000081630       0.001180486             2
       9      -2.43770400       0.000013183       0.000241140             3
      10      -2.43770261      -0.000001385       0.000049080             3
      11      -2.43770258      -0.000000039       0.000011320             3
      12      -2.43770264       0.000000062       0.000002645             4
      13      -2.43770263      -0.000000011       0.000000529             4

    CHF Iterations converged

    Ind20,r (A<-B)      =    -0.000493556043 [Eh]
    Ind20,r (B<-A)      =    -0.002437702627 [Eh]
    Ind20,r             =    -0.002931258670 [Eh]
    Exch-Ind20,r (A<-B) =     0.000375854793 [Eh]
    Exch-Ind20,r (B<-A) =     0.002070069575 [Eh]
    Exch-Ind20,r        =     0.002445924368 [Eh]
    Disp20              =    -0.006856573573 [Eh]
    Disp20 (SS)         =    -0.003428286786 [Eh]
    Disp20 (OS)         =    -0.003428286786 [Eh]
    Exch-Disp20         =     0.000815154210 [Eh]
    Exch-Disp20 (SS)    =     0.000522257419 [Eh]
    Exch-Disp20 (OS)    =     0.000292896792 [Eh]

    SAPT Results 
  --------------------------------------------------------------------------------------------------------
    Electrostatics                 -4.37093466 [mEh]      -2.74280291 [kcal/mol]     -11.47588738 [kJ/mol]
      Elst10,r                     -4.37093466 [mEh]      -2.74280291 [kcal/mol]     -11.47588738 [kJ/mol]

    Exchange                        6.76434181 [mEh]       4.24468857 [kcal/mol]      17.75977699 [kJ/mol]
      Exch10                        6.76434181 [mEh]       4.24468857 [kcal/mol]      17.75977699 [kJ/mol]
      Exch10(S^2)                   6.73590900 [mEh]       4.22684671 [kcal/mol]      17.68512663 [kJ/mol]

    Induction                      -1.01930190 [mEh]      -0.63962160 [kcal/mol]      -2.67617677 [kJ/mol]
      Ind20,r                      -2.93125867 [mEh]      -1.83939259 [kcal/mol]      -7.69601858 [kJ/mol]
      Exch-Ind20,r                  2.44592437 [mEh]       1.53484071 [kcal/mol]       6.42177354 [kJ/mol]
      delta HF,r (2)               -0.53396760 [mEh]      -0.33506973 [kcal/mol]      -1.40193173 [kJ/mol]

    Dispersion                     -6.04141936 [mEh]      -3.79104788 [kcal/mol]     -15.86174435 [kJ/mol]
      Disp20                       -6.85657357 [mEh]      -4.30256487 [kcal/mol]     -18.00193144 [kJ/mol]
      Exch-Disp20                   0.81515421 [mEh]       0.51151699 [kcal/mol]       2.14018708 [kJ/mol]
      Disp20 (SS)                  -3.42828679 [mEh]      -2.15128244 [kcal/mol]      -9.00096572 [kJ/mol]
      Disp20 (OS)                  -3.42828679 [mEh]      -2.15128244 [kcal/mol]      -9.00096572 [kJ/mol]
      Exch-Disp20 (SS)              0.52225742 [mEh]       0.32772148 [kcal/mol]       1.37118666 [kJ/mol]
      Exch-Disp20 (OS)              0.29289679 [mEh]       0.18379551 [kcal/mol]       0.76900042 [kJ/mol]

  Total HF                          1.37410525 [mEh]       0.86226406 [kcal/mol]       3.60771284 [kJ/mol]
  Total SAPT0                      -4.66731411 [mEh]      -2.92878382 [kcal/mol]     -12.25403151 [kJ/mol]

  Special recipe for scaled SAPT0 (see Manual):
    Electrostatics sSAPT0          -4.37093466 [mEh]      -2.74280291 [kcal/mol]     -11.47588738 [kJ/mol]
    Exchange sSAPT0                 6.76434181 [mEh]       4.24468857 [kcal/mol]      17.75977699 [kJ/mol]
    Induction sSAPT0               -0.98819764 [mEh]      -0.62010338 [kcal/mol]      -2.59451254 [kJ/mol]
    Dispersion sSAPT0              -6.03105323 [mEh]      -3.78454304 [kcal/mol]     -15.83452808 [kJ/mol]
  Total sSAPT0                     -4.62584372 [mEh]      -2.90276076 [kcal/mol]     -12.14515101 [kJ/mol]
  --------------------------------------------------------------------------------------------------------

*** tstop() called on r282 at Fri Sep 10 14:55:04 2021
Module time:
	user time   =      34.11 seconds =       0.57 minutes
	system time =       7.18 seconds =       0.12 minutes
	total time  =         42 seconds =       0.70 minutes
Total time:
	user time   =      75.83 seconds =       1.26 minutes
	system time =       8.37 seconds =       0.14 minutes
	total time  =         85 seconds =       1.42 minutes

    Psi4 stopped on: Friday, 10 September 2021 02:55PM
    Psi4 wall time for execution: 0:01:24.49

*** Psi4 exiting successfully. Buy a developer a beer!
