
    -----------------------------------------------------------------------
          Psi4: An Open-Source Ab Initio Electronic Structure Package
                               Psi4 1.3.2 release

                         Git: Rev {HEAD} ecbda83 


    R. M. Parrish, L. A. Burns, D. G. A. Smith, A. C. Simmonett,
    A. E. DePrince III, E. G. Hohenstein, U. Bozkaya, A. Yu. Sokolov,
    R. Di Remigio, R. M. Richard, J. F. Gonthier, A. M. James,
    H. R. McAlexander, A. Kumar, M. Saitow, X. Wang, B. P. Pritchard,
    P. Verma, H. F. Schaefer III, K. Patkowski, R. A. King, E. F. Valeev,
    F. A. Evangelista, J. M. Turney, T. D. Crawford, and C. D. Sherrill,
    J. Chem. Theory Comput. 13(7) pp 3185--3197 (2017).
    (doi: 10.1021/acs.jctc.7b00174)


                         Additional Contributions by
    P. Kraus, H. Kruse, M. H. Lechner, M. C. Schieber, R. A. Shaw,
    A. Alenaizan, R. Galvelis, Z. L. Glick, S. Lehtola, and J. P. Misiewicz

    -----------------------------------------------------------------------


    Psi4 started on: Friday, 10 September 2021 01:58PM

    Process ID: 56712
    Host:       r282
    PSIDATADIR: /home/r08543048/miniconda3/share/psi4
    Memory:     500.0 MiB
    Threads:    1
    
  ==> Input File <==

--------------------------------------------------------------------------
# Any line starting with the # character is a comment line
#! Sample  computation

memory 22 gb

molecule Dimer {
0 1
 H   2.561134    1.553773    0.123684
 C   2.310396   -0.428441   -0.824844
 C   2.298135    0.504984    0.350466
 O   2.017890    0.174671    1.487473
 H   3.283462   -0.318425   -1.313603
 C   2.021066   -1.873341   -0.459799
 H   2.768129   -2.250846    0.236182
 H   1.050621   -1.961864    0.024301
 H   2.025868   -2.502723   -1.347969
 H   1.580714   -0.031397   -1.538773
  
  
  
  
  

    
    
 --
0 1
 C   -0.415350    2.457178    0.031773
 C   -1.008132    1.500724   -0.690877
 C   -1.250403    0.106002   -0.211250
 C   -2.739499   -0.184039   -0.010205
 C   -2.982199   -1.621094    0.432949
 H   -0.042402    2.251018    1.027634
 H   -0.297020    3.460668   -0.353780
 H   -1.377361    1.746028   -1.683305
 H   -0.857210   -0.610463   -0.940580
 H   -0.714372   -0.059910    0.727108
 H   -3.135123    0.511962    0.732504
 H   -3.274742    0.014950   -0.942205
 H   -2.611251   -2.324216   -0.314012
 H   -2.464797   -1.827931    1.370422
 H   -4.042845   -1.819835    0.583331




units angstrom

no_reorient
symmetry c1
}

set globals{
  basis jun-cc-pvtz
}

energy('sapt0')


--------------------------------------------------------------------------

  Memory set to  20.489 GiB by Python driver.

  //>>>>>>>>>>>>>>>>>>>>>>>>>>>>>>>>>>>//
  //              Dimer HF             //
  //<<<<<<<<<<<<<<<<<<<<<<<<<<<<<<<<<<<//


*** tstart() called on r282
*** at Fri Sep 10 13:58:12 2021

   => Loading Basis Set <=

    Name: JUN-CC-PVTZ
    Role: ORBITAL
    Keyword: BASIS
    atoms 1, 5, 7-10, 16-25 entry H          line    36 file /home/r08543048/miniconda3/share/psi4/basis/jun-cc-pvtz.gbs 
    atoms 2-3, 6, 11-15     entry C          line   217 file /home/r08543048/miniconda3/share/psi4/basis/jun-cc-pvtz.gbs 
    atoms 4                 entry O          line   305 file /home/r08543048/miniconda3/share/psi4/basis/jun-cc-pvtz.gbs 


         ---------------------------------------------------------
                                   SCF
               by Justin Turney, Rob Parrish, Andy Simmonett
                          and Daniel G. A. Smith
                              RHF Reference
                        1 Threads,  20980 MiB Core
         ---------------------------------------------------------

  ==> Geometry <==

    Molecular point group: c1
    Full point group: C1

    Geometry (in Angstrom), charge = 0, multiplicity = 1:

       Center              X                  Y                   Z               Mass       
    ------------   -----------------  -----------------  -----------------  -----------------
         H            2.518255922063     1.521493224754     0.095794096752     1.007825032230
         C            2.267517922063    -0.460720775246    -0.852733903248    12.000000000000
         C            2.255256922063     0.472704224754     0.322576096752    12.000000000000
         O            1.975011922063     0.142391224754     1.459583096752    15.994914619570
         H            3.240583922063    -0.350704775246    -1.341492903248     1.007825032230
         C            1.978187922063    -1.905620775246    -0.487688903248    12.000000000000
         H            2.725250922063    -2.283125775246     0.208292096752     1.007825032230
         H            1.007742922063    -1.994143775246    -0.003588903248     1.007825032230
         H            1.982989922063    -2.535002775246    -1.375858903248     1.007825032230
         H            1.537835922063    -0.063676775246    -1.566662903248     1.007825032230
         C           -0.458228077937     2.424898224754     0.003883096752    12.000000000000
         C           -1.051010077937     1.468444224754    -0.718766903248    12.000000000000
         C           -1.293281077937     0.073722224754    -0.239139903248    12.000000000000
         C           -2.782377077937    -0.216318775246    -0.038094903248    12.000000000000
         C           -3.025077077937    -1.653373775246     0.405059096752    12.000000000000
         H           -0.085280077937     2.218738224754     0.999744096752     1.007825032230
         H           -0.339898077937     3.428388224754    -0.381669903248     1.007825032230
         H           -1.420239077937     1.713748224754    -1.711194903248     1.007825032230
         H           -0.900088077937    -0.642742775246    -0.968469903248     1.007825032230
         H           -0.757250077937    -0.092189775246     0.699218096752     1.007825032230
         H           -3.178001077937     0.479682224754     0.704614096752     1.007825032230
         H           -3.317620077937    -0.017329775246    -0.970094903248     1.007825032230
         H           -2.654129077937    -2.356495775246    -0.341901903248     1.007825032230
         H           -2.507675077937    -1.860210775246     1.342532096752     1.007825032230
         H           -4.085723077937    -1.852114775246     0.555441096752     1.007825032230

  Running in c1 symmetry.

  Rotational constants: A =      0.05597  B =      0.02681  C =      0.02140 [cm^-1]
  Rotational constants: A =   1677.86991  B =    803.66394  C =    641.41657 [MHz]
  Nuclear repulsion =  443.364465723303852

  Charge       = 0
  Multiplicity = 1
  Electrons    = 72
  Nalpha       = 36
  Nbeta        = 36

  ==> Algorithm <==

  SCF Algorithm Type is DF.
  DIIS enabled.
  MOM disabled.
  Fractional occupation disabled.
  Guess Type is SAD.
  Energy threshold   = 1.00e-08
  Density threshold  = 1.00e-08
  Integral threshold = 0.00e+00

  ==> Primary Basis <==

  Basis Set: JUN-CC-PVTZ
    Blend: JUN-CC-PVTZ
    Number of shells: 213
    Number of basis function: 575
    Number of Cartesian functions: 645
    Spherical Harmonics?: true
    Max angular momentum: 3

   => Loading Basis Set <=

    Name: (JUN-CC-PVTZ AUX)
    Role: JKFIT
    Keyword: DF_BASIS_SCF
    atoms 1, 5, 7-10, 16-25 entry H          line    70 file /home/r08543048/miniconda3/share/psi4/basis/jun-cc-pvtz-jkfit.gbs 
    atoms 2-3, 6, 11-15     entry C          line   152 file /home/r08543048/miniconda3/share/psi4/basis/jun-cc-pvtz-jkfit.gbs 
    atoms 4                 entry O          line   272 file /home/r08543048/miniconda3/share/psi4/basis/jun-cc-pvtz-jkfit.gbs 

  ==> Pre-Iterations <==

   -------------------------------------------------------
    Irrep   Nso     Nmo     Nalpha   Nbeta   Ndocc  Nsocc
   -------------------------------------------------------
     A        575     575       0       0       0       0
   -------------------------------------------------------
    Total     575     575      36      36      36       0
   -------------------------------------------------------

  ==> Integral Setup <==

  ==> DiskDFJK: Density-Fitted J/K Matrices <==

    J tasked:                  Yes
    K tasked:                  Yes
    wK tasked:                  No
    OpenMP threads:              1
    Integrals threads:           1
    Memory [MiB]:            15735
    Algorithm:                Core
    Integral Cache:           SAVE
    Schwarz Cutoff:          1E-12
    Fitting Condition:       1E-10

   => Auxiliary Basis Set <=

  Basis Set: (JUN-CC-PVTZ AUX)
    Blend: JUN-CC-PVTZ-JKFIT
    Number of shells: 421
    Number of basis function: 1335
    Number of Cartesian functions: 1604
    Spherical Harmonics?: true
    Max angular momentum: 4

  Minimum eigenvalue in the overlap matrix is 2.2851657441E-05.
  Using Symmetric Orthogonalization.

  SCF Guess: Superposition of Atomic Densities via on-the-fly atomic UHF.

  ==> Iterations <==

                           Total Energy        Delta E     RMS |[F,P]|

   @DF-RHF iter SAD:  -385.78605603652079   -3.85786e+02   0.00000e+00 
   @DF-RHF iter   1:  -386.86129253382722   -1.07524e+00   1.38816e-03 DIIS
   @DF-RHF iter   2:  -387.15120889111893   -2.89916e-01   7.44159e-04 DIIS
   @DF-RHF iter   3:  -387.22790602918900   -7.66971e-02   1.67200e-04 DIIS
   @DF-RHF iter   4:  -387.23338221780739   -5.47619e-03   7.57960e-05 DIIS
   @DF-RHF iter   5:  -387.23444596747919   -1.06375e-03   1.10540e-05 DIIS
   @DF-RHF iter   6:  -387.23449419137700   -4.82239e-05   4.68626e-06 DIIS
   @DF-RHF iter   7:  -387.23450082523578   -6.63386e-06   1.88149e-06 DIIS
   @DF-RHF iter   8:  -387.23450227059834   -1.44536e-06   8.29731e-07 DIIS
   @DF-RHF iter   9:  -387.23450258227649   -3.11678e-07   2.40767e-07 DIIS
   @DF-RHF iter  10:  -387.23450261034776   -2.80713e-08   7.13458e-08 DIIS
   @DF-RHF iter  11:  -387.23450261262388   -2.27612e-09   2.14330e-08 DIIS
   @DF-RHF iter  12:  -387.23450261287803   -2.54147e-10   9.52010e-09 DIIS
  Energy and wave function converged.


  ==> Post-Iterations <==

    Orbital Energies [Eh]
    ---------------------

    Doubly Occupied:                                                      

       1A    -20.552764     2A    -11.329135     3A    -11.240581  
       4A    -11.233526     5A    -11.221483     6A    -11.219420  
       7A    -11.219322     8A    -11.218566     9A    -11.210529  
      10A     -1.384758    11A     -1.091121    12A     -1.060591  
      13A     -1.023111    14A     -0.923398    15A     -0.909697  
      16A     -0.812742    17A     -0.770779    18A     -0.758097  
      19A     -0.677689    20A     -0.653939    21A     -0.633507  
      22A     -0.624045    23A     -0.617212    24A     -0.589751  
      25A     -0.566435    26A     -0.540069    27A     -0.537505  
      28A     -0.526792    29A     -0.517904    30A     -0.511042  
      31A     -0.490064    32A     -0.482963    33A     -0.471297  
      34A     -0.469303    35A     -0.419319    36A     -0.359339  

    Virtual:                                                              

      37A      0.045705    38A      0.048785    39A      0.052579  
      40A      0.056989    41A      0.066580    42A      0.071353  
      43A      0.073756    44A      0.081215    45A      0.084448  
      46A      0.097466    47A      0.105595    48A      0.107568  
      49A      0.111647    50A      0.116333    51A      0.117669  
      52A      0.123099    53A      0.130673    54A      0.139349  
      55A      0.143260    56A      0.145498    57A      0.149092  
      58A      0.160867    59A      0.162232    60A      0.167701  
      61A      0.177968    62A      0.182759    63A      0.186696  
      64A      0.190251    65A      0.201606    66A      0.207244  
      67A      0.210520    68A      0.216006    69A      0.220009  
      70A      0.235337    71A      0.242295    72A      0.260008  
      73A      0.261907    74A      0.269638    75A      0.273139  
      76A      0.277476    77A      0.283375    78A      0.296188  
      79A      0.300377    80A      0.301974    81A      0.307701  
      82A      0.315725    83A      0.325123    84A      0.328483  
      85A      0.333411    86A      0.337350    87A      0.339952  
      88A      0.343011    89A      0.343753    90A      0.347855  
      91A      0.353287    92A      0.359491    93A      0.364388  
      94A      0.368715    95A      0.374594    96A      0.382245  
      97A      0.387033    98A      0.391854    99A      0.394983  
     100A      0.399566   101A      0.402494   102A      0.415464  
     103A      0.421853   104A      0.428698   105A      0.439915  
     106A      0.441501   107A      0.448333   108A      0.450260  
     109A      0.451323   110A      0.459273   111A      0.475979  
     112A      0.478833   113A      0.495145   114A      0.496509  
     115A      0.500395   116A      0.512469   117A      0.515415  
     118A      0.521293   119A      0.527606   120A      0.535505  
     121A      0.540413   122A      0.541766   123A      0.550991  
     124A      0.561662   125A      0.567260   126A      0.575306  
     127A      0.579417   128A      0.586680   129A      0.589896  
     130A      0.608486   131A      0.616714   132A      0.621544  
     133A      0.627048   134A      0.639165   135A      0.648188  
     136A      0.655433   137A      0.666802   138A      0.675051  
     139A      0.687495   140A      0.693762   141A      0.699354  
     142A      0.709909   143A      0.724588   144A      0.728521  
     145A      0.733128   146A      0.746588   147A      0.752616  
     148A      0.759871   149A      0.769147   150A      0.786346  
     151A      0.788078   152A      0.789049   153A      0.803942  
     154A      0.811000   155A      0.814180   156A      0.819499  
     157A      0.833631   158A      0.834910   159A      0.838319  
     160A      0.847070   161A      0.853056   162A      0.859769  
     163A      0.864798   164A      0.869296   165A      0.877993  
     166A      0.883994   167A      0.892365   168A      0.903689  
     169A      0.911017   170A      0.915116   171A      0.927272  
     172A      0.941486   173A      0.942670   174A      0.952410  
     175A      0.965893   176A      0.971512   177A      0.983643  
     178A      0.991449   179A      1.000861   180A      1.007822  
     181A      1.026793   182A      1.036499   183A      1.045833  
     184A      1.053444   185A      1.060588   186A      1.078113  
     187A      1.084400   188A      1.088423   189A      1.108255  
     190A      1.115542   191A      1.127037   192A      1.145202  
     193A      1.149885   194A      1.154269   195A      1.171530  
     196A      1.173930   197A      1.182428   198A      1.208483  
     199A      1.209318   200A      1.226025   201A      1.237862  
     202A      1.250561   203A      1.267551   204A      1.280893  
     205A      1.289585   206A      1.308250   207A      1.310474  
     208A      1.314792   209A      1.328666   210A      1.332549  
     211A      1.349702   212A      1.357222   213A      1.368574  
     214A      1.375352   215A      1.381211   216A      1.390811  
     217A      1.398964   218A      1.409853   219A      1.413866  
     220A      1.415926   221A      1.432624   222A      1.440654  
     223A      1.452190   224A      1.453673   225A      1.474607  
     226A      1.480219   227A      1.488567   228A      1.499077  
     229A      1.509272   230A      1.512302   231A      1.520607  
     232A      1.530416   233A      1.541883   234A      1.556668  
     235A      1.557789   236A      1.573774   237A      1.592156  
     238A      1.593176   239A      1.603044   240A      1.614507  
     241A      1.617870   242A      1.629063   243A      1.632574  
     244A      1.637707   245A      1.643716   246A      1.654046  
     247A      1.658673   248A      1.678372   249A      1.691428  
     250A      1.698551   251A      1.704327   252A      1.716045  
     253A      1.721105   254A      1.739564   255A      1.759660  
     256A      1.763436   257A      1.777779   258A      1.780220  
     259A      1.794219   260A      1.804189   261A      1.808477  
     262A      1.824956   263A      1.849916   264A      1.861688  
     265A      1.868237   266A      1.892585   267A      1.912291  
     268A      1.923086   269A      1.930753   270A      1.948767  
     271A      1.956410   272A      1.962219   273A      1.987060  
     274A      2.007125   275A      2.019210   276A      2.045618  
     277A      2.081031   278A      2.126614   279A      2.138405  
     280A      2.161586   281A      2.265987   282A      2.354208  
     283A      2.405186   284A      2.425012   285A      2.470516  
     286A      2.568658   287A      2.683377   288A      2.730614  
     289A      2.754710   290A      2.771339   291A      2.780195  
     292A      2.791950   293A      2.802882   294A      2.817321  
     295A      2.838570   296A      2.839134   297A      2.850062  
     298A      2.862229   299A      2.868471   300A      2.884759  
     301A      2.897982   302A      2.903606   303A      2.921603  
     304A      2.930067   305A      2.945159   306A      2.950494  
     307A      2.954274   308A      2.978440   309A      2.987104  
     310A      2.994175   311A      3.007424   312A      3.023339  
     313A      3.041239   314A      3.057871   315A      3.065909  
     316A      3.071927   317A      3.099517   318A      3.103746  
     319A      3.109524   320A      3.127460   321A      3.136196  
     322A      3.139135   323A      3.144252   324A      3.154490  
     325A      3.165224   326A      3.173879   327A      3.193930  
     328A      3.198980   329A      3.210332   330A      3.226606  
     331A      3.234930   332A      3.251956   333A      3.254940  
     334A      3.265634   335A      3.281044   336A      3.299181  
     337A      3.305964   338A      3.313819   339A      3.326784  
     340A      3.338715   341A      3.339224   342A      3.356960  
     343A      3.358351   344A      3.370116   345A      3.376523  
     346A      3.378638   347A      3.394099   348A      3.399733  
     349A      3.407195   350A      3.417344   351A      3.433883  
     352A      3.439618   353A      3.443088   354A      3.463182  
     355A      3.470986   356A      3.474993   357A      3.485143  
     358A      3.496975   359A      3.500954   360A      3.503809  
     361A      3.509105   362A      3.514060   363A      3.524590  
     364A      3.534529   365A      3.535823   366A      3.545942  
     367A      3.552396   368A      3.563840   369A      3.577050  
     370A      3.589981   371A      3.592869   372A      3.603191  
     373A      3.615738   374A      3.622761   375A      3.627728  
     376A      3.639543   377A      3.644489   378A      3.652606  
     379A      3.669171   380A      3.681268   381A      3.692164  
     382A      3.698330   383A      3.716529   384A      3.724294  
     385A      3.730565   386A      3.759811   387A      3.771792  
     388A      3.793268   389A      3.800790   390A      3.808856  
     391A      3.822295   392A      3.828571   393A      3.835314  
     394A      3.858229   395A      3.871371   396A      3.886753  
     397A      3.889528   398A      3.892078   399A      3.910752  
     400A      3.913019   401A      3.931782   402A      3.941680  
     403A      3.953140   404A      3.965332   405A      3.974094  
     406A      3.988466   407A      4.002370   408A      4.014766  
     409A      4.030818   410A      4.040679   411A      4.049400  
     412A      4.063138   413A      4.089463   414A      4.111818  
     415A      4.126265   416A      4.142285   417A      4.152498  
     418A      4.177216   419A      4.187316   420A      4.196845  
     421A      4.209006   422A      4.223461   423A      4.229892  
     424A      4.237436   425A      4.248378   426A      4.263812  
     427A      4.278307   428A      4.289472   429A      4.304599  
     430A      4.320617   431A      4.329820   432A      4.337048  
     433A      4.342476   434A      4.355024   435A      4.359500  
     436A      4.367101   437A      4.382593   438A      4.388473  
     439A      4.406666   440A      4.421254   441A      4.427895  
     442A      4.433245   443A      4.442981   444A      4.450878  
     445A      4.458409   446A      4.461803   447A      4.467817  
     448A      4.483403   449A      4.497948   450A      4.501632  
     451A      4.507183   452A      4.509682   453A      4.520159  
     454A      4.533566   455A      4.542258   456A      4.568541  
     457A      4.583230   458A      4.596688   459A      4.608432  
     460A      4.631917   461A      4.640885   462A      4.655320  
     463A      4.663644   464A      4.664541   465A      4.671048  
     466A      4.694865   467A      4.713087   468A      4.716121  
     469A      4.733470   470A      4.749875   471A      4.758562  
     472A      4.784108   473A      4.803409   474A      4.819182  
     475A      4.839432   476A      4.860370   477A      4.881685  
     478A      4.897845   479A      4.924266   480A      4.931754  
     481A      4.941272   482A      4.969477   483A      4.981373  
     484A      5.007785   485A      5.017453   486A      5.029468  
     487A      5.044658   488A      5.046980   489A      5.076415  
     490A      5.088687   491A      5.124915   492A      5.152169  
     493A      5.180474   494A      5.180976   495A      5.192543  
     496A      5.231619   497A      5.250904   498A      5.262325  
     499A      5.278230   500A      5.284986   501A      5.293559  
     502A      5.297703   503A      5.301456   504A      5.319442  
     505A      5.349962   506A      5.364636   507A      5.372975  
     508A      5.379664   509A      5.395983   510A      5.419556  
     511A      5.426900   512A      5.440282   513A      5.458790  
     514A      5.474581   515A      5.481092   516A      5.521044  
     517A      5.532307   518A      5.568162   519A      5.612039  
     520A      5.630918   521A      5.647332   522A      5.664213  
     523A      5.679132   524A      5.704932   525A      5.716812  
     526A      5.724757   527A      5.746787   528A      5.760109  
     529A      5.762086   530A      5.772423   531A      5.792740  
     532A      5.822406   533A      5.850248   534A      5.861239  
     535A      5.876054   536A      5.911699   537A      5.926861  
     538A      5.934640   539A      5.942967   540A      5.965416  
     541A      5.966482   542A      5.980412   543A      6.021924  
     544A      6.133250   545A      6.136868   546A      6.206378  
     547A      6.273192   548A      6.329567   549A      6.424664  
     550A      6.480639   551A      6.498353   552A      6.510811  
     553A      6.521870   554A      6.545191   555A      6.569408  
     556A      6.580255   557A      6.637633   558A      6.718301  
     559A      6.804336   560A      6.976236   561A      7.256810  
     562A      7.297700   563A      7.312542   564A      7.449650  
     565A      7.638307   566A      7.733728   567A     12.372098  
     568A     12.524382   569A     13.849756   570A     14.040177  
     571A     14.372389   572A     14.524526   573A     14.587867  
     574A     14.779620   575A     15.407250  

    Final Occupation by Irrep:
              A 
    DOCC [    36 ]

  @DF-RHF Final Energy:  -387.23450261287803

   => Energetics <=

    Nuclear Repulsion Energy =            443.3644657233038515
    One-Electron Energy =               -1403.4623477161155733
    Two-Electron Energy =                 572.8633793799336900
    Total Energy =                       -387.2345026128780319

Computation Completed


Properties will be evaluated at   0.000000,   0.000000,   0.000000 [a0]

Properties computed using the SCF density matrix

  Nuclear Dipole Moment: [e a0]
     X:    -5.8340      Y:    -4.3920      Z:    -3.7947

  Electronic Dipole Moment: [e a0]
     X:     5.9326      Y:     4.4140      Z:     2.6488

  Dipole Moment: [e a0]
     X:     0.0986      Y:     0.0220      Z:    -1.1460     Total:     1.1504

  Dipole Moment: [D]
     X:     0.2507      Y:     0.0560      Z:    -2.9127     Total:     2.9240


*** tstop() called on r282 at Fri Sep 10 13:59:55 2021
Module time:
	user time   =     101.24 seconds =       1.69 minutes
	system time =       2.12 seconds =       0.04 minutes
	total time  =        103 seconds =       1.72 minutes
Total time:
	user time   =     101.24 seconds =       1.69 minutes
	system time =       2.12 seconds =       0.04 minutes
	total time  =        103 seconds =       1.72 minutes

  //>>>>>>>>>>>>>>>>>>>>>>>>>>>>>>>>>>>//
  //            Monomer A HF           //
  //<<<<<<<<<<<<<<<<<<<<<<<<<<<<<<<<<<<//


*** tstart() called on r282
*** at Fri Sep 10 13:59:55 2021

   => Loading Basis Set <=

    Name: JUN-CC-PVTZ
    Role: ORBITAL
    Keyword: BASIS
    atoms 1, 5, 7-10, 16-25 entry H          line    36 file /home/r08543048/miniconda3/share/psi4/basis/jun-cc-pvtz.gbs 
    atoms 2-3, 6, 11-15     entry C          line   217 file /home/r08543048/miniconda3/share/psi4/basis/jun-cc-pvtz.gbs 
    atoms 4                 entry O          line   305 file /home/r08543048/miniconda3/share/psi4/basis/jun-cc-pvtz.gbs 


         ---------------------------------------------------------
                                   SCF
               by Justin Turney, Rob Parrish, Andy Simmonett
                          and Daniel G. A. Smith
                              RHF Reference
                        1 Threads,  20980 MiB Core
         ---------------------------------------------------------

  ==> Geometry <==

    Molecular point group: c1
    Full point group: C1

    Geometry (in Angstrom), charge = 0, multiplicity = 1:

       Center              X                  Y                   Z               Mass       
    ------------   -----------------  -----------------  -----------------  -----------------
         H            2.518255922063     1.521493224754     0.095794096752     1.007825032230
         C            2.267517922063    -0.460720775246    -0.852733903248    12.000000000000
         C            2.255256922063     0.472704224754     0.322576096752    12.000000000000
         O            1.975011922063     0.142391224754     1.459583096752    15.994914619570
         H            3.240583922063    -0.350704775246    -1.341492903248     1.007825032230
         C            1.978187922063    -1.905620775246    -0.487688903248    12.000000000000
         H            2.725250922063    -2.283125775246     0.208292096752     1.007825032230
         H            1.007742922063    -1.994143775246    -0.003588903248     1.007825032230
         H            1.982989922063    -2.535002775246    -1.375858903248     1.007825032230
         H            1.537835922063    -0.063676775246    -1.566662903248     1.007825032230
      Gh(C)          -0.458228077937     2.424898224754     0.003883096752    12.000000000000
      Gh(C)          -1.051010077937     1.468444224754    -0.718766903248    12.000000000000
      Gh(C)          -1.293281077937     0.073722224754    -0.239139903248    12.000000000000
      Gh(C)          -2.782377077937    -0.216318775246    -0.038094903248    12.000000000000
      Gh(C)          -3.025077077937    -1.653373775246     0.405059096752    12.000000000000
      Gh(H)          -0.085280077937     2.218738224754     0.999744096752     1.007825032230
      Gh(H)          -0.339898077937     3.428388224754    -0.381669903248     1.007825032230
      Gh(H)          -1.420239077937     1.713748224754    -1.711194903248     1.007825032230
      Gh(H)          -0.900088077937    -0.642742775246    -0.968469903248     1.007825032230
      Gh(H)          -0.757250077937    -0.092189775246     0.699218096752     1.007825032230
      Gh(H)          -3.178001077937     0.479682224754     0.704614096752     1.007825032230
      Gh(H)          -3.317620077937    -0.017329775246    -0.970094903248     1.007825032230
      Gh(H)          -2.654129077937    -2.356495775246    -0.341901903248     1.007825032230
      Gh(H)          -2.507675077937    -1.860210775246     1.342532096752     1.007825032230
      Gh(H)          -4.085723077937    -1.852114775246     0.555441096752     1.007825032230

  Running in c1 symmetry.

  Rotational constants: A =      0.05597  B =      0.02681  C =      0.02140 [cm^-1]
  Rotational constants: A =   1677.86991  B =    803.66394  C =    641.41657 [MHz]
  Nuclear repulsion =  118.670939399339773

  Charge       = 0
  Multiplicity = 1
  Electrons    = 32
  Nalpha       = 16
  Nbeta        = 16

  ==> Algorithm <==

  SCF Algorithm Type is DF.
  DIIS enabled.
  MOM disabled.
  Fractional occupation disabled.
  Guess Type is SAD.
  Energy threshold   = 1.00e-08
  Density threshold  = 1.00e-08
  Integral threshold = 0.00e+00

  ==> Primary Basis <==

  Basis Set: JUN-CC-PVTZ
    Blend: JUN-CC-PVTZ
    Number of shells: 213
    Number of basis function: 575
    Number of Cartesian functions: 645
    Spherical Harmonics?: true
    Max angular momentum: 3

   => Loading Basis Set <=

    Name: (JUN-CC-PVTZ AUX)
    Role: JKFIT
    Keyword: DF_BASIS_SCF
    atoms 1, 5, 7-10, 16-25 entry H          line    70 file /home/r08543048/miniconda3/share/psi4/basis/jun-cc-pvtz-jkfit.gbs 
    atoms 2-3, 6, 11-15     entry C          line   152 file /home/r08543048/miniconda3/share/psi4/basis/jun-cc-pvtz-jkfit.gbs 
    atoms 4                 entry O          line   272 file /home/r08543048/miniconda3/share/psi4/basis/jun-cc-pvtz-jkfit.gbs 

  ==> Pre-Iterations <==

   -------------------------------------------------------
    Irrep   Nso     Nmo     Nalpha   Nbeta   Ndocc  Nsocc
   -------------------------------------------------------
     A        575     575       0       0       0       0
   -------------------------------------------------------
    Total     575     575      16      16      16       0
   -------------------------------------------------------

  ==> Integral Setup <==

  ==> DiskDFJK: Density-Fitted J/K Matrices <==

    J tasked:                  Yes
    K tasked:                  Yes
    wK tasked:                  No
    OpenMP threads:              1
    Integrals threads:           1
    Memory [MiB]:            15735
    Algorithm:                Core
    Integral Cache:           LOAD
    Schwarz Cutoff:          1E-12
    Fitting Condition:       1E-10

   => Auxiliary Basis Set <=

  Basis Set: (JUN-CC-PVTZ AUX)
    Blend: JUN-CC-PVTZ-JKFIT
    Number of shells: 421
    Number of basis function: 1335
    Number of Cartesian functions: 1604
    Spherical Harmonics?: true
    Max angular momentum: 4

  Minimum eigenvalue in the overlap matrix is 2.2851657441E-05.
  Using Symmetric Orthogonalization.

  SCF Guess: Superposition of Atomic Densities via on-the-fly atomic UHF.

  ==> Iterations <==

                           Total Energy        Delta E     RMS |[F,P]|

   @DF-RHF iter SAD:  -191.17700809810646   -1.91177e+02   0.00000e+00 
   @DF-RHF iter   1:  -191.85944147963045   -6.82433e-01   9.66564e-04 DIIS
   @DF-RHF iter   2:  -191.97472508462974   -1.15284e-01   6.19611e-04 DIIS
   @DF-RHF iter   3:  -192.02092825601613   -4.62032e-02   1.14565e-04 DIIS
   @DF-RHF iter   4:  -192.02370915587414   -2.78090e-03   4.87869e-05 DIIS
   @DF-RHF iter   5:  -192.02425656166398   -5.47406e-04   8.82169e-06 DIIS
   @DF-RHF iter   6:  -192.02429459531808   -3.80337e-05   3.35386e-06 DIIS
   @DF-RHF iter   7:  -192.02429978506638   -5.18975e-06   1.44965e-06 DIIS
   @DF-RHF iter   8:  -192.02430066083011   -8.75764e-07   4.56549e-07 DIIS
   @DF-RHF iter   9:  -192.02430076712267   -1.06293e-07   9.22059e-08 DIIS
   @DF-RHF iter  10:  -192.02430077128557   -4.16290e-09   1.93341e-08 DIIS
   @DF-RHF iter  11:  -192.02430077142989   -1.44325e-10   4.17042e-09 DIIS
  Energy and wave function converged.


  ==> Post-Iterations <==

    Orbital Energies [Eh]
    ---------------------

    Doubly Occupied:                                                      

       1A    -20.557881     2A    -11.332963     3A    -11.245469  
       4A    -11.221227     5A     -1.388220     6A     -1.064403  
       7A     -0.913231     8A     -0.774491     9A     -0.681226  
      10A     -0.636113    11A     -0.627469    12A     -0.542133  
      13A     -0.527656    14A     -0.520996    15A     -0.491084  
      16A     -0.423239  

    Virtual:                                                              

      17A      0.028175    18A      0.039388    19A      0.046868  
      20A      0.053253    21A      0.061324    22A      0.065520  
      23A      0.071183    24A      0.076620    25A      0.078569  
      26A      0.095522    27A      0.097137    28A      0.100638  
      29A      0.106565    30A      0.111219    31A      0.112663  
      32A      0.118257    33A      0.127385    34A      0.132569  
      35A      0.136225    36A      0.139557    37A      0.145293  
      38A      0.147193    39A      0.154263    40A      0.158468  
      41A      0.159430    42A      0.168394    43A      0.176522  
      44A      0.181054    45A      0.183579    46A      0.190743  
      47A      0.200608    48A      0.205162    49A      0.210003  
      50A      0.233229    51A      0.240936    52A      0.246282  
      53A      0.263740    54A      0.266404    55A      0.272895  
      56A      0.278257    57A      0.286445    58A      0.290004  
      59A      0.294385    60A      0.301208    61A      0.307797  
      62A      0.309936    63A      0.315709    64A      0.322614  
      65A      0.328898    66A      0.331754    67A      0.333653  
      68A      0.336406    69A      0.345095    70A      0.349177  
      71A      0.355644    72A      0.360182    73A      0.363197  
      74A      0.379483    75A      0.380597    76A      0.386326  
      77A      0.392863    78A      0.400559    79A      0.406601  
      80A      0.410797    81A      0.413939    82A      0.421505  
      83A      0.425672    84A      0.432603    85A      0.435786  
      86A      0.444638    87A      0.449422    88A      0.459605  
      89A      0.466251    90A      0.473120    91A      0.479776  
      92A      0.490245    93A      0.493365    94A      0.498541  
      95A      0.514204    96A      0.517839    97A      0.526043  
      98A      0.529642    99A      0.534752   100A      0.538268  
     101A      0.544272   102A      0.554200   103A      0.561030  
     104A      0.565010   105A      0.575897   106A      0.578742  
     107A      0.589870   108A      0.597367   109A      0.603581  
     110A      0.613884   111A      0.622222   112A      0.625856  
     113A      0.636082   114A      0.647100   115A      0.649091  
     116A      0.654681   117A      0.660753   118A      0.665556  
     119A      0.674188   120A      0.678784   121A      0.683263  
     122A      0.690978   123A      0.699027   124A      0.709011  
     125A      0.719232   126A      0.722184   127A      0.739472  
     128A      0.749926   129A      0.754886   130A      0.762351  
     131A      0.770467   132A      0.778927   133A      0.783911  
     134A      0.795631   135A      0.800973   136A      0.823383  
     137A      0.838114   138A      0.847466   139A      0.859420  
     140A      0.863194   141A      0.872129   142A      0.873935  
     143A      0.882358   144A      0.899508   145A      0.909223  
     146A      0.924177   147A      0.935341   148A      0.953405  
     149A      0.959777   150A      0.994112   151A      1.018051  
     152A      1.025282   153A      1.041309   154A      1.053801  
     155A      1.067345   156A      1.078181   157A      1.092995  
     158A      1.106495   159A      1.116266   160A      1.121618  
     161A      1.131468   162A      1.137093   163A      1.153836  
     164A      1.161919   165A      1.177782   166A      1.182703  
     167A      1.188003   168A      1.194151   169A      1.206607  
     170A      1.214406   171A      1.223359   172A      1.232638  
     173A      1.249022   174A      1.252769   175A      1.263181  
     176A      1.277338   177A      1.280114   178A      1.283231  
     179A      1.297979   180A      1.299750   181A      1.315981  
     182A      1.321399   183A      1.329271   184A      1.332850  
     185A      1.341737   186A      1.353573   187A      1.360494  
     188A      1.368860   189A      1.374208   190A      1.379826  
     191A      1.388343   192A      1.392902   193A      1.402933  
     194A      1.416761   195A      1.421170   196A      1.427473  
     197A      1.434640   198A      1.444465   199A      1.450299  
     200A      1.457958   201A      1.464765   202A      1.476299  
     203A      1.480641   204A      1.498619   205A      1.504058  
     206A      1.521595   207A      1.531861   208A      1.535934  
     209A      1.538087   210A      1.550667   211A      1.553477  
     212A      1.555379   213A      1.563692   214A      1.570520  
     215A      1.581945   216A      1.595312   217A      1.596981  
     218A      1.607507   219A      1.617970   220A      1.622912  
     221A      1.627763   222A      1.632099   223A      1.644269  
     224A      1.647209   225A      1.658846   226A      1.667985  
     227A      1.679459   228A      1.692131   229A      1.712369  
     230A      1.719584   231A      1.733094   232A      1.740516  
     233A      1.758360   234A      1.759316   235A      1.787240  
     236A      1.796541   237A      1.804767   238A      1.808806  
     239A      1.816694   240A      1.828038   241A      1.846572  
     242A      1.873247   243A      1.890178   244A      1.901953  
     245A      1.927359   246A      1.931469   247A      1.939980  
     248A      1.960353   249A      1.974162   250A      1.998379  
     251A      2.014607   252A      2.033473   253A      2.062325  
     254A      2.094373   255A      2.124207   256A      2.133358  
     257A      2.146169   258A      2.163349   259A      2.203448  
     260A      2.246676   261A      2.247408   262A      2.288310  
     263A      2.329052   264A      2.339477   265A      2.362431  
     266A      2.380842   267A      2.398344   268A      2.413111  
     269A      2.427452   270A      2.456073   271A      2.475675  
     272A      2.485941   273A      2.496286   274A      2.540672  
     275A      2.562521   276A      2.570161   277A      2.598280  
     278A      2.660576   279A      2.692484   280A      2.737887  
     281A      2.746157   282A      2.792792   283A      2.828403  
     284A      2.829162   285A      2.882778   286A      2.912850  
     287A      2.931153   288A      2.953992   289A      2.963617  
     290A      2.974656   291A      2.997175   292A      3.017571  
     293A      3.066489   294A      3.079961   295A      3.109573  
     296A      3.138981   297A      3.148725   298A      3.186804  
     299A      3.253176   300A      3.300542   301A      3.316008  
     302A      3.325414   303A      3.349922   304A      3.384513  
     305A      3.400027   306A      3.405674   307A      3.432368  
     308A      3.443463   309A      3.448727   310A      3.485258  
     311A      3.494761   312A      3.501643   313A      3.518306  
     314A      3.525264   315A      3.527063   316A      3.544355  
     317A      3.559342   318A      3.569597   319A      3.576285  
     320A      3.585720   321A      3.589969   322A      3.597233  
     323A      3.605647   324A      3.609935   325A      3.631332  
     326A      3.644565   327A      3.649873   328A      3.673900  
     329A      3.675292   330A      3.691571   331A      3.702377  
     332A      3.711964   333A      3.714777   334A      3.732447  
     335A      3.748957   336A      3.759528   337A      3.783757  
     338A      3.787702   339A      3.797772   340A      3.815711  
     341A      3.824425   342A      3.836656   343A      3.843437  
     344A      3.850542   345A      3.858594   346A      3.862117  
     347A      3.880191   348A      3.884864   349A      3.888222  
     350A      3.900970   351A      3.904001   352A      3.920183  
     353A      3.941102   354A      3.952098   355A      3.962301  
     356A      3.967351   357A      3.989160   358A      4.011688  
     359A      4.023394   360A      4.024406   361A      4.045031  
     362A      4.061065   363A      4.094967   364A      4.101834  
     365A      4.107967   366A      4.123062   367A      4.134919  
     368A      4.144878   369A      4.155465   370A      4.180079  
     371A      4.193211   372A      4.204247   373A      4.209810  
     374A      4.220164   375A      4.221675   376A      4.225674  
     377A      4.239944   378A      4.253003   379A      4.275635  
     380A      4.294234   381A      4.307543   382A      4.316113  
     383A      4.325581   384A      4.329833   385A      4.340265  
     386A      4.363828   387A      4.368921   388A      4.390124  
     389A      4.417117   390A      4.420515   391A      4.435523  
     392A      4.447016   393A      4.449427   394A      4.456352  
     395A      4.475354   396A      4.482373   397A      4.496278  
     398A      4.496964   399A      4.505015   400A      4.517816  
     401A      4.520325   402A      4.527020   403A      4.535563  
     404A      4.546004   405A      4.571200   406A      4.579068  
     407A      4.597850   408A      4.607837   409A      4.621499  
     410A      4.629656   411A      4.638160   412A      4.645593  
     413A      4.651328   414A      4.662403   415A      4.676631  
     416A      4.689522   417A      4.697313   418A      4.706192  
     419A      4.707903   420A      4.718684   421A      4.733284  
     422A      4.747148   423A      4.748089   424A      4.752687  
     425A      4.768041   426A      4.779326   427A      4.800617  
     428A      4.808379   429A      4.813858   430A      4.828368  
     431A      4.844829   432A      4.853451   433A      4.859411  
     434A      4.864120   435A      4.877904   436A      4.889330  
     437A      4.894634   438A      4.902745   439A      4.926137  
     440A      4.933687   441A      4.938965   442A      4.953867  
     443A      4.959438   444A      4.963972   445A      4.972705  
     446A      4.981024   447A      4.985107   448A      5.003009  
     449A      5.015896   450A      5.030160   451A      5.036006  
     452A      5.052362   453A      5.055413   454A      5.083067  
     455A      5.095191   456A      5.098621   457A      5.117532  
     458A      5.132459   459A      5.144450   460A      5.166358  
     461A      5.175067   462A      5.194424   463A      5.208431  
     464A      5.232420   465A      5.251291   466A      5.256914  
     467A      5.283788   468A      5.294213   469A      5.297164  
     470A      5.324312   471A      5.335584   472A      5.345741  
     473A      5.363621   474A      5.375725   475A      5.393739  
     476A      5.410400   477A      5.443755   478A      5.456279  
     479A      5.458869   480A      5.481994   481A      5.497971  
     482A      5.522844   483A      5.553087   484A      5.579861  
     485A      5.626904   486A      5.640410   487A      5.657766  
     488A      5.674075   489A      5.677798   490A      5.696556  
     491A      5.706895   492A      5.719779   493A      5.728467  
     494A      5.745765   495A      5.761704   496A      5.781702  
     497A      5.821703   498A      5.850850   499A      5.854222  
     500A      5.865495   501A      5.912715   502A      5.936628  
     503A      5.940777   504A      5.972592   505A      5.990571  
     506A      6.019667   507A      6.040385   508A      6.057357  
     509A      6.079458   510A      6.104026   511A      6.131007  
     512A      6.194270   513A      6.211062   514A      6.252191  
     515A      6.275857   516A      6.316967   517A      6.324225  
     518A      6.355244   519A      6.389456   520A      6.402293  
     521A      6.436462   522A      6.453449   523A      6.491682  
     524A      6.527936   525A      6.536239   526A      6.564681  
     527A      6.668282   528A      6.693096   529A      6.743468  
     530A      6.784342   531A      6.800568   532A      6.826415  
     533A      6.933847   534A      6.972847   535A      7.013541  
     536A      7.121383   537A      7.251554   538A      7.293680  
     539A      7.308059   540A      7.362079   541A      7.422356  
     542A      7.446690   543A      7.480210   544A      7.535735  
     545A      7.569199   546A      7.634534   547A      7.654833  
     548A      7.682861   549A      7.712056   550A      7.730543  
     551A      7.741803   552A      7.821416   553A      7.882269  
     554A      7.911566   555A      7.985844   556A      8.050482  
     557A      8.155982   558A      8.314931   559A      8.357450  
     560A      8.691335   561A      8.861598   562A      9.440443  
     563A      9.643924   564A      9.817678   565A      9.891236  
     566A     10.224747   567A     12.528363   568A     14.035651  
     569A     14.373753   570A     14.764657   571A     41.217122  
     572A     44.166104   573A     45.549044   574A     46.065351  
     575A     47.283938  

    Final Occupation by Irrep:
              A 
    DOCC [    16 ]

  @DF-RHF Final Energy:  -192.02430077142989

   => Energetics <=

    Nuclear Repulsion Energy =            118.6709393993397725
    One-Electron Energy =                -495.4948778513966090
    Two-Electron Energy =                 184.7996376806269438
    Total Energy =                       -192.0243007714298926

Computation Completed


Properties will be evaluated at   0.000000,   0.000000,   0.000000 [a0]

Properties computed using the SCF density matrix

  Nuclear Dipole Moment: [e a0]
     X:   128.1585      Y:   -30.0993      Z:     2.9972

  Electronic Dipole Moment: [e a0]
     X:  -127.9114      Y:    30.2149      Z:    -4.2139

  Dipole Moment: [e a0]
     X:     0.2471      Y:     0.1157      Z:    -1.2167     Total:     1.2469

  Dipole Moment: [D]
     X:     0.6280      Y:     0.2940      Z:    -3.0924     Total:     3.1692


*** tstop() called on r282 at Fri Sep 10 14:01:02 2021
Module time:
	user time   =      66.24 seconds =       1.10 minutes
	system time =       0.90 seconds =       0.01 minutes
	total time  =         67 seconds =       1.12 minutes
Total time:
	user time   =     167.48 seconds =       2.79 minutes
	system time =       3.02 seconds =       0.05 minutes
	total time  =        170 seconds =       2.83 minutes

  //>>>>>>>>>>>>>>>>>>>>>>>>>>>>>>>>>>>//
  //            Monomer B HF           //
  //<<<<<<<<<<<<<<<<<<<<<<<<<<<<<<<<<<<//


*** tstart() called on r282
*** at Fri Sep 10 14:01:02 2021

   => Loading Basis Set <=

    Name: JUN-CC-PVTZ
    Role: ORBITAL
    Keyword: BASIS
    atoms 1, 5, 7-10, 16-25 entry H          line    36 file /home/r08543048/miniconda3/share/psi4/basis/jun-cc-pvtz.gbs 
    atoms 2-3, 6, 11-15     entry C          line   217 file /home/r08543048/miniconda3/share/psi4/basis/jun-cc-pvtz.gbs 
    atoms 4                 entry O          line   305 file /home/r08543048/miniconda3/share/psi4/basis/jun-cc-pvtz.gbs 


         ---------------------------------------------------------
                                   SCF
               by Justin Turney, Rob Parrish, Andy Simmonett
                          and Daniel G. A. Smith
                              RHF Reference
                        1 Threads,  20980 MiB Core
         ---------------------------------------------------------

  ==> Geometry <==

    Molecular point group: c1
    Full point group: C1

    Geometry (in Angstrom), charge = 0, multiplicity = 1:

       Center              X                  Y                   Z               Mass       
    ------------   -----------------  -----------------  -----------------  -----------------
      Gh(H)           2.518255922063     1.521493224754     0.095794096752     1.007825032230
      Gh(C)           2.267517922063    -0.460720775246    -0.852733903248    12.000000000000
      Gh(C)           2.255256922063     0.472704224754     0.322576096752    12.000000000000
      Gh(O)           1.975011922063     0.142391224754     1.459583096752    15.994914619570
      Gh(H)           3.240583922063    -0.350704775246    -1.341492903248     1.007825032230
      Gh(C)           1.978187922063    -1.905620775246    -0.487688903248    12.000000000000
      Gh(H)           2.725250922063    -2.283125775246     0.208292096752     1.007825032230
      Gh(H)           1.007742922063    -1.994143775246    -0.003588903248     1.007825032230
      Gh(H)           1.982989922063    -2.535002775246    -1.375858903248     1.007825032230
      Gh(H)           1.537835922063    -0.063676775246    -1.566662903248     1.007825032230
         C           -0.458228077937     2.424898224754     0.003883096752    12.000000000000
         C           -1.051010077937     1.468444224754    -0.718766903248    12.000000000000
         C           -1.293281077937     0.073722224754    -0.239139903248    12.000000000000
         C           -2.782377077937    -0.216318775246    -0.038094903248    12.000000000000
         C           -3.025077077937    -1.653373775246     0.405059096752    12.000000000000
         H           -0.085280077937     2.218738224754     0.999744096752     1.007825032230
         H           -0.339898077937     3.428388224754    -0.381669903248     1.007825032230
         H           -1.420239077937     1.713748224754    -1.711194903248     1.007825032230
         H           -0.900088077937    -0.642742775246    -0.968469903248     1.007825032230
         H           -0.757250077937    -0.092189775246     0.699218096752     1.007825032230
         H           -3.178001077937     0.479682224754     0.704614096752     1.007825032230
         H           -3.317620077937    -0.017329775246    -0.970094903248     1.007825032230
         H           -2.654129077937    -2.356495775246    -0.341901903248     1.007825032230
         H           -2.507675077937    -1.860210775246     1.342532096752     1.007825032230
         H           -4.085723077937    -1.852114775246     0.555441096752     1.007825032230

  Running in c1 symmetry.

  Rotational constants: A =      0.05597  B =      0.02681  C =      0.02140 [cm^-1]
  Rotational constants: A =   1677.86991  B =    803.66394  C =    641.41657 [MHz]
  Nuclear repulsion =  170.667698572122333

  Charge       = 0
  Multiplicity = 1
  Electrons    = 40
  Nalpha       = 20
  Nbeta        = 20

  ==> Algorithm <==

  SCF Algorithm Type is DF.
  DIIS enabled.
  MOM disabled.
  Fractional occupation disabled.
  Guess Type is SAD.
  Energy threshold   = 1.00e-08
  Density threshold  = 1.00e-08
  Integral threshold = 0.00e+00

  ==> Primary Basis <==

  Basis Set: JUN-CC-PVTZ
    Blend: JUN-CC-PVTZ
    Number of shells: 213
    Number of basis function: 575
    Number of Cartesian functions: 645
    Spherical Harmonics?: true
    Max angular momentum: 3

   => Loading Basis Set <=

    Name: (JUN-CC-PVTZ AUX)
    Role: JKFIT
    Keyword: DF_BASIS_SCF
    atoms 1, 5, 7-10, 16-25 entry H          line    70 file /home/r08543048/miniconda3/share/psi4/basis/jun-cc-pvtz-jkfit.gbs 
    atoms 2-3, 6, 11-15     entry C          line   152 file /home/r08543048/miniconda3/share/psi4/basis/jun-cc-pvtz-jkfit.gbs 
    atoms 4                 entry O          line   272 file /home/r08543048/miniconda3/share/psi4/basis/jun-cc-pvtz-jkfit.gbs 

  ==> Pre-Iterations <==

   -------------------------------------------------------
    Irrep   Nso     Nmo     Nalpha   Nbeta   Ndocc  Nsocc
   -------------------------------------------------------
     A        575     575       0       0       0       0
   -------------------------------------------------------
    Total     575     575      20      20      20       0
   -------------------------------------------------------

  ==> Integral Setup <==

  ==> DiskDFJK: Density-Fitted J/K Matrices <==

    J tasked:                  Yes
    K tasked:                  Yes
    wK tasked:                  No
    OpenMP threads:              1
    Integrals threads:           1
    Memory [MiB]:            15735
    Algorithm:                Core
    Integral Cache:           LOAD
    Schwarz Cutoff:          1E-12
    Fitting Condition:       1E-10

   => Auxiliary Basis Set <=

  Basis Set: (JUN-CC-PVTZ AUX)
    Blend: JUN-CC-PVTZ-JKFIT
    Number of shells: 421
    Number of basis function: 1335
    Number of Cartesian functions: 1604
    Spherical Harmonics?: true
    Max angular momentum: 4

  Minimum eigenvalue in the overlap matrix is 2.2851657441E-05.
  Using Symmetric Orthogonalization.

  SCF Guess: Superposition of Atomic Densities via on-the-fly atomic UHF.

  ==> Iterations <==

                           Total Energy        Delta E     RMS |[F,P]|

   @DF-RHF iter SAD:  -194.45213589914147   -1.94452e+02   0.00000e+00 
   @DF-RHF iter   1:  -194.99849931219319   -5.46363e-01   1.01499e-03 DIIS
   @DF-RHF iter   2:  -195.17495336840761   -1.76454e-01   4.46964e-04 DIIS
   @DF-RHF iter   3:  -195.20962304882269   -3.46697e-02   8.59983e-05 DIIS
   @DF-RHF iter   4:  -195.21196447589304   -2.34143e-03   2.87652e-05 DIIS
   @DF-RHF iter   5:  -195.21213364028677   -1.69164e-04   5.95355e-06 DIIS
   @DF-RHF iter   6:  -195.21214408653503   -1.04462e-05   1.39335e-06 DIIS
   @DF-RHF iter   7:  -195.21214459495846   -5.08423e-07   3.72667e-07 DIIS
   @DF-RHF iter   8:  -195.21214463631898   -4.13605e-08   8.08110e-08 DIIS
   @DF-RHF iter   9:  -195.21214463895336   -2.63438e-09   2.46515e-08 DIIS
   @DF-RHF iter  10:  -195.21214463924665   -2.93284e-10   8.43676e-09 DIIS
  Energy and wave function converged.


  ==> Post-Iterations <==

    Orbital Energies [Eh]
    ---------------------

    Doubly Occupied:                                                      

       1A    -11.230946     2A    -11.222025     3A    -11.219408  
       4A    -11.217392     5A    -11.211423     6A     -1.089574  
       7A     -1.021712     8A     -0.922255     9A     -0.812163  
      10A     -0.756073    11A     -0.652089    12A     -0.616693  
      13A     -0.588475    14A     -0.566811    15A     -0.537635  
      16A     -0.511149    17A     -0.483948    18A     -0.472141  
      19A     -0.470654    20A     -0.355758  

    Virtual:                                                              

      21A      0.034208    22A      0.046984    23A      0.051571  
      24A      0.051768    25A      0.065817    26A      0.069519  
      27A      0.073108    28A      0.077540    29A      0.080106  
      30A      0.096068    31A      0.100088    32A      0.107906  
      33A      0.109729    34A      0.111962    35A      0.116090  
      36A      0.120100    37A      0.123001    38A      0.135493  
      39A      0.140921    40A      0.145239    41A      0.152573  
      42A      0.155237    43A      0.157804    44A      0.166228  
      45A      0.171497    46A      0.173571    47A      0.179302  
      48A      0.185977    49A      0.195425    50A      0.202712  
      51A      0.208495    52A      0.212436    53A      0.214738  
      54A      0.229246    55A      0.232204    56A      0.243206  
      57A      0.250763    58A      0.262985    59A      0.271956  
      60A      0.281532    61A      0.284229    62A      0.292521  
      63A      0.298280    64A      0.302113    65A      0.315023  
      66A      0.318128    67A      0.324313    68A      0.330593  
      69A      0.335269    70A      0.338124    71A      0.338649  
      72A      0.342711    73A      0.353622    74A      0.358201  
      75A      0.360649    76A      0.366675    77A      0.374938  
      78A      0.379397    79A      0.384806    80A      0.386700  
      81A      0.388388    82A      0.394590    83A      0.400216  
      84A      0.405241    85A      0.409201    86A      0.416735  
      87A      0.422927    88A      0.429713    89A      0.438198  
      90A      0.445778    91A      0.451966    92A      0.459092  
      93A      0.466957    94A      0.475540    95A      0.478904  
      96A      0.487040    97A      0.492560    98A      0.504699  
      99A      0.509148   100A      0.514175   101A      0.523227  
     102A      0.529830   103A      0.534281   104A      0.540159  
     105A      0.543574   106A      0.545369   107A      0.549475  
     108A      0.563480   109A      0.575777   110A      0.580733  
     111A      0.586477   112A      0.594608   113A      0.601169  
     114A      0.611560   115A      0.617566   116A      0.621408  
     117A      0.630270   118A      0.635795   119A      0.645559  
     120A      0.648899   121A      0.664597   122A      0.668245  
     123A      0.682017   124A      0.685390   125A      0.695095  
     126A      0.701117   127A      0.711236   128A      0.720001  
     129A      0.724784   130A      0.734167   131A      0.750533  
     132A      0.765486   133A      0.772889   134A      0.783669  
     135A      0.792381   136A      0.801160   137A      0.803844  
     138A      0.819311   139A      0.829602   140A      0.835238  
     141A      0.841720   142A      0.850706   143A      0.853316  
     144A      0.866756   145A      0.882274   146A      0.887282  
     147A      0.901856   148A      0.903507   149A      0.908935  
     150A      0.918176   151A      0.935598   152A      0.936770  
     153A      0.961908   154A      0.962653   155A      0.969452  
     156A      0.973979   157A      0.988753   158A      0.991399  
     159A      1.007856   160A      1.013910   161A      1.033539  
     162A      1.055785   163A      1.058707   164A      1.061188  
     165A      1.083622   166A      1.086314   167A      1.099733  
     168A      1.104773   169A      1.109328   170A      1.134188  
     171A      1.148216   172A      1.151527   173A      1.164127  
     174A      1.175526   175A      1.188828   176A      1.192612  
     177A      1.212425   178A      1.215985   179A      1.223178  
     180A      1.231462   181A      1.236675   182A      1.254417  
     183A      1.266675   184A      1.271735   185A      1.279803  
     186A      1.288898   187A      1.294839   188A      1.306526  
     189A      1.314135   190A      1.318925   191A      1.337413  
     192A      1.356529   193A      1.360659   194A      1.366643  
     195A      1.373441   196A      1.380930   197A      1.386165  
     198A      1.390660   199A      1.391829   200A      1.405058  
     201A      1.420507   202A      1.426041   203A      1.432141  
     204A      1.433722   205A      1.458307   206A      1.464831  
     207A      1.478441   208A      1.488429   209A      1.490459  
     210A      1.494717   211A      1.500164   212A      1.515267  
     213A      1.528591   214A      1.541288   215A      1.546534  
     216A      1.559279   217A      1.572406   218A      1.582998  
     219A      1.588321   220A      1.597093   221A      1.616351  
     222A      1.620840   223A      1.629358   224A      1.635457  
     225A      1.637650   226A      1.648335   227A      1.658447  
     228A      1.663437   229A      1.671883   230A      1.684088  
     231A      1.695032   232A      1.700011   233A      1.712878  
     234A      1.717191   235A      1.745902   236A      1.754028  
     237A      1.762197   238A      1.777630   239A      1.788730  
     240A      1.803215   241A      1.805738   242A      1.806681  
     243A      1.822866   244A      1.839343   245A      1.859895  
     246A      1.871567   247A      1.905132   248A      1.916626  
     249A      1.928459   250A      1.932736   251A      1.950013  
     252A      1.956965   253A      1.972260   254A      1.990899  
     255A      2.013073   256A      2.015213   257A      2.059196  
     258A      2.078165   259A      2.104473   260A      2.117432  
     261A      2.132494   262A      2.153395   263A      2.165510  
     264A      2.203100   265A      2.209958   266A      2.296542  
     267A      2.297717   268A      2.368343   269A      2.422801  
     270A      2.430995   271A      2.478092   272A      2.548529  
     273A      2.606636   274A      2.644957   275A      2.677137  
     276A      2.745126   277A      2.767209   278A      2.786181  
     279A      2.804538   280A      2.816114   281A      2.827017  
     282A      2.834677   283A      2.851413   284A      2.861204  
     285A      2.869665   286A      2.880017   287A      2.889271  
     288A      2.902884   289A      2.925964   290A      2.945917  
     291A      2.961216   292A      2.994402   293A      3.003582  
     294A      3.016812   295A      3.030976   296A      3.036923  
     297A      3.079141   298A      3.090651   299A      3.107848  
     300A      3.114584   301A      3.135827   302A      3.138083  
     303A      3.160534   304A      3.167479   305A      3.192396  
     306A      3.211627   307A      3.213754   308A      3.221666  
     309A      3.231921   310A      3.241862   311A      3.244722  
     312A      3.269340   313A      3.293318   314A      3.302732  
     315A      3.314212   316A      3.333188   317A      3.350745  
     318A      3.375749   319A      3.384477   320A      3.402720  
     321A      3.405144   322A      3.418782   323A      3.427643  
     324A      3.452750   325A      3.474964   326A      3.479044  
     327A      3.487733   328A      3.498673   329A      3.503489  
     330A      3.509492   331A      3.515866   332A      3.533154  
     333A      3.545129   334A      3.549280   335A      3.566658  
     336A      3.579820   337A      3.589188   338A      3.591032  
     339A      3.596393   340A      3.600027   341A      3.619762  
     342A      3.631180   343A      3.640749   344A      3.650147  
     345A      3.651110   346A      3.675644   347A      3.682991  
     348A      3.692942   349A      3.700828   350A      3.711683  
     351A      3.743387   352A      3.752896   353A      3.764444  
     354A      3.769195   355A      3.806175   356A      3.814580  
     357A      3.821157   358A      3.826443   359A      3.839455  
     360A      3.848950   361A      3.858376   362A      3.869721  
     363A      3.883298   364A      3.896296   365A      3.901111  
     366A      3.908815   367A      3.914319   368A      3.931254  
     369A      3.935024   370A      3.962672   371A      3.967599  
     372A      3.978693   373A      3.995477   374A      4.015166  
     375A      4.016228   376A      4.024243   377A      4.035021  
     378A      4.055487   379A      4.061767   380A      4.074774  
     381A      4.092940   382A      4.124839   383A      4.138139  
     384A      4.149164   385A      4.175060   386A      4.178833  
     387A      4.199496   388A      4.215618   389A      4.230637  
     390A      4.237025   391A      4.241358   392A      4.264032  
     393A      4.277897   394A      4.279168   395A      4.294864  
     396A      4.313620   397A      4.321046   398A      4.340175  
     399A      4.356992   400A      4.364945   401A      4.382818  
     402A      4.391471   403A      4.400838   404A      4.407030  
     405A      4.420689   406A      4.433088   407A      4.445009  
     408A      4.451480   409A      4.461861   410A      4.471120  
     411A      4.474364   412A      4.495255   413A      4.495557  
     414A      4.501450   415A      4.508616   416A      4.519455  
     417A      4.529194   418A      4.537377   419A      4.556831  
     420A      4.567297   421A      4.573959   422A      4.590039  
     423A      4.592905   424A      4.605794   425A      4.617335  
     426A      4.632216   427A      4.637807   428A      4.647422  
     429A      4.652586   430A      4.662793   431A      4.688085  
     432A      4.690178   433A      4.720211   434A      4.725762  
     435A      4.727227   436A      4.741391   437A      4.749602  
     438A      4.756231   439A      4.777556   440A      4.792794  
     441A      4.806643   442A      4.813555   443A      4.822958  
     444A      4.840884   445A      4.845948   446A      4.868739  
     447A      4.872107   448A      4.882466   449A      4.885376  
     450A      4.891467   451A      4.899799   452A      4.915784  
     453A      4.939574   454A      4.947036   455A      4.967762  
     456A      4.972999   457A      4.985532   458A      4.993258  
     459A      4.998029   460A      5.008762   461A      5.021678  
     462A      5.028742   463A      5.039849   464A      5.054018  
     465A      5.079328   466A      5.089017   467A      5.109348  
     468A      5.121702   469A      5.148625   470A      5.152200  
     471A      5.163741   472A      5.186871   473A      5.192698  
     474A      5.208405   475A      5.239209   476A      5.266979  
     477A      5.279414   478A      5.281636   479A      5.295384  
     480A      5.304565   481A      5.353113   482A      5.362423  
     483A      5.367484   484A      5.372352   485A      5.398431  
     486A      5.420533   487A      5.433701   488A      5.449976  
     489A      5.467550   490A      5.481885   491A      5.526403  
     492A      5.569196   493A      5.578099   494A      5.611581  
     495A      5.622720   496A      5.648586   497A      5.667004  
     498A      5.668754   499A      5.718440   500A      5.742424  
     501A      5.759221   502A      5.771852   503A      5.791049  
     504A      5.810958   505A      5.852218   506A      5.872484  
     507A      5.877321   508A      5.886378   509A      5.925742  
     510A      5.935047   511A      5.960415   512A      5.965639  
     513A      6.023306   514A      6.048337   515A      6.086699  
     516A      6.117721   517A      6.135925   518A      6.162574  
     519A      6.252223   520A      6.269432   521A      6.344890  
     522A      6.381835   523A      6.403077   524A      6.423939  
     525A      6.446304   526A      6.456632   527A      6.489626  
     528A      6.510621   529A      6.514035   530A      6.516697  
     531A      6.532020   532A      6.579566   533A      6.629443  
     534A      6.637643   535A      6.673976   536A      6.721188  
     537A      6.882230   538A      6.904324   539A      6.975400  
     540A      7.028894   541A      7.332670   542A      7.359035  
     543A      7.549747   544A      7.568301   545A      7.702309  
     546A      7.726194   547A      7.806277   548A      7.885658  
     549A      7.902432   550A      8.033740   551A      8.149677  
     552A      8.265345   553A      8.478773   554A      8.575068  
     555A      9.452072   556A      9.518680   557A      9.665518  
     558A      9.839383   559A      9.881006   560A      9.920437  
     561A      9.947709   562A     10.104900   563A     11.029510  
     564A     11.713017   565A     11.988289   566A     12.395389  
     567A     13.750899   568A     13.856829   569A     14.539918  
     570A     14.578243   571A     15.394981   572A     43.691667  
     573A     44.961039   574A     45.978306   575A     60.899195  

    Final Occupation by Irrep:
              A 
    DOCC [    20 ]

  @DF-RHF Final Energy:  -195.21214463924665

   => Energetics <=

    Nuclear Repulsion Energy =            170.6676985721223332
    One-Electron Energy =                -599.8430396657793153
    Two-Electron Energy =                 233.9631964544103369
    Total Energy =                       -195.2121446392466453

Computation Completed


Properties will be evaluated at   0.000000,   0.000000,   0.000000 [a0]

Properties computed using the SCF density matrix

  Nuclear Dipole Moment: [e a0]
     X:  -133.9924      Y:    25.7073      Z:    -6.7919

  Electronic Dipole Moment: [e a0]
     X:   133.8836      Y:   -25.8485      Z:     6.7734

  Dipole Moment: [e a0]
     X:    -0.1089      Y:    -0.1412      Z:    -0.0185     Total:     0.1792

  Dipole Moment: [D]
     X:    -0.2767      Y:    -0.3589      Z:    -0.0470     Total:     0.4556


*** tstop() called on r282 at Fri Sep 10 14:02:06 2021
Module time:
	user time   =      62.86 seconds =       1.05 minutes
	system time =       1.00 seconds =       0.02 minutes
	total time  =         64 seconds =       1.07 minutes
Total time:
	user time   =     230.34 seconds =       3.84 minutes
	system time =       4.02 seconds =       0.07 minutes
	total time  =        234 seconds =       3.90 minutes
  Constructing Basis Sets for SAPT...

   => Loading Basis Set <=

    Name: (JUN-CC-PVTZ AUX)
    Role: RIFIT
    Keyword: DF_BASIS_SAPT
    atoms 1, 5, 7-10, 16-25 entry H          line    30 file /home/r08543048/miniconda3/share/psi4/basis/jun-cc-pvtz-ri.gbs 
    atoms 2-3, 6, 11-15     entry C          line   132 file /home/r08543048/miniconda3/share/psi4/basis/jun-cc-pvtz-ri.gbs 
    atoms 4                 entry O          line   244 file /home/r08543048/miniconda3/share/psi4/basis/jun-cc-pvtz-ri.gbs 


  //>>>>>>>>>>>>>>>>>>>>>>>>>>>>>>>>>>>//
  //               SAPT0               //
  //<<<<<<<<<<<<<<<<<<<<<<<<<<<<<<<<<<<//


*** tstart() called on r282
*** at Fri Sep 10 14:02:07 2021

        SAPT0  
    Ed Hohenstein
     6 June 2009

      Orbital Information
  --------------------------
    NSO        =       575
    NMO        =       575
    NRI        =      1353
    NOCC A     =        16
    NOCC B     =        20
    FOCC A     =         0
    FOCC B     =         0
    NVIR A     =       559
    NVIR B     =       555

    Elst10,r            =    -0.005072801701 [Eh]
    Exch10              =     0.008256779204 [Eh]
    Exch10 (S^2)        =     0.008234054852 [Eh]

    Iter     Energy [mEh]          dE [mEh]         Residual      Time [s]
       1      -0.48667021       0.486670207       3.961190656             2
       2      -0.54006847       0.053398267       1.868220011             3
       3      -0.57589579       0.035827313       0.413210436             5
       4      -0.57581631      -0.000079478       0.181710090             6
       5      -0.57411161      -0.001704702       0.055981294             8
       6      -0.57445552       0.000343918       0.023405339             9
       7      -0.57452854       0.000073015       0.007915057            11
       8      -0.57447624      -0.000052298       0.003806469            12
       9      -0.57447945       0.000003206       0.001690728            14
      10      -0.57448587       0.000006423       0.000497844            15
      11      -0.57448547      -0.000000399       0.000130178            16
      12      -0.57448501      -0.000000463       0.000036033            18
      13      -0.57448508       0.000000069       0.000010862            19
      14      -0.57448510       0.000000027       0.000003232            21
      15      -0.57448510      -0.000000005       0.000000809            22

    CHF Iterations converged


    Iter     Energy [mEh]          dE [mEh]         Residual      Time [s]
       1      -1.93230570       1.932305698       6.851322044             2
       2      -2.35897015       0.426664449       2.743089737             3
       3      -2.42178535       0.062815198       0.648342935             5
       4      -2.41426090      -0.007524450       0.260125977             6
       5      -2.40996247      -0.004298421       0.050154407             8
       6      -2.41036802       0.000405546       0.019100145             9
       7      -2.41060649       0.000238468       0.005398542            11
       8      -2.41055045      -0.000056039       0.002004896            13
       9      -2.41054348      -0.000006972       0.000599920            14
      10      -2.41054793       0.000004457       0.000181745            17
      11      -2.41054856       0.000000622       0.000043350            19
      12      -2.41054818      -0.000000374       0.000010518            20
      13      -2.41054819       0.000000008       0.000003101            22
      14      -2.41054821       0.000000018       0.000000865            24

    CHF Iterations converged

    Ind20,r (A<-B)      =    -0.000574485099 [Eh]
    Ind20,r (B<-A)      =    -0.002410548209 [Eh]
    Ind20,r             =    -0.002985033308 [Eh]
    Exch-Ind20,r (A<-B) =     0.000441680323 [Eh]
    Exch-Ind20,r (B<-A) =     0.001946919534 [Eh]
    Exch-Ind20,r        =     0.002388599857 [Eh]
    Disp20              =    -0.009365175020 [Eh]
    Disp20 (SS)         =    -0.004682587510 [Eh]
    Disp20 (OS)         =    -0.004682587510 [Eh]
    Exch-Disp20         =     0.000952776004 [Eh]
    Exch-Disp20 (SS)    =     0.000622812511 [Eh]
    Exch-Disp20 (OS)    =     0.000329963493 [Eh]

    SAPT Results 
  --------------------------------------------------------------------------------------------------------
    Electrostatics                 -5.07280170 [mEh]      -3.18323113 [kcal/mol]     -13.31863903 [kJ/mol]
      Elst10,r                     -5.07280170 [mEh]      -3.18323113 [kcal/mol]     -13.31863903 [kJ/mol]

    Exchange                        8.25677920 [mEh]       5.18120717 [kcal/mol]      21.67817081 [kJ/mol]
      Exch10                        8.25677920 [mEh]       5.18120717 [kcal/mol]      21.67817081 [kJ/mol]
      Exch10(S^2)                   8.23405485 [mEh]       5.16694743 [kcal/mol]      21.61850803 [kJ/mol]

    Induction                      -1.24117970 [mEh]      -0.77885202 [kcal/mol]      -3.25871687 [kJ/mol]
      Ind20,r                      -2.98503331 [mEh]      -1.87313668 [kcal/mol]      -7.83720387 [kJ/mol]
      Exch-Ind20,r                  2.38859986 [mEh]       1.49886904 [kcal/mol]       6.27126806 [kJ/mol]
      delta HF,r (2)               -0.64474625 [mEh]      -0.40458438 [kcal/mol]      -1.69278105 [kJ/mol]

    Dispersion                     -8.41239902 [mEh]      -5.27886008 [kcal/mol]     -22.08675057 [kJ/mol]
      Disp20                       -9.36517502 [mEh]      -5.87673605 [kcal/mol]     -24.58826363 [kJ/mol]
      Exch-Disp20                   0.95277600 [mEh]       0.59787597 [kcal/mol]       2.50151305 [kJ/mol]
      Disp20 (SS)                  -4.68258751 [mEh]      -2.93836802 [kcal/mol]     -12.29413181 [kJ/mol]
      Disp20 (OS)                  -4.68258751 [mEh]      -2.93836802 [kcal/mol]     -12.29413181 [kJ/mol]
      Exch-Disp20 (SS)              0.62281251 [mEh]       0.39082075 [kcal/mol]       1.63519402 [kJ/mol]
      Exch-Disp20 (OS)              0.32996349 [mEh]       0.20705522 [kcal/mol]       0.86631903 [kJ/mol]

  Total HF                          1.94279780 [mEh]       1.21912402 [kcal/mol]       5.10081492 [kJ/mol]
  Total SAPT0                      -6.46960122 [mEh]      -4.05973606 [kcal/mol]     -16.98593566 [kJ/mol]

  Special recipe for scaled SAPT0 (see Manual):
    Electrostatics sSAPT0          -5.07280170 [mEh]      -3.18323113 [kcal/mol]     -13.31863903 [kJ/mol]
    Exchange sSAPT0                 8.25677920 [mEh]       5.18120717 [kcal/mol]      21.67817081 [kJ/mol]
    Induction sSAPT0               -1.22134890 [mEh]      -0.76640800 [kcal/mol]      -3.20665108 [kJ/mol]
    Dispersion sSAPT0              -8.40448881 [mEh]      -5.27389635 [kcal/mol]     -22.06598233 [kJ/mol]
  Total sSAPT0                     -6.44186020 [mEh]      -4.04232831 [kcal/mol]     -16.91310163 [kJ/mol]
  --------------------------------------------------------------------------------------------------------

*** tstop() called on r282 at Fri Sep 10 14:05:32 2021
Module time:
	user time   =     174.43 seconds =       2.91 minutes
	system time =      27.23 seconds =       0.45 minutes
	total time  =        205 seconds =       3.42 minutes
Total time:
	user time   =     404.93 seconds =       6.75 minutes
	system time =      31.25 seconds =       0.52 minutes
	total time  =        440 seconds =       7.33 minutes

    Psi4 stopped on: Friday, 10 September 2021 02:05PM
    Psi4 wall time for execution: 0:07:20.77

*** Psi4 exiting successfully. Buy a developer a beer!
