
    -----------------------------------------------------------------------
          Psi4: An Open-Source Ab Initio Electronic Structure Package
                               Psi4 1.3.2 release

                         Git: Rev {HEAD} ecbda83 


    R. M. Parrish, L. A. Burns, D. G. A. Smith, A. C. Simmonett,
    A. E. DePrince III, E. G. Hohenstein, U. Bozkaya, A. Yu. Sokolov,
    R. Di Remigio, R. M. Richard, J. F. Gonthier, A. M. James,
    H. R. McAlexander, A. Kumar, M. Saitow, X. Wang, B. P. Pritchard,
    P. Verma, H. F. Schaefer III, K. Patkowski, R. A. King, E. F. Valeev,
    F. A. Evangelista, J. M. Turney, T. D. Crawford, and C. D. Sherrill,
    J. Chem. Theory Comput. 13(7) pp 3185--3197 (2017).
    (doi: 10.1021/acs.jctc.7b00174)


                         Additional Contributions by
    P. Kraus, H. Kruse, M. H. Lechner, M. C. Schieber, R. A. Shaw,
    A. Alenaizan, R. Galvelis, Z. L. Glick, S. Lehtola, and J. P. Misiewicz

    -----------------------------------------------------------------------


    Psi4 started on: Friday, 10 September 2021 02:24PM

    Process ID: 56738
    Host:       r282
    PSIDATADIR: /home/r08543048/miniconda3/share/psi4
    Memory:     500.0 MiB
    Threads:    1
    
  ==> Input File <==

--------------------------------------------------------------------------
# Any line starting with the # character is a comment line
#! Sample  computation

memory 22 gb

molecule Dimer {
0 1
 H   -3.072131    0.601238   -0.413218
 C   -2.414737   -0.808951    1.155426
 C   -2.524839   -0.346536   -0.263970
 O   -2.061558   -0.940495   -1.218933
 H   -1.859957   -1.741227    1.213745
 H   -1.918974   -0.033191    1.741315
 H   -3.415650   -0.938933    1.570606
  
  
  
  
  
  
  
  

    
    
 --
0 1
 C   -0.322486    2.125840   -0.421051
 C    0.413492    1.413377    0.438886
 C    0.989786    0.065858    0.147371
 C    2.518920    0.095706    0.095501
 C    3.106096   -1.287418   -0.154545
 H   -0.568300    1.731892   -1.399620
 H   -0.685901    3.112598   -0.168047
 H    0.646906    1.843850    1.409600
 H    0.684776   -0.643540    0.924226
 H    0.593675   -0.308838   -0.799344
 H    2.830150    0.785134   -0.692247
 H    2.904344    0.500125    1.035055
 H    2.821664   -1.977872    0.640436
 H    2.740189   -1.697010   -1.096535
 H    4.194281   -1.257509   -0.200215




units angstrom

no_reorient
symmetry c1
}

set globals{
  basis jun-cc-pvtz
}

energy('sapt0')


--------------------------------------------------------------------------

  Memory set to  20.489 GiB by Python driver.

  //>>>>>>>>>>>>>>>>>>>>>>>>>>>>>>>>>>>//
  //              Dimer HF             //
  //<<<<<<<<<<<<<<<<<<<<<<<<<<<<<<<<<<<//


*** tstart() called on r282
*** at Fri Sep 10 14:24:44 2021

   => Loading Basis Set <=

    Name: JUN-CC-PVTZ
    Role: ORBITAL
    Keyword: BASIS
    atoms 1, 5-7, 13-22 entry H          line    36 file /home/r08543048/miniconda3/share/psi4/basis/jun-cc-pvtz.gbs 
    atoms 2-3, 8-12     entry C          line   217 file /home/r08543048/miniconda3/share/psi4/basis/jun-cc-pvtz.gbs 
    atoms 4             entry O          line   305 file /home/r08543048/miniconda3/share/psi4/basis/jun-cc-pvtz.gbs 


         ---------------------------------------------------------
                                   SCF
               by Justin Turney, Rob Parrish, Andy Simmonett
                          and Daniel G. A. Smith
                              RHF Reference
                        1 Threads,  20980 MiB Core
         ---------------------------------------------------------

  ==> Geometry <==

    Molecular point group: c1
    Full point group: C1

    Geometry (in Angstrom), charge = 0, multiplicity = 1:

       Center              X                  Y                   Z               Mass       
    ------------   -----------------  -----------------  -----------------  -----------------
         H           -3.020963334815     0.600993403221    -0.380527876176     1.007825032230
         C           -2.363569334815    -0.809195596779     1.188116123824    12.000000000000
         C           -2.473671334815    -0.346780596779    -0.231279876176    12.000000000000
         O           -2.010390334815    -0.940739596779    -1.186242876176    15.994914619570
         H           -1.808789334815    -1.741471596779     1.246435123824     1.007825032230
         H           -1.867806334815    -0.033435596779     1.774005123824     1.007825032230
         H           -3.364482334815    -0.939177596779     1.603296123824     1.007825032230
         C           -0.271318334815     2.125595403221    -0.388360876176    12.000000000000
         C            0.464659665185     1.413132403221     0.471576123824    12.000000000000
         C            1.040953665185     0.065613403221     0.180061123824    12.000000000000
         C            2.570087665185     0.095461403221     0.128191123824    12.000000000000
         C            3.157263665185    -1.287662596779    -0.121854876176    12.000000000000
         H           -0.517132334815     1.731647403221    -1.366929876176     1.007825032230
         H           -0.634733334815     3.112353403221    -0.135356876176     1.007825032230
         H            0.698073665185     1.843605403221     1.442290123824     1.007825032230
         H            0.735943665185    -0.643784596779     0.956916123824     1.007825032230
         H            0.644842665185    -0.309082596779    -0.766653876176     1.007825032230
         H            2.881317665185     0.784889403221    -0.659556876176     1.007825032230
         H            2.955511665185     0.499880403221     1.067745123824     1.007825032230
         H            2.872831665185    -1.978116596779     0.673126123824     1.007825032230
         H            2.791356665185    -1.697254596779    -1.063844876176     1.007825032230
         H            4.245448665185    -1.257753596779    -0.167524876176     1.007825032230

  Running in c1 symmetry.

  Rotational constants: A =      0.07909  B =      0.02993  C =      0.02578 [cm^-1]
  Rotational constants: A =   2371.05659  B =    897.34730  C =    772.89941 [MHz]
  Nuclear repulsion =  360.374657161189532

  Charge       = 0
  Multiplicity = 1
  Electrons    = 64
  Nalpha       = 32
  Nbeta        = 32

  ==> Algorithm <==

  SCF Algorithm Type is DF.
  DIIS enabled.
  MOM disabled.
  Fractional occupation disabled.
  Guess Type is SAD.
  Energy threshold   = 1.00e-08
  Density threshold  = 1.00e-08
  Integral threshold = 0.00e+00

  ==> Primary Basis <==

  Basis Set: JUN-CC-PVTZ
    Blend: JUN-CC-PVTZ
    Number of shells: 188
    Number of basis function: 508
    Number of Cartesian functions: 570
    Spherical Harmonics?: true
    Max angular momentum: 3

   => Loading Basis Set <=

    Name: (JUN-CC-PVTZ AUX)
    Role: JKFIT
    Keyword: DF_BASIS_SCF
    atoms 1, 5-7, 13-22 entry H          line    70 file /home/r08543048/miniconda3/share/psi4/basis/jun-cc-pvtz-jkfit.gbs 
    atoms 2-3, 8-12     entry C          line   152 file /home/r08543048/miniconda3/share/psi4/basis/jun-cc-pvtz-jkfit.gbs 
    atoms 4             entry O          line   272 file /home/r08543048/miniconda3/share/psi4/basis/jun-cc-pvtz-jkfit.gbs 

  ==> Pre-Iterations <==

   -------------------------------------------------------
    Irrep   Nso     Nmo     Nalpha   Nbeta   Ndocc  Nsocc
   -------------------------------------------------------
     A        508     508       0       0       0       0
   -------------------------------------------------------
    Total     508     508      32      32      32       0
   -------------------------------------------------------

  ==> Integral Setup <==

  ==> DiskDFJK: Density-Fitted J/K Matrices <==

    J tasked:                  Yes
    K tasked:                  Yes
    wK tasked:                  No
    OpenMP threads:              1
    Integrals threads:           1
    Memory [MiB]:            15735
    Algorithm:                Core
    Integral Cache:           SAVE
    Schwarz Cutoff:          1E-12
    Fitting Condition:       1E-10

   => Auxiliary Basis Set <=

  Basis Set: (JUN-CC-PVTZ AUX)
    Blend: JUN-CC-PVTZ-JKFIT
    Number of shells: 372
    Number of basis function: 1180
    Number of Cartesian functions: 1418
    Spherical Harmonics?: true
    Max angular momentum: 4

  Minimum eigenvalue in the overlap matrix is 2.5875194296E-05.
  Using Symmetric Orthogonalization.

  SCF Guess: Superposition of Atomic Densities via on-the-fly atomic UHF.

  ==> Iterations <==

                           Total Energy        Delta E     RMS |[F,P]|

   @DF-RHF iter SAD:  -346.70479427980155   -3.46705e+02   0.00000e+00 
   @DF-RHF iter   1:  -347.85663030048084   -1.15184e+00   1.48626e-03 DIIS
   @DF-RHF iter   2:  -348.11226293863120   -2.55633e-01   8.08931e-04 DIIS
   @DF-RHF iter   3:  -348.18048696523283   -6.82240e-02   1.83057e-04 DIIS
   @DF-RHF iter   4:  -348.18547047785870   -4.98351e-03   7.92003e-05 DIIS
   @DF-RHF iter   5:  -348.18642663129071   -9.56153e-04   1.14633e-05 DIIS
   @DF-RHF iter   6:  -348.18646657728027   -3.99460e-05   5.26064e-06 DIIS
   @DF-RHF iter   7:  -348.18647258974721   -6.01247e-06   2.06775e-06 DIIS
   @DF-RHF iter   8:  -348.18647397771952   -1.38797e-06   8.54525e-07 DIIS
   @DF-RHF iter   9:  -348.18647424324786   -2.65528e-07   2.51149e-07 DIIS
   @DF-RHF iter  10:  -348.18647426665586   -2.34080e-08   7.59997e-08 DIIS
   @DF-RHF iter  11:  -348.18647426864942   -1.99356e-09   2.31439e-08 DIIS
   @DF-RHF iter  12:  -348.18647426889049   -2.41073e-10   1.00581e-08 DIIS
   @DF-RHF iter  13:  -348.18647426895956   -6.90648e-11   5.19254e-09 DIIS
  Energy and wave function converged.


  ==> Post-Iterations <==

    Orbital Energies [Eh]
    ---------------------

    Doubly Occupied:                                                      

       1A    -20.553733     2A    -11.332869     3A    -11.236840  
       4A    -11.233738     5A    -11.219725     6A    -11.218962  
       7A    -11.217844     8A    -11.208759     9A     -1.385145  
      10A     -1.089826    11A     -1.023050    12A     -1.019094  
      13A     -0.922014    14A     -0.811296    15A     -0.798312  
      16A     -0.757922    17A     -0.670077    18A     -0.652335  
      19A     -0.619536    20A     -0.616466    21A     -0.603133  
      22A     -0.589194    23A     -0.564926    24A     -0.558167  
      25A     -0.536331    26A     -0.512548    27A     -0.498408  
      28A     -0.481116    29A     -0.470763    30A     -0.468159  
      31A     -0.423026    32A     -0.359735  

    Virtual:                                                              

      33A      0.045536    34A      0.050699    35A      0.052967  
      36A      0.058205    37A      0.070357    38A      0.073001  
      39A      0.079386    40A      0.084755    41A      0.087243  
      42A      0.102102    43A      0.107451    44A      0.110650  
      45A      0.117683    46A      0.117759    47A      0.123681  
      48A      0.133847    49A      0.137795    50A      0.144506  
      51A      0.152186    52A      0.156222    53A      0.163402  
      54A      0.169402    55A      0.183007    56A      0.183476  
      57A      0.191372    58A      0.199517    59A      0.204596  
      60A      0.208088    61A      0.219974    62A      0.223123  
      63A      0.238092    64A      0.244819    65A      0.263483  
      66A      0.271293    67A      0.273326    68A      0.281243  
      69A      0.284652    70A      0.286383    71A      0.297774  
      72A      0.302645    73A      0.315088    74A      0.318639  
      75A      0.322819    76A      0.327743    77A      0.331307  
      78A      0.338838    79A      0.343607    80A      0.344966  
      81A      0.346706    82A      0.357733    83A      0.360439  
      84A      0.363362    85A      0.375839    86A      0.376382  
      87A      0.386051    88A      0.393628    89A      0.395393  
      90A      0.400143    91A      0.406243    92A      0.416480  
      93A      0.428847    94A      0.430252    95A      0.441478  
      96A      0.445272    97A      0.447963    98A      0.458277  
      99A      0.467097   100A      0.479046   101A      0.485731  
     102A      0.487673   103A      0.500959   104A      0.510824  
     105A      0.514297   106A      0.530154   107A      0.536800  
     108A      0.539161   109A      0.545071   110A      0.547428  
     111A      0.561355   112A      0.566588   113A      0.576272  
     114A      0.586937   115A      0.591287   116A      0.604375  
     117A      0.612476   118A      0.619487   119A      0.624732  
     120A      0.650647   121A      0.653343   122A      0.663703  
     123A      0.673523   124A      0.685333   125A      0.701066  
     126A      0.714827   127A      0.721748   128A      0.730851  
     129A      0.735640   130A      0.745698   131A      0.757701  
     132A      0.760527   133A      0.776263   134A      0.782673  
     135A      0.787356   136A      0.795187   137A      0.811407  
     138A      0.813140   139A      0.818187   140A      0.822474  
     141A      0.830124   142A      0.839477   143A      0.843637  
     144A      0.848372   145A      0.862077   146A      0.869678  
     147A      0.880018   148A      0.885680   149A      0.896854  
     150A      0.911029   151A      0.917168   152A      0.933503  
     153A      0.946005   154A      0.950437   155A      0.952894  
     156A      0.964165   157A      0.981848   158A      0.982679  
     159A      0.998961   160A      1.003977   161A      1.021664  
     162A      1.031187   163A      1.043747   164A      1.052024  
     165A      1.074012   166A      1.079065   167A      1.088384  
     168A      1.094249   169A      1.108135   170A      1.131805  
     171A      1.138087   172A      1.152408   173A      1.160408  
     174A      1.175157   175A      1.182027   176A      1.195750  
     177A      1.201618   178A      1.225271   179A      1.239612  
     180A      1.256517   181A      1.270878   182A      1.282661  
     183A      1.292105   184A      1.299476   185A      1.318612  
     186A      1.328015   187A      1.337487   188A      1.348196  
     189A      1.355656   190A      1.357908   191A      1.376469  
     192A      1.383235   193A      1.390323   194A      1.399222  
     195A      1.411715   196A      1.422075   197A      1.430188  
     198A      1.440882   199A      1.449683   200A      1.463309  
     201A      1.469773   202A      1.475878   203A      1.488927  
     204A      1.503892   205A      1.512896   206A      1.522956  
     207A      1.536539   208A      1.541443   209A      1.563448  
     210A      1.573521   211A      1.579841   212A      1.585330  
     213A      1.590297   214A      1.609866   215A      1.622430  
     216A      1.626319   217A      1.636963   218A      1.643770  
     219A      1.654119   220A      1.660091   221A      1.685368  
     222A      1.693814   223A      1.700484   224A      1.713395  
     225A      1.724874   226A      1.754963   227A      1.760168  
     228A      1.775109   229A      1.785547   230A      1.791891  
     231A      1.805609   232A      1.824663   233A      1.847705  
     234A      1.853911   235A      1.873096   236A      1.883271  
     237A      1.891086   238A      1.910039   239A      1.931125  
     240A      1.959949   241A      1.974920   242A      1.986555  
     243A      1.996508   244A      2.037638   245A      2.067888  
     246A      2.119548   247A      2.147641   248A      2.258866  
     249A      2.327034   250A      2.394774   251A      2.404725  
     252A      2.432360   253A      2.547765   254A      2.673325  
     255A      2.710880   256A      2.736872   257A      2.762980  
     258A      2.765363   259A      2.777570   260A      2.807959  
     261A      2.815657   262A      2.828593   263A      2.839285  
     264A      2.842226   265A      2.856112   266A      2.873827  
     267A      2.887399   268A      2.901303   269A      2.915660  
     270A      2.933918   271A      2.942597   272A      2.968507  
     273A      2.986616   274A      2.987959   275A      3.015575  
     276A      3.024753   277A      3.042752   278A      3.055072  
     279A      3.067891   280A      3.078102   281A      3.093612  
     282A      3.099242   283A      3.119477   284A      3.128317  
     285A      3.136713   286A      3.143984   287A      3.162537  
     288A      3.167626   289A      3.178432   290A      3.186927  
     291A      3.203209   292A      3.212327   293A      3.218991  
     294A      3.231401   295A      3.233691   296A      3.248946  
     297A      3.274965   298A      3.283288   299A      3.292279  
     300A      3.304122   301A      3.314196   302A      3.329632  
     303A      3.335226   304A      3.355879   305A      3.362675  
     306A      3.374853   307A      3.385661   308A      3.386956  
     309A      3.392333   310A      3.411191   311A      3.416078  
     312A      3.428492   313A      3.445526   314A      3.451448  
     315A      3.468927   316A      3.473621   317A      3.481378  
     318A      3.488263   319A      3.500189   320A      3.508511  
     321A      3.514854   322A      3.529815   323A      3.537750  
     324A      3.542083   325A      3.554780   326A      3.564274  
     327A      3.577765   328A      3.590957   329A      3.597878  
     330A      3.604509   331A      3.616286   332A      3.627145  
     333A      3.634905   334A      3.642133   335A      3.669865  
     336A      3.671376   337A      3.685648   338A      3.690413  
     339A      3.705051   340A      3.723141   341A      3.753378  
     342A      3.766259   343A      3.778358   344A      3.787936  
     345A      3.805645   346A      3.814992   347A      3.819229  
     348A      3.825424   349A      3.831156   350A      3.841577  
     351A      3.872223   352A      3.877584   353A      3.886031  
     354A      3.903221   355A      3.908578   356A      3.934268  
     357A      3.949197   358A      3.969121   359A      3.972369  
     360A      3.977496   361A      4.006351   362A      4.010275  
     363A      4.043089   364A      4.055661   365A      4.061866  
     366A      4.088441   367A      4.115706   368A      4.122104  
     369A      4.169785   370A      4.173580   371A      4.183429  
     372A      4.190228   373A      4.206680   374A      4.218270  
     375A      4.232619   376A      4.241453   377A      4.264378  
     378A      4.269211   379A      4.276146   380A      4.306341  
     381A      4.307066   382A      4.329204   383A      4.341753  
     384A      4.352495   385A      4.360737   386A      4.373318  
     387A      4.378986   388A      4.392106   389A      4.398068  
     390A      4.406145   391A      4.421448   392A      4.437408  
     393A      4.447924   394A      4.457286   395A      4.461962  
     396A      4.476189   397A      4.486710   398A      4.500801  
     399A      4.504970   400A      4.516523   401A      4.531012  
     402A      4.540407   403A      4.550880   404A      4.576112  
     405A      4.581288   406A      4.596676   407A      4.615916  
     408A      4.629051   409A      4.648309   410A      4.655282  
     411A      4.679055   412A      4.712708   413A      4.717964  
     414A      4.734054   415A      4.743916   416A      4.763200  
     417A      4.787068   418A      4.799900   419A      4.818791  
     420A      4.834608   421A      4.851399   422A      4.888063  
     423A      4.899273   424A      4.921471   425A      4.952398  
     426A      4.955600   427A      4.985509   428A      5.017873  
     429A      5.035066   430A      5.041685   431A      5.068155  
     432A      5.084887   433A      5.124027   434A      5.149218  
     435A      5.172543   436A      5.179951   437A      5.189190  
     438A      5.195585   439A      5.223927   440A      5.258625  
     441A      5.262480   442A      5.282744   443A      5.292442  
     444A      5.297847   445A      5.353540   446A      5.362298  
     447A      5.370745   448A      5.393305   449A      5.420020  
     450A      5.429603   451A      5.446562   452A      5.469011  
     453A      5.479189   454A      5.482144   455A      5.523159  
     456A      5.553221   457A      5.568701   458A      5.595364  
     459A      5.612899   460A      5.641250   461A      5.649176  
     462A      5.664087   463A      5.685043   464A      5.712424  
     465A      5.714251   466A      5.726599   467A      5.760559  
     468A      5.771119   469A      5.794796   470A      5.822335  
     471A      5.850080   472A      5.871983   473A      5.881395  
     474A      5.923916   475A      5.934326   476A      5.953718  
     477A      5.965859   478A      6.023419   479A      6.099130  
     480A      6.128129   481A      6.132941   482A      6.265440  
     483A      6.319954   484A      6.418686   485A      6.444640  
     486A      6.453862   487A      6.486250   488A      6.511136  
     489A      6.522414   490A      6.580850   491A      6.630676  
     492A      6.718060   493A      6.796737   494A      6.948887  
     495A      7.235299   496A      7.272242   497A      7.306115  
     498A      7.456007   499A      7.616632   500A      7.710123  
     501A     12.382096   502A     12.485493   503A     13.830674  
     504A     14.155144   505A     14.498012   506A     14.526496  
     507A     14.779627   508A     15.410678  

    Final Occupation by Irrep:
              A 
    DOCC [    32 ]

  @DF-RHF Final Energy:  -348.18647426895956

   => Energetics <=

    Nuclear Repulsion Energy =            360.3746571611895320
    One-Electron Energy =               -1185.8161672187832210
    Two-Electron Energy =                 477.2550357886340748
    Total Energy =                       -348.1864742689595573

Computation Completed


Properties will be evaluated at   0.000000,   0.000000,   0.000000 [a0]

Properties computed using the SCF density matrix

  Nuclear Dipole Moment: [e a0]
     X:     6.1883      Y:    -0.0296      Z:     3.9536

  Electronic Dipole Moment: [e a0]
     X:    -6.4417      Y:     0.4215      Z:    -2.8868

  Dipole Moment: [e a0]
     X:    -0.2533      Y:     0.3919      Z:     1.0668     Total:     1.1644

  Dipole Moment: [D]
     X:    -0.6439      Y:     0.9961      Z:     2.7115     Total:     2.9596


*** tstop() called on r282 at Fri Sep 10 14:25:51 2021
Module time:
	user time   =      66.08 seconds =       1.10 minutes
	system time =       1.49 seconds =       0.02 minutes
	total time  =         67 seconds =       1.12 minutes
Total time:
	user time   =      66.08 seconds =       1.10 minutes
	system time =       1.49 seconds =       0.02 minutes
	total time  =         67 seconds =       1.12 minutes

  //>>>>>>>>>>>>>>>>>>>>>>>>>>>>>>>>>>>//
  //            Monomer A HF           //
  //<<<<<<<<<<<<<<<<<<<<<<<<<<<<<<<<<<<//


*** tstart() called on r282
*** at Fri Sep 10 14:25:51 2021

   => Loading Basis Set <=

    Name: JUN-CC-PVTZ
    Role: ORBITAL
    Keyword: BASIS
    atoms 1, 5-7, 13-22 entry H          line    36 file /home/r08543048/miniconda3/share/psi4/basis/jun-cc-pvtz.gbs 
    atoms 2-3, 8-12     entry C          line   217 file /home/r08543048/miniconda3/share/psi4/basis/jun-cc-pvtz.gbs 
    atoms 4             entry O          line   305 file /home/r08543048/miniconda3/share/psi4/basis/jun-cc-pvtz.gbs 


         ---------------------------------------------------------
                                   SCF
               by Justin Turney, Rob Parrish, Andy Simmonett
                          and Daniel G. A. Smith
                              RHF Reference
                        1 Threads,  20980 MiB Core
         ---------------------------------------------------------

  ==> Geometry <==

    Molecular point group: c1
    Full point group: C1

    Geometry (in Angstrom), charge = 0, multiplicity = 1:

       Center              X                  Y                   Z               Mass       
    ------------   -----------------  -----------------  -----------------  -----------------
         H           -3.020963334815     0.600993403221    -0.380527876176     1.007825032230
         C           -2.363569334815    -0.809195596779     1.188116123824    12.000000000000
         C           -2.473671334815    -0.346780596779    -0.231279876176    12.000000000000
         O           -2.010390334815    -0.940739596779    -1.186242876176    15.994914619570
         H           -1.808789334815    -1.741471596779     1.246435123824     1.007825032230
         H           -1.867806334815    -0.033435596779     1.774005123824     1.007825032230
         H           -3.364482334815    -0.939177596779     1.603296123824     1.007825032230
      Gh(C)          -0.271318334815     2.125595403221    -0.388360876176    12.000000000000
      Gh(C)           0.464659665185     1.413132403221     0.471576123824    12.000000000000
      Gh(C)           1.040953665185     0.065613403221     0.180061123824    12.000000000000
      Gh(C)           2.570087665185     0.095461403221     0.128191123824    12.000000000000
      Gh(C)           3.157263665185    -1.287662596779    -0.121854876176    12.000000000000
      Gh(H)          -0.517132334815     1.731647403221    -1.366929876176     1.007825032230
      Gh(H)          -0.634733334815     3.112353403221    -0.135356876176     1.007825032230
      Gh(H)           0.698073665185     1.843605403221     1.442290123824     1.007825032230
      Gh(H)           0.735943665185    -0.643784596779     0.956916123824     1.007825032230
      Gh(H)           0.644842665185    -0.309082596779    -0.766653876176     1.007825032230
      Gh(H)           2.881317665185     0.784889403221    -0.659556876176     1.007825032230
      Gh(H)           2.955511665185     0.499880403221     1.067745123824     1.007825032230
      Gh(H)           2.872831665185    -1.978116596779     0.673126123824     1.007825032230
      Gh(H)           2.791356665185    -1.697254596779    -1.063844876176     1.007825032230
      Gh(H)           4.245448665185    -1.257753596779    -0.167524876176     1.007825032230

  Running in c1 symmetry.

  Rotational constants: A =      0.07909  B =      0.02993  C =      0.02578 [cm^-1]
  Rotational constants: A =   2371.05659  B =    897.34730  C =    772.89941 [MHz]
  Nuclear repulsion =   69.673353433380086

  Charge       = 0
  Multiplicity = 1
  Electrons    = 24
  Nalpha       = 12
  Nbeta        = 12

  ==> Algorithm <==

  SCF Algorithm Type is DF.
  DIIS enabled.
  MOM disabled.
  Fractional occupation disabled.
  Guess Type is SAD.
  Energy threshold   = 1.00e-08
  Density threshold  = 1.00e-08
  Integral threshold = 0.00e+00

  ==> Primary Basis <==

  Basis Set: JUN-CC-PVTZ
    Blend: JUN-CC-PVTZ
    Number of shells: 188
    Number of basis function: 508
    Number of Cartesian functions: 570
    Spherical Harmonics?: true
    Max angular momentum: 3

   => Loading Basis Set <=

    Name: (JUN-CC-PVTZ AUX)
    Role: JKFIT
    Keyword: DF_BASIS_SCF
    atoms 1, 5-7, 13-22 entry H          line    70 file /home/r08543048/miniconda3/share/psi4/basis/jun-cc-pvtz-jkfit.gbs 
    atoms 2-3, 8-12     entry C          line   152 file /home/r08543048/miniconda3/share/psi4/basis/jun-cc-pvtz-jkfit.gbs 
    atoms 4             entry O          line   272 file /home/r08543048/miniconda3/share/psi4/basis/jun-cc-pvtz-jkfit.gbs 

  ==> Pre-Iterations <==

   -------------------------------------------------------
    Irrep   Nso     Nmo     Nalpha   Nbeta   Ndocc  Nsocc
   -------------------------------------------------------
     A        508     508       0       0       0       0
   -------------------------------------------------------
    Total     508     508      12      12      12       0
   -------------------------------------------------------

  ==> Integral Setup <==

  ==> DiskDFJK: Density-Fitted J/K Matrices <==

    J tasked:                  Yes
    K tasked:                  Yes
    wK tasked:                  No
    OpenMP threads:              1
    Integrals threads:           1
    Memory [MiB]:            15735
    Algorithm:                Core
    Integral Cache:           LOAD
    Schwarz Cutoff:          1E-12
    Fitting Condition:       1E-10

   => Auxiliary Basis Set <=

  Basis Set: (JUN-CC-PVTZ AUX)
    Blend: JUN-CC-PVTZ-JKFIT
    Number of shells: 372
    Number of basis function: 1180
    Number of Cartesian functions: 1418
    Spherical Harmonics?: true
    Max angular momentum: 4

  Minimum eigenvalue in the overlap matrix is 2.5875194296E-05.
  Using Symmetric Orthogonalization.

  SCF Guess: Superposition of Atomic Densities via on-the-fly atomic UHF.

  ==> Iterations <==

                           Total Energy        Delta E     RMS |[F,P]|

   @DF-RHF iter SAD:  -152.12062062069663   -1.52121e+02   0.00000e+00 
   @DF-RHF iter   1:  -152.85583782049292   -7.35217e-01   9.62044e-04 DIIS
   @DF-RHF iter   2:  -152.93613581451589   -8.02980e-02   6.56692e-04 DIIS
   @DF-RHF iter   3:  -152.97324433424362   -3.71085e-02   1.10644e-04 DIIS
   @DF-RHF iter   4:  -152.97535834903726   -2.11401e-03   4.27255e-05 DIIS
   @DF-RHF iter   5:  -152.97575283036548   -3.94481e-04   8.51046e-06 DIIS
   @DF-RHF iter   6:  -152.97578180548982   -2.89751e-05   3.39244e-06 DIIS
   @DF-RHF iter   7:  -152.97578569436496   -3.88888e-06   1.31362e-06 DIIS
   @DF-RHF iter   8:  -152.97578631420470   -6.19840e-07   3.04691e-07 DIIS
   @DF-RHF iter   9:  -152.97578634964279   -3.54381e-08   8.18960e-08 DIIS
   @DF-RHF iter  10:  -152.97578635183089   -2.18810e-09   1.73886e-08 DIIS
   @DF-RHF iter  11:  -152.97578635192221   -9.13190e-11   3.19751e-09 DIIS
  Energy and wave function converged.


  ==> Post-Iterations <==

    Orbital Energies [Eh]
    ---------------------

    Doubly Occupied:                                                      

       1A    -20.560267     2A    -11.337543     3A    -11.242753  
       4A     -1.389843     5A     -1.025354     6A     -0.803893  
       7A     -0.674912     8A     -0.623938     9A     -0.607244  
      10A     -0.563189    11A     -0.502722    12A     -0.428231  

    Virtual:                                                              

      13A      0.028595    14A      0.040378    15A      0.046436  
      16A      0.054262    17A      0.066360    18A      0.067256  
      19A      0.072464    20A      0.078873    21A      0.086197  
      22A      0.096596    23A      0.101903    24A      0.104648  
      25A      0.110245    26A      0.115699    27A      0.116377  
      28A      0.123563    29A      0.132386    30A      0.138609  
      31A      0.143995    32A      0.147369    33A      0.156064  
      34A      0.160134    35A      0.162983    36A      0.168638  
      37A      0.174007    38A      0.180691    39A      0.189391  
      40A      0.194318    41A      0.197208    42A      0.227357  
      43A      0.238292    44A      0.243057    45A      0.253568  
      46A      0.262857    47A      0.267838    48A      0.276796  
      49A      0.281267    50A      0.286713    51A      0.294583  
      52A      0.301374    53A      0.312460    54A      0.315844  
      55A      0.319559    56A      0.320381    57A      0.326752  
      58A      0.334814    59A      0.335346    60A      0.346129  
      61A      0.355915    62A      0.361161    63A      0.367261  
      64A      0.375986    65A      0.377809    66A      0.384602  
      67A      0.388017    68A      0.395142    69A      0.404916  
      70A      0.413850    71A      0.415283    72A      0.424998  
      73A      0.434864    74A      0.439412    75A      0.443250  
      76A      0.445465    77A      0.449687    78A      0.464355  
      79A      0.479410    80A      0.485039    81A      0.488848  
      82A      0.493294    83A      0.503568    84A      0.520146  
      85A      0.523016    86A      0.535607    87A      0.540080  
      88A      0.548555    89A      0.550275    90A      0.564127  
      91A      0.576158    92A      0.583484    93A      0.584609  
      94A      0.592138    95A      0.600120    96A      0.610439  
      97A      0.623817    98A      0.633287    99A      0.636067  
     100A      0.641262   101A      0.646179   102A      0.661167  
     103A      0.664587   104A      0.672191   105A      0.678294  
     106A      0.678939   107A      0.686533   108A      0.704367  
     109A      0.721473   110A      0.725204   111A      0.735955  
     112A      0.747036   113A      0.756836   114A      0.769092  
     115A      0.773807   116A      0.784097   117A      0.796525  
     118A      0.808605   119A      0.821493   120A      0.827080  
     121A      0.847329   122A      0.852289   123A      0.863407  
     124A      0.868374   125A      0.903205   126A      0.910179  
     127A      0.934056   128A      0.940020   129A      0.959158  
     130A      0.975229   131A      1.000708   132A      1.019702  
     133A      1.041671   134A      1.064195   135A      1.088430  
     136A      1.093383   137A      1.102365   138A      1.110690  
     139A      1.124353   140A      1.133704   141A      1.144251  
     142A      1.154609   143A      1.158844   144A      1.176123  
     145A      1.182504   146A      1.193791   147A      1.206611  
     148A      1.217101   149A      1.230359   150A      1.238113  
     151A      1.245060   152A      1.257006   153A      1.258389  
     154A      1.265640   155A      1.268461   156A      1.289922  
     157A      1.299336   158A      1.307377   159A      1.312968  
     160A      1.329118   161A      1.331313   162A      1.340364  
     163A      1.352020   164A      1.357161   165A      1.361808  
     166A      1.365172   167A      1.374224   168A      1.389443  
     169A      1.396564   170A      1.417464   171A      1.418643  
     172A      1.425672   173A      1.432801   174A      1.447627  
     175A      1.453520   176A      1.463772   177A      1.466894  
     178A      1.482323   179A      1.490925   180A      1.498287  
     181A      1.504842   182A      1.531274   183A      1.533413  
     184A      1.539636   185A      1.547789   186A      1.558791  
     187A      1.562009   188A      1.564819   189A      1.585577  
     190A      1.589884   191A      1.596065   192A      1.605588  
     193A      1.606776   194A      1.616228   195A      1.627835  
     196A      1.645060   197A      1.649482   198A      1.656723  
     199A      1.677172   200A      1.682753   201A      1.693565  
     202A      1.715005   203A      1.725987   204A      1.740736  
     205A      1.759849   206A      1.779503   207A      1.792317  
     208A      1.796042   209A      1.814641   210A      1.825875  
     211A      1.848808   212A      1.880203   213A      1.888130  
     214A      1.896125   215A      1.921156   216A      1.933615  
     217A      1.963049   218A      1.973945   219A      1.994079  
     220A      2.018573   221A      2.058303   222A      2.086247  
     223A      2.120054   224A      2.131301   225A      2.159134  
     226A      2.186308   227A      2.225609   228A      2.240377  
     229A      2.285347   230A      2.316036   231A      2.336505  
     232A      2.357332   233A      2.384601   234A      2.387479  
     235A      2.409970   236A      2.414627   237A      2.436914  
     238A      2.456111   239A      2.475376   240A      2.489314  
     241A      2.534647   242A      2.544508   243A      2.562838  
     244A      2.597152   245A      2.648459   246A      2.672436  
     247A      2.711778   248A      2.736519   249A      2.770393  
     250A      2.801198   251A      2.836284   252A      2.918280  
     253A      2.947991   254A      2.955574   255A      2.981998  
     256A      3.042600   257A      3.050382   258A      3.083381  
     259A      3.128307   260A      3.184495   261A      3.207500  
     262A      3.244582   263A      3.276264   264A      3.339237  
     265A      3.353938   266A      3.373264   267A      3.409574  
     268A      3.434520   269A      3.446966   270A      3.488562  
     271A      3.501616   272A      3.517867   273A      3.534510  
     274A      3.546272   275A      3.553421   276A      3.560572  
     277A      3.563985   278A      3.594008   279A      3.594473  
     280A      3.611462   281A      3.618826   282A      3.634753  
     283A      3.638844   284A      3.650996   285A      3.669225  
     286A      3.678548   287A      3.691923   288A      3.699132  
     289A      3.729607   290A      3.746827   291A      3.754798  
     292A      3.767988   293A      3.771979   294A      3.780387  
     295A      3.797046   296A      3.811001   297A      3.815118  
     298A      3.826368   299A      3.843607   300A      3.853242  
     301A      3.855992   302A      3.867260   303A      3.877834  
     304A      3.885137   305A      3.894789   306A      3.904097  
     307A      3.923249   308A      3.938620   309A      3.956843  
     310A      3.965825   311A      3.996902   312A      4.016941  
     313A      4.020237   314A      4.037666   315A      4.058540  
     316A      4.089864   317A      4.092532   318A      4.104578  
     319A      4.126031   320A      4.154325   321A      4.171240  
     322A      4.175741   323A      4.188523   324A      4.193301  
     325A      4.210379   326A      4.221955   327A      4.224161  
     328A      4.237222   329A      4.248910   330A      4.267495  
     331A      4.295910   332A      4.298834   333A      4.309377  
     334A      4.323078   335A      4.349035   336A      4.358747  
     337A      4.379034   338A      4.385099   339A      4.401647  
     340A      4.425651   341A      4.436526   342A      4.441636  
     343A      4.463004   344A      4.474188   345A      4.488566  
     346A      4.506594   347A      4.514926   348A      4.520608  
     349A      4.525062   350A      4.532679   351A      4.547164  
     352A      4.562136   353A      4.579696   354A      4.591154  
     355A      4.603973   356A      4.613066   357A      4.620389  
     358A      4.628343   359A      4.652578   360A      4.663770  
     361A      4.669330   362A      4.687304   363A      4.701069  
     364A      4.710679   365A      4.724977   366A      4.731930  
     367A      4.743383   368A      4.748398   369A      4.765586  
     370A      4.772737   371A      4.780708   372A      4.787037  
     373A      4.801863   374A      4.810237   375A      4.829761  
     376A      4.833796   377A      4.843194   378A      4.851150  
     379A      4.867346   380A      4.876283   381A      4.885992  
     382A      4.898473   383A      4.903947   384A      4.919752  
     385A      4.927223   386A      4.935182   387A      4.942121  
     388A      4.970550   389A      4.980018   390A      4.982322  
     391A      4.989309   392A      5.004649   393A      5.020985  
     394A      5.033753   395A      5.041143   396A      5.050226  
     397A      5.074229   398A      5.089424   399A      5.099693  
     400A      5.125786   401A      5.143001   402A      5.160059  
     403A      5.174435   404A      5.182666   405A      5.186149  
     406A      5.208022   407A      5.224687   408A      5.253597  
     409A      5.259562   410A      5.296068   411A      5.324990  
     412A      5.344911   413A      5.370614   414A      5.394608  
     415A      5.416724   416A      5.448275   417A      5.455239  
     418A      5.471670   419A      5.474236   420A      5.498271  
     421A      5.547705   422A      5.552716   423A      5.578534  
     424A      5.593250   425A      5.638169   426A      5.646510  
     427A      5.664093   428A      5.676696   429A      5.680117  
     430A      5.698697   431A      5.712201   432A      5.718403  
     433A      5.728931   434A      5.780869   435A      5.813271  
     436A      5.852270   437A      5.860898   438A      5.883979  
     439A      5.941357   440A      5.988327   441A      6.016929  
     442A      6.043667   443A      6.052438   444A      6.075519  
     445A      6.095508   446A      6.102666   447A      6.123447  
     448A      6.206619   449A      6.244552   450A      6.275062  
     451A      6.309865   452A      6.318589   453A      6.354639  
     454A      6.391156   455A      6.402584   456A      6.435850  
     457A      6.438474   458A      6.442862   459A      6.459738  
     460A      6.531927   461A      6.658412   462A      6.692097  
     463A      6.741351   464A      6.779854   465A      6.791700  
     466A      6.825155   467A      6.928342   468A      6.949301  
     469A      7.010329   470A      7.119431   471A      7.227650  
     472A      7.267410   473A      7.300567   474A      7.361307  
     475A      7.421820   476A      7.451626   477A      7.480569  
     478A      7.535178   479A      7.571937   480A      7.611886  
     481A      7.646719   482A      7.681553   483A      7.704174  
     484A      7.719333   485A      7.739853   486A      7.822783  
     487A      7.881840   488A      7.912716   489A      7.982719  
     490A      8.049021   491A      8.154024   492A      8.308729  
     493A      8.357893   494A      8.683404   495A      8.858928  
     496A      9.447150   497A      9.640332   498A      9.812765  
     499A      9.887090   500A     10.223595   501A     12.452286  
     502A     14.168020   503A     14.722392   504A     41.313412  
     505A     44.115783   506A     45.518244   507A     45.980258  
     508A     47.296249  

    Final Occupation by Irrep:
              A 
    DOCC [    12 ]

  @DF-RHF Final Energy:  -152.97578635192221

   => Energetics <=

    Nuclear Repulsion Energy =             69.6733534333800861
    One-Electron Energy =                -345.7785003946891038
    Two-Electron Energy =                 123.1293606093867936
    Total Energy =                       -152.9757863519222099

Computation Completed


Properties will be evaluated at   0.000000,   0.000000,   0.000000 [a0]

Properties computed using the SCF density matrix

  Nuclear Dipole Moment: [e a0]
     X:  -104.2536      Y:   -31.3220      Z:     0.9341

  Electronic Dipole Moment: [e a0]
     X:   103.8258      Y:    31.8194      Z:     0.1924

  Dipole Moment: [e a0]
     X:    -0.4278      Y:     0.4975      Z:     1.1265     Total:     1.3036

  Dipole Moment: [D]
     X:    -1.0873      Y:     1.2644      Z:     2.8632     Total:     3.3135


*** tstop() called on r282 at Fri Sep 10 14:26:32 2021
Module time:
	user time   =      39.59 seconds =       0.66 minutes
	system time =       0.59 seconds =       0.01 minutes
	total time  =         41 seconds =       0.68 minutes
Total time:
	user time   =     105.67 seconds =       1.76 minutes
	system time =       2.08 seconds =       0.03 minutes
	total time  =        108 seconds =       1.80 minutes

  //>>>>>>>>>>>>>>>>>>>>>>>>>>>>>>>>>>>//
  //            Monomer B HF           //
  //<<<<<<<<<<<<<<<<<<<<<<<<<<<<<<<<<<<//


*** tstart() called on r282
*** at Fri Sep 10 14:26:32 2021

   => Loading Basis Set <=

    Name: JUN-CC-PVTZ
    Role: ORBITAL
    Keyword: BASIS
    atoms 1, 5-7, 13-22 entry H          line    36 file /home/r08543048/miniconda3/share/psi4/basis/jun-cc-pvtz.gbs 
    atoms 2-3, 8-12     entry C          line   217 file /home/r08543048/miniconda3/share/psi4/basis/jun-cc-pvtz.gbs 
    atoms 4             entry O          line   305 file /home/r08543048/miniconda3/share/psi4/basis/jun-cc-pvtz.gbs 


         ---------------------------------------------------------
                                   SCF
               by Justin Turney, Rob Parrish, Andy Simmonett
                          and Daniel G. A. Smith
                              RHF Reference
                        1 Threads,  20980 MiB Core
         ---------------------------------------------------------

  ==> Geometry <==

    Molecular point group: c1
    Full point group: C1

    Geometry (in Angstrom), charge = 0, multiplicity = 1:

       Center              X                  Y                   Z               Mass       
    ------------   -----------------  -----------------  -----------------  -----------------
      Gh(H)          -3.020963334815     0.600993403221    -0.380527876176     1.007825032230
      Gh(C)          -2.363569334815    -0.809195596779     1.188116123824    12.000000000000
      Gh(C)          -2.473671334815    -0.346780596779    -0.231279876176    12.000000000000
      Gh(O)          -2.010390334815    -0.940739596779    -1.186242876176    15.994914619570
      Gh(H)          -1.808789334815    -1.741471596779     1.246435123824     1.007825032230
      Gh(H)          -1.867806334815    -0.033435596779     1.774005123824     1.007825032230
      Gh(H)          -3.364482334815    -0.939177596779     1.603296123824     1.007825032230
         C           -0.271318334815     2.125595403221    -0.388360876176    12.000000000000
         C            0.464659665185     1.413132403221     0.471576123824    12.000000000000
         C            1.040953665185     0.065613403221     0.180061123824    12.000000000000
         C            2.570087665185     0.095461403221     0.128191123824    12.000000000000
         C            3.157263665185    -1.287662596779    -0.121854876176    12.000000000000
         H           -0.517132334815     1.731647403221    -1.366929876176     1.007825032230
         H           -0.634733334815     3.112353403221    -0.135356876176     1.007825032230
         H            0.698073665185     1.843605403221     1.442290123824     1.007825032230
         H            0.735943665185    -0.643784596779     0.956916123824     1.007825032230
         H            0.644842665185    -0.309082596779    -0.766653876176     1.007825032230
         H            2.881317665185     0.784889403221    -0.659556876176     1.007825032230
         H            2.955511665185     0.499880403221     1.067745123824     1.007825032230
         H            2.872831665185    -1.978116596779     0.673126123824     1.007825032230
         H            2.791356665185    -1.697254596779    -1.063844876176     1.007825032230
         H            4.245448665185    -1.257753596779    -0.167524876176     1.007825032230

  Running in c1 symmetry.

  Rotational constants: A =      0.07909  B =      0.02993  C =      0.02578 [cm^-1]
  Rotational constants: A =   2371.05659  B =    897.34730  C =    772.89941 [MHz]
  Nuclear repulsion =  170.636151174830019

  Charge       = 0
  Multiplicity = 1
  Electrons    = 40
  Nalpha       = 20
  Nbeta        = 20

  ==> Algorithm <==

  SCF Algorithm Type is DF.
  DIIS enabled.
  MOM disabled.
  Fractional occupation disabled.
  Guess Type is SAD.
  Energy threshold   = 1.00e-08
  Density threshold  = 1.00e-08
  Integral threshold = 0.00e+00

  ==> Primary Basis <==

  Basis Set: JUN-CC-PVTZ
    Blend: JUN-CC-PVTZ
    Number of shells: 188
    Number of basis function: 508
    Number of Cartesian functions: 570
    Spherical Harmonics?: true
    Max angular momentum: 3

   => Loading Basis Set <=

    Name: (JUN-CC-PVTZ AUX)
    Role: JKFIT
    Keyword: DF_BASIS_SCF
    atoms 1, 5-7, 13-22 entry H          line    70 file /home/r08543048/miniconda3/share/psi4/basis/jun-cc-pvtz-jkfit.gbs 
    atoms 2-3, 8-12     entry C          line   152 file /home/r08543048/miniconda3/share/psi4/basis/jun-cc-pvtz-jkfit.gbs 
    atoms 4             entry O          line   272 file /home/r08543048/miniconda3/share/psi4/basis/jun-cc-pvtz-jkfit.gbs 

  ==> Pre-Iterations <==

   -------------------------------------------------------
    Irrep   Nso     Nmo     Nalpha   Nbeta   Ndocc  Nsocc
   -------------------------------------------------------
     A        508     508       0       0       0       0
   -------------------------------------------------------
    Total     508     508      20      20      20       0
   -------------------------------------------------------

  ==> Integral Setup <==

  ==> DiskDFJK: Density-Fitted J/K Matrices <==

    J tasked:                  Yes
    K tasked:                  Yes
    wK tasked:                  No
    OpenMP threads:              1
    Integrals threads:           1
    Memory [MiB]:            15735
    Algorithm:                Core
    Integral Cache:           LOAD
    Schwarz Cutoff:          1E-12
    Fitting Condition:       1E-10

   => Auxiliary Basis Set <=

  Basis Set: (JUN-CC-PVTZ AUX)
    Blend: JUN-CC-PVTZ-JKFIT
    Number of shells: 372
    Number of basis function: 1180
    Number of Cartesian functions: 1418
    Spherical Harmonics?: true
    Max angular momentum: 4

  Minimum eigenvalue in the overlap matrix is 2.5875194296E-05.
  Using Symmetric Orthogonalization.

  SCF Guess: Superposition of Atomic Densities via on-the-fly atomic UHF.

  ==> Iterations <==

                           Total Energy        Delta E     RMS |[F,P]|

   @DF-RHF iter SAD:  -194.45263050593982   -1.94453e+02   0.00000e+00 
   @DF-RHF iter   1:  -194.99851479760815   -5.45884e-01   1.14887e-03 DIIS
   @DF-RHF iter   2:  -195.17506238977620   -1.76548e-01   5.05561e-04 DIIS
   @DF-RHF iter   3:  -195.20968453589148   -3.46221e-02   9.73332e-05 DIIS
   @DF-RHF iter   4:  -195.21202559869991   -2.34106e-03   3.26425e-05 DIIS
   @DF-RHF iter   5:  -195.21219544852843   -1.69850e-04   6.74392e-06 DIIS
   @DF-RHF iter   6:  -195.21220590976813   -1.04612e-05   1.57054e-06 DIIS
   @DF-RHF iter   7:  -195.21220641636748   -5.06599e-07   4.23362e-07 DIIS
   @DF-RHF iter   8:  -195.21220645806207   -4.16946e-08   9.23442e-08 DIIS
   @DF-RHF iter   9:  -195.21220646077825   -2.71618e-09   2.87450e-08 DIIS
   @DF-RHF iter  10:  -195.21220646109327   -3.15026e-10   9.84472e-09 DIIS
  Energy and wave function converged.


  ==> Post-Iterations <==

    Orbital Energies [Eh]
    ---------------------

    Doubly Occupied:                                                      

       1A    -11.230952     2A    -11.221996     3A    -11.219495  
       4A    -11.217341     5A    -11.211403     6A     -1.089620  
       7A     -1.021714     8A     -0.922414     9A     -0.812091  
      10A     -0.756332    11A     -0.651674    12A     -0.616733  
      13A     -0.588575    14A     -0.567278    15A     -0.537747  
      16A     -0.510777    17A     -0.484002    18A     -0.472504  
      19A     -0.470527    20A     -0.355734  

    Virtual:                                                              

      21A      0.039303    22A      0.048674    23A      0.051552  
      24A      0.053205    25A      0.069239    26A      0.072384  
      27A      0.074382    28A      0.082743    29A      0.086533  
      30A      0.101957    31A      0.108056    32A      0.109442  
      33A      0.113269    34A      0.116755    35A      0.121220  
      36A      0.127773    37A      0.134932    38A      0.145432  
      39A      0.152834    40A      0.156748    41A      0.162704  
      42A      0.166791    43A      0.174139    44A      0.184125  
      45A      0.186372    46A      0.197470    47A      0.205783  
      48A      0.212293    49A      0.213739    50A      0.220668  
      51A      0.225459    52A      0.242625    53A      0.248980  
      54A      0.266201    55A      0.271184    56A      0.275712  
      57A      0.285555    58A      0.293515    59A      0.298953  
      60A      0.310705    61A      0.315241    62A      0.322635  
      63A      0.325443    64A      0.330572    65A      0.333398  
      66A      0.339711    67A      0.344245    68A      0.346829  
      69A      0.351641    70A      0.358163    71A      0.368736  
      72A      0.373010    73A      0.379520    74A      0.384365  
      75A      0.392622    76A      0.395161    77A      0.399118  
      78A      0.407563    79A      0.416216    80A      0.420110  
      81A      0.435795    82A      0.444761    83A      0.449608  
      84A      0.454937    85A      0.468581    86A      0.470805  
      87A      0.472183    88A      0.482719    89A      0.487508  
      90A      0.497697    91A      0.500602    92A      0.515575  
      93A      0.518708    94A      0.527729    95A      0.537261  
      96A      0.542350    97A      0.547370    98A      0.549270  
      99A      0.552189   100A      0.561316   101A      0.576696  
     102A      0.580709   103A      0.583971   104A      0.606088  
     105A      0.607015   106A      0.620066   107A      0.623406  
     108A      0.634319   109A      0.645318   110A      0.658044  
     111A      0.666515   112A      0.671389   113A      0.685849  
     114A      0.696716   115A      0.711496   116A      0.721526  
     117A      0.729680   118A      0.753586   119A      0.756597  
     120A      0.768120   121A      0.781532   122A      0.787963  
     123A      0.790725   124A      0.811634   125A      0.820375  
     126A      0.833287   127A      0.834805   128A      0.844143  
     129A      0.853870   130A      0.864274   131A      0.880264  
     132A      0.887989   133A      0.893329   134A      0.899554  
     135A      0.916455   136A      0.923839   137A      0.934450  
     138A      0.940248   139A      0.947194   140A      0.954469  
     141A      0.962621   142A      0.979690   143A      0.982119  
     144A      0.997495   145A      1.012168   146A      1.026542  
     147A      1.039641   148A      1.048874   149A      1.063558  
     150A      1.067774   151A      1.089579   152A      1.101396  
     153A      1.112329   154A      1.115212   155A      1.124707  
     156A      1.143302   157A      1.151482   158A      1.170191  
     159A      1.177528   160A      1.185073   161A      1.203356  
     162A      1.214754   163A      1.219260   164A      1.230574  
     165A      1.241096   166A      1.250519   167A      1.269522  
     168A      1.281992   169A      1.295140   170A      1.302289  
     171A      1.316134   172A      1.328006   173A      1.342424  
     174A      1.344029   175A      1.348872   176A      1.353955  
     177A      1.369006   178A      1.372030   179A      1.385440  
     180A      1.401619   181A      1.406562   182A      1.411666  
     183A      1.412821   184A      1.428398   185A      1.449179  
     186A      1.460498   187A      1.470311   188A      1.478952  
     189A      1.500181   190A      1.502496   191A      1.512284  
     192A      1.524389   193A      1.529735   194A      1.545985  
     195A      1.548060   196A      1.564939   197A      1.576174  
     198A      1.592285   199A      1.597026   200A      1.609503  
     201A      1.617475   202A      1.626094   203A      1.637456  
     204A      1.653557   205A      1.656825   206A      1.666819  
     207A      1.669751   208A      1.694959   209A      1.709315  
     210A      1.714673   211A      1.746167   212A      1.756733  
     213A      1.767763   214A      1.775863   215A      1.780686  
     216A      1.787814   217A      1.794452   218A      1.806675  
     219A      1.851631   220A      1.871142   221A      1.892892  
     222A      1.900015   223A      1.911356   224A      1.925673  
     225A      1.930403   226A      1.956506   227A      1.979874  
     228A      1.991984   229A      2.019312   230A      2.043531  
     231A      2.060639   232A      2.081172   233A      2.109502  
     234A      2.119163   235A      2.137953   236A      2.157816  
     237A      2.238940   238A      2.289145   239A      2.382567  
     240A      2.390263   241A      2.509006   242A      2.555810  
     243A      2.647792   244A      2.732508   245A      2.742790  
     246A      2.762046   247A      2.777408   248A      2.784474  
     249A      2.810802   250A      2.824521   251A      2.836958  
     252A      2.846620   253A      2.851638   254A      2.867843  
     255A      2.881306   256A      2.892981   257A      2.899910  
     258A      2.942884   259A      2.957672   260A      2.990126  
     261A      2.993693   262A      3.005830   263A      3.019099  
     264A      3.036023   265A      3.078939   266A      3.082965  
     267A      3.098159   268A      3.104589   269A      3.133691  
     270A      3.140799   271A      3.154641   272A      3.162714  
     273A      3.166389   274A      3.190071   275A      3.200792  
     276A      3.215358   277A      3.224105   278A      3.238039  
     279A      3.247154   280A      3.260923   281A      3.286116  
     282A      3.295510   283A      3.310574   284A      3.332781  
     285A      3.344724   286A      3.373100   287A      3.378721  
     288A      3.390428   289A      3.405899   290A      3.416507  
     291A      3.420274   292A      3.451627   293A      3.469146  
     294A      3.473445   295A      3.482312   296A      3.491808  
     297A      3.498917   298A      3.506238   299A      3.530271  
     300A      3.532796   301A      3.536945   302A      3.550262  
     303A      3.558346   304A      3.575483   305A      3.589897  
     306A      3.598553   307A      3.608071   308A      3.616469  
     309A      3.630660   310A      3.634292   311A      3.651661  
     312A      3.654893   313A      3.664519   314A      3.687402  
     315A      3.697238   316A      3.721426   317A      3.757523  
     318A      3.766196   319A      3.779847   320A      3.809577  
     321A      3.811470   322A      3.817777   323A      3.827157  
     324A      3.840977   325A      3.845628   326A      3.868887  
     327A      3.870980   328A      3.889984   329A      3.895024  
     330A      3.920004   331A      3.929820   332A      3.936258  
     333A      3.956265   334A      3.965433   335A      3.971501  
     336A      4.003434   337A      4.015016   338A      4.026910  
     339A      4.039735   340A      4.051565   341A      4.057242  
     342A      4.062290   343A      4.092364   344A      4.120157  
     345A      4.168695   346A      4.170157   347A      4.178037  
     348A      4.194947   349A      4.209381   350A      4.223984  
     351A      4.233081   352A      4.244139   353A      4.265526  
     354A      4.276596   355A      4.303371   356A      4.319321  
     357A      4.337224   358A      4.337728   359A      4.347679  
     360A      4.363405   361A      4.374980   362A      4.378437  
     363A      4.389236   364A      4.390952   365A      4.405623  
     366A      4.417532   367A      4.434793   368A      4.437484  
     369A      4.448450   370A      4.461155   371A      4.476536  
     372A      4.481694   373A      4.501279   374A      4.507816  
     375A      4.515332   376A      4.527373   377A      4.536481  
     378A      4.561844   379A      4.567207   380A      4.572222  
     381A      4.579350   382A      4.601387   383A      4.615881  
     384A      4.631136   385A      4.631429   386A      4.651454  
     387A      4.671804   388A      4.700804   389A      4.711256  
     390A      4.719406   391A      4.733254   392A      4.748374  
     393A      4.756922   394A      4.768689   395A      4.784391  
     396A      4.791097   397A      4.797563   398A      4.812616  
     399A      4.821310   400A      4.832102   401A      4.866425  
     402A      4.877093   403A      4.882291   404A      4.909199  
     405A      4.917423   406A      4.939431   407A      4.946947  
     408A      4.955983   409A      4.971798   410A      4.986804  
     411A      4.997032   412A      5.020140   413A      5.037080  
     414A      5.051435   415A      5.055081   416A      5.094136  
     417A      5.118581   418A      5.138765   419A      5.149146  
     420A      5.166575   421A      5.180379   422A      5.192041  
     423A      5.222960   424A      5.255711   425A      5.264797  
     426A      5.281025   427A      5.291894   428A      5.299499  
     429A      5.353127   430A      5.366319   431A      5.392895  
     432A      5.401736   433A      5.419689   434A      5.430281  
     435A      5.453752   436A      5.476237   437A      5.521855  
     438A      5.566903   439A      5.610479   440A      5.624809  
     441A      5.641230   442A      5.650238   443A      5.669447  
     444A      5.719112   445A      5.757996   446A      5.769076  
     447A      5.774248   448A      5.792374   449A      5.811738  
     450A      5.847225   451A      5.870821   452A      5.920951  
     453A      5.932082   454A      5.950617   455A      5.964349  
     456A      6.023288   457A      6.067547   458A      6.111881  
     459A      6.120298   460A      6.133337   461A      6.189360  
     462A      6.251250   463A      6.286585   464A      6.293286  
     465A      6.333546   466A      6.421900   467A      6.483919  
     468A      6.495631   469A      6.506628   470A      6.510797  
     471A      6.521605   472A      6.580392   473A      6.620622  
     474A      6.630287   475A      6.712227   476A      6.721114  
     477A      6.777986   478A      6.883964   479A      7.021575  
     480A      7.328595   481A      7.464785   482A      7.574117  
     483A      7.604617   484A      7.816844   485A      7.852779  
     486A      7.913823   487A      8.159312   488A      8.333852  
     489A      8.498786   490A      9.427654   491A      9.452757  
     492A      9.821215   493A      9.862257   494A      9.925550  
     495A      9.929135   496A     10.059645   497A     11.000572  
     498A     11.693438   499A     11.899735   500A     12.444748  
     501A     13.739648   502A     13.837570   503A     14.522204  
     504A     14.531926   505A     15.397724   506A     43.422127  
     507A     45.982702   508A     60.578370  

    Final Occupation by Irrep:
              A 
    DOCC [    20 ]

  @DF-RHF Final Energy:  -195.21220646109327

   => Energetics <=

    Nuclear Repulsion Energy =            170.6361511748300188
    One-Electron Energy =                -599.7788980226569038
    Two-Electron Energy =                 233.9305403867335826
    Total Energy =                       -195.2122064610932739

Computation Completed


Properties will be evaluated at   0.000000,   0.000000,   0.000000 [a0]

Properties computed using the SCF density matrix

  Nuclear Dipole Moment: [e a0]
     X:   110.4419      Y:    31.2924      Z:     3.0196

  Electronic Dipole Moment: [e a0]
     X:  -110.3071      Y:   -31.4044      Z:    -2.9773

  Dipole Moment: [e a0]
     X:     0.1348      Y:    -0.1120      Z:     0.0422     Total:     0.1803

  Dipole Moment: [D]
     X:     0.3427      Y:    -0.2846      Z:     0.1074     Total:     0.4582


*** tstop() called on r282 at Fri Sep 10 14:27:11 2021
Module time:
	user time   =      39.06 seconds =       0.65 minutes
	system time =       0.68 seconds =       0.01 minutes
	total time  =         39 seconds =       0.65 minutes
Total time:
	user time   =     144.73 seconds =       2.41 minutes
	system time =       2.76 seconds =       0.05 minutes
	total time  =        147 seconds =       2.45 minutes
  Constructing Basis Sets for SAPT...

   => Loading Basis Set <=

    Name: (JUN-CC-PVTZ AUX)
    Role: RIFIT
    Keyword: DF_BASIS_SAPT
    atoms 1, 5-7, 13-22 entry H          line    30 file /home/r08543048/miniconda3/share/psi4/basis/jun-cc-pvtz-ri.gbs 
    atoms 2-3, 8-12     entry C          line   132 file /home/r08543048/miniconda3/share/psi4/basis/jun-cc-pvtz-ri.gbs 
    atoms 4             entry O          line   244 file /home/r08543048/miniconda3/share/psi4/basis/jun-cc-pvtz-ri.gbs 


  //>>>>>>>>>>>>>>>>>>>>>>>>>>>>>>>>>>>//
  //               SAPT0               //
  //<<<<<<<<<<<<<<<<<<<<<<<<<<<<<<<<<<<//


*** tstart() called on r282
*** at Fri Sep 10 14:27:12 2021

        SAPT0  
    Ed Hohenstein
     6 June 2009

      Orbital Information
  --------------------------
    NSO        =       508
    NMO        =       508
    NRI        =      1196
    NOCC A     =        12
    NOCC B     =        20
    FOCC A     =         0
    FOCC B     =         0
    NVIR A     =       496
    NVIR B     =       488

    Elst10,r            =    -0.005317157555 [Eh]
    Exch10              =     0.008247799259 [Eh]
    Exch10 (S^2)        =     0.008214435296 [Eh]

    Iter     Energy [mEh]          dE [mEh]         Residual      Time [s]
       1      -0.51620895       0.516208945       4.216596563             1
       2      -0.56801975       0.051810805       1.901315927             2
       3      -0.60569501       0.037675259       0.485914266             3
       4      -0.60707218       0.001377170       0.191759947             4
       5      -0.60489363      -0.002178554       0.057678169             5
       6      -0.60513656       0.000242939       0.022813875             6
       7      -0.60526554       0.000128977       0.005663459             7
       8      -0.60521909      -0.000046453       0.002456526             8
       9      -0.60522412       0.000005033       0.001335398             9
      10      -0.60522796       0.000003836       0.000349077             9
      11      -0.60522703      -0.000000929       0.000120121            10
      12      -0.60522673      -0.000000301       0.000029574            11
      13      -0.60522685       0.000000125       0.000007337            12
      14      -0.60522685      -0.000000005       0.000001846            13
      15      -0.60522684      -0.000000004       0.000000340            14

    CHF Iterations converged


    Iter     Energy [mEh]          dE [mEh]         Residual      Time [s]
       1      -2.40280635       2.402806348       7.712327414             1
       2      -3.00459329       0.601786938       3.021669833             2
       3      -3.06988795       0.065294660       0.719631237             3
       4      -3.05704052      -0.012847425       0.293619090             4
       5      -3.05290127      -0.004139253       0.060900811             5
       6      -3.05361973       0.000718460       0.026934874             6
       7      -3.05391963       0.000299907       0.008670722             7
       8      -3.05381607      -0.000103565       0.002923878             8
       9      -3.05380250      -0.000013571       0.000751864             9
      10      -3.05380853       0.000006034       0.000226628            10
      11      -3.05380980       0.000001268       0.000054370            11
      12      -3.05380926      -0.000000544       0.000013124            12
      13      -3.05380925      -0.000000002       0.000003883            13
      14      -3.05380928       0.000000027       0.000000990            14

    CHF Iterations converged

    Ind20,r (A<-B)      =    -0.000605226841 [Eh]
    Ind20,r (B<-A)      =    -0.003053809282 [Eh]
    Ind20,r             =    -0.003659036123 [Eh]
    Exch-Ind20,r (A<-B) =     0.000470883192 [Eh]
    Exch-Ind20,r (B<-A) =     0.002487121242 [Eh]
    Exch-Ind20,r        =     0.002958004433 [Eh]
    Disp20              =    -0.008496248622 [Eh]
    Disp20 (SS)         =    -0.004248124311 [Eh]
    Disp20 (OS)         =    -0.004248124311 [Eh]
    Exch-Disp20         =     0.000962491073 [Eh]
    Exch-Disp20 (SS)    =     0.000622797448 [Eh]
    Exch-Disp20 (OS)    =     0.000339693625 [Eh]

    SAPT Results 
  --------------------------------------------------------------------------------------------------------
    Electrostatics                 -5.31715755 [mEh]      -3.33656674 [kcal/mol]     -13.96019524 [kJ/mol]
      Elst10,r                     -5.31715755 [mEh]      -3.33656674 [kcal/mol]     -13.96019524 [kJ/mol]

    Exchange                        8.24779926 [mEh]       5.17557217 [kcal/mol]      21.65459397 [kJ/mol]
      Exch10                        8.24779926 [mEh]       5.17557217 [kcal/mol]      21.65459397 [kJ/mol]
      Exch10(S^2)                   8.21443530 [mEh]       5.15463597 [kcal/mol]      21.56699690 [kJ/mol]

    Induction                      -1.41209765 [mEh]      -0.88610465 [kcal/mol]      -3.70746186 [kJ/mol]
      Ind20,r                      -3.65903612 [mEh]      -2.29607983 [kcal/mol]      -9.60679802 [kJ/mol]
      Exch-Ind20,r                  2.95800443 [mEh]       1.85617581 [kcal/mol]       7.76623957 [kJ/mol]
      delta HF,r (2)               -0.71106596 [mEh]      -0.44620063 [kcal/mol]      -1.86690342 [kJ/mol]

    Dispersion                     -7.53375755 [mEh]      -4.72750424 [kcal/mol]     -19.77987772 [kJ/mol]
      Disp20                       -8.49624862 [mEh]      -5.33147650 [kcal/mol]     -22.30689768 [kJ/mol]
      Exch-Disp20                   0.96249107 [mEh]       0.60397227 [kcal/mol]       2.52701996 [kJ/mol]
      Disp20 (SS)                  -4.24812431 [mEh]      -2.66573825 [kcal/mol]     -11.15344884 [kJ/mol]
      Disp20 (OS)                  -4.24812431 [mEh]      -2.66573825 [kcal/mol]     -11.15344884 [kJ/mol]
      Exch-Disp20 (SS)              0.62279745 [mEh]       0.39081130 [kcal/mol]       1.63515448 [kJ/mol]
      Exch-Disp20 (OS)              0.33969362 [mEh]       0.21316097 [kcal/mol]       0.89186549 [kJ/mol]

  Total HF                          1.51854406 [mEh]       0.95290078 [kcal/mol]       3.98693687 [kJ/mol]
  Total SAPT0                      -6.01521349 [mEh]      -3.77460345 [kcal/mol]     -15.79294085 [kJ/mol]

  Special recipe for scaled SAPT0 (see Manual):
    Electrostatics sSAPT0          -5.31715755 [mEh]      -3.33656674 [kcal/mol]     -13.96019524 [kJ/mol]
    Exchange sSAPT0                 8.24779926 [mEh]       5.17557217 [kcal/mol]      21.65459397 [kJ/mol]
    Induction sSAPT0               -1.37590813 [mEh]      -0.86339539 [kcal/mol]      -3.61244631 [kJ/mol]
    Dispersion sSAPT0              -7.52198201 [mEh]      -4.72011498 [kcal/mol]     -19.74896106 [kJ/mol]
  Total sSAPT0                     -5.96724845 [mEh]      -3.74450493 [kcal/mol]     -15.66700864 [kJ/mol]
  --------------------------------------------------------------------------------------------------------

*** tstop() called on r282 at Fri Sep 10 14:29:16 2021
Module time:
	user time   =     105.14 seconds =       1.75 minutes
	system time =      17.91 seconds =       0.30 minutes
	total time  =        124 seconds =       2.07 minutes
Total time:
	user time   =     250.02 seconds =       4.17 minutes
	system time =      20.67 seconds =       0.34 minutes
	total time  =        272 seconds =       4.53 minutes

    Psi4 stopped on: Friday, 10 September 2021 02:29PM
    Psi4 wall time for execution: 0:04:32.25

*** Psi4 exiting successfully. Buy a developer a beer!
