
    -----------------------------------------------------------------------
          Psi4: An Open-Source Ab Initio Electronic Structure Package
                               Psi4 1.3.2 release

                         Git: Rev {HEAD} ecbda83 


    R. M. Parrish, L. A. Burns, D. G. A. Smith, A. C. Simmonett,
    A. E. DePrince III, E. G. Hohenstein, U. Bozkaya, A. Yu. Sokolov,
    R. Di Remigio, R. M. Richard, J. F. Gonthier, A. M. James,
    H. R. McAlexander, A. Kumar, M. Saitow, X. Wang, B. P. Pritchard,
    P. Verma, H. F. Schaefer III, K. Patkowski, R. A. King, E. F. Valeev,
    F. A. Evangelista, J. M. Turney, T. D. Crawford, and C. D. Sherrill,
    J. Chem. Theory Comput. 13(7) pp 3185--3197 (2017).
    (doi: 10.1021/acs.jctc.7b00174)


                         Additional Contributions by
    P. Kraus, H. Kruse, M. H. Lechner, M. C. Schieber, R. A. Shaw,
    A. Alenaizan, R. Galvelis, Z. L. Glick, S. Lehtola, and J. P. Misiewicz

    -----------------------------------------------------------------------


    Psi4 started on: Friday, 10 September 2021 02:09PM

    Process ID: 56723
    Host:       r282
    PSIDATADIR: /home/r08543048/miniconda3/share/psi4
    Memory:     500.0 MiB
    Threads:    1
    
  ==> Input File <==

--------------------------------------------------------------------------
# Any line starting with the # character is a comment line
#! Sample  computation

memory 22 gb

molecule Dimer {
0 1
 H   -1.945922   -2.397207   -0.060607
 C   -2.114048   -0.234033   -0.489884
 C   -1.863810   -1.403481    0.416248
 O   -1.577574   -1.312078    1.595488
 H   -3.073432   -0.404630   -0.990968
 C   -2.083286    1.116586    0.203383
 H   -2.876562    1.152290    0.951808
 H   -1.145966    1.215128    0.751407
 H   -1.359433   -0.293385   -1.283706
 C   -2.239187    2.261429   -0.789067
 H   -1.429946    2.253603   -1.521139
 H   -3.179937    2.182238   -1.335526
 H   -2.225155    3.227393   -0.285750
  
  

    
    
 --
0 1
 C   1.202903   -2.482720   -0.493522
 C   1.499736   -1.273646   -0.981876
 C   1.456017   -0.007756   -0.188610
 C   2.847863    0.591235    0.024111
 C   2.786231    1.906410    0.790279
 H   0.878950   -2.603791    0.532997
 H   1.283101   -3.370992   -1.105211
 H   1.829508   -1.191091   -2.014278
 H   0.840264    0.734668   -0.708425
 H   0.985836   -0.196544    0.780385
 H   3.462824   -0.131974    0.563864
 H   3.325837    0.746319   -0.946558
 H   2.191791    2.642674    0.247413
 H   2.324765    1.761754    1.767802
 H   3.779551    2.326024    0.946220




units angstrom

no_reorient
symmetry c1
}

set globals{
  basis jun-cc-pvtz
}

energy('sapt0')


--------------------------------------------------------------------------

  Memory set to  20.489 GiB by Python driver.

  //>>>>>>>>>>>>>>>>>>>>>>>>>>>>>>>>>>>//
  //              Dimer HF             //
  //<<<<<<<<<<<<<<<<<<<<<<<<<<<<<<<<<<<//


*** tstart() called on r282
*** at Fri Sep 10 14:09:03 2021

   => Loading Basis Set <=

    Name: JUN-CC-PVTZ
    Role: ORBITAL
    Keyword: BASIS
    atoms 1, 5, 7-9, 11-13, 19-28 entry H          line    36 file /home/r08543048/miniconda3/share/psi4/basis/jun-cc-pvtz.gbs 
    atoms 2-3, 6, 10, 14-18       entry C          line   217 file /home/r08543048/miniconda3/share/psi4/basis/jun-cc-pvtz.gbs 
    atoms 4                       entry O          line   305 file /home/r08543048/miniconda3/share/psi4/basis/jun-cc-pvtz.gbs 


         ---------------------------------------------------------
                                   SCF
               by Justin Turney, Rob Parrish, Andy Simmonett
                          and Daniel G. A. Smith
                              RHF Reference
                        1 Threads,  20980 MiB Core
         ---------------------------------------------------------

  ==> Geometry <==

    Molecular point group: c1
    Full point group: C1

    Geometry (in Angstrom), charge = 0, multiplicity = 1:

       Center              X                  Y                   Z               Mass       
    ------------   -----------------  -----------------  -----------------  -----------------
         H           -1.920387453619    -2.343835987473    -0.086449428423     1.007825032230
         C           -2.088513453619    -0.180661987473    -0.515726428423    12.000000000000
         C           -1.838275453619    -1.350109987473     0.390405571577    12.000000000000
         O           -1.552039453619    -1.258706987473     1.569645571577    15.994914619570
         H           -3.047897453619    -0.351258987473    -1.016810428423     1.007825032230
         C           -2.057751453619     1.169957012527     0.177540571577    12.000000000000
         H           -2.851027453619     1.205661012527     0.925965571577     1.007825032230
         H           -1.120431453619     1.268499012527     0.725564571577     1.007825032230
         H           -1.333898453619    -0.240013987473    -1.309548428423     1.007825032230
         C           -2.213652453619     2.314800012527    -0.814909428423    12.000000000000
         H           -1.404411453619     2.306974012527    -1.546981428423     1.007825032230
         H           -3.154402453619     2.235609012527    -1.361368428423     1.007825032230
         H           -2.199620453619     3.280764012527    -0.311592428423     1.007825032230
         C            1.228437546381    -2.429348987473    -0.519364428423    12.000000000000
         C            1.525270546381    -1.220274987473    -1.007718428423    12.000000000000
         C            1.481551546381     0.045615012527    -0.214452428423    12.000000000000
         C            2.873397546381     0.644606012527    -0.001731428423    12.000000000000
         C            2.811765546381     1.959781012527     0.764436571577    12.000000000000
         H            0.904484546381    -2.550419987473     0.507154571577     1.007825032230
         H            1.308635546381    -3.317620987473    -1.131053428423     1.007825032230
         H            1.855042546381    -1.137719987473    -2.040120428423     1.007825032230
         H            0.865798546381     0.788039012527    -0.734267428423     1.007825032230
         H            1.011370546381    -0.143172987473     0.754542571577     1.007825032230
         H            3.488358546381    -0.078602987473     0.538021571577     1.007825032230
         H            3.351371546381     0.799690012527    -0.972400428423     1.007825032230
         H            2.217325546381     2.696045012527     0.221570571577     1.007825032230
         H            2.350299546381     1.815125012527     1.741959571577     1.007825032230
         H            3.805085546381     2.379395012527     0.920377571577     1.007825032230

  Running in c1 symmetry.

  Rotational constants: A =      0.03912  B =      0.02403  C =      0.01793 [cm^-1]
  Rotational constants: A =   1172.87110  B =    720.52123  C =    537.53964 [MHz]
  Nuclear repulsion =  529.790620794439860

  Charge       = 0
  Multiplicity = 1
  Electrons    = 80
  Nalpha       = 40
  Nbeta        = 40

  ==> Algorithm <==

  SCF Algorithm Type is DF.
  DIIS enabled.
  MOM disabled.
  Fractional occupation disabled.
  Guess Type is SAD.
  Energy threshold   = 1.00e-08
  Density threshold  = 1.00e-08
  Integral threshold = 0.00e+00

  ==> Primary Basis <==

  Basis Set: JUN-CC-PVTZ
    Blend: JUN-CC-PVTZ
    Number of shells: 238
    Number of basis function: 642
    Number of Cartesian functions: 720
    Spherical Harmonics?: true
    Max angular momentum: 3

   => Loading Basis Set <=

    Name: (JUN-CC-PVTZ AUX)
    Role: JKFIT
    Keyword: DF_BASIS_SCF
    atoms 1, 5, 7-9, 11-13, 19-28 entry H          line    70 file /home/r08543048/miniconda3/share/psi4/basis/jun-cc-pvtz-jkfit.gbs 
    atoms 2-3, 6, 10, 14-18       entry C          line   152 file /home/r08543048/miniconda3/share/psi4/basis/jun-cc-pvtz-jkfit.gbs 
    atoms 4                       entry O          line   272 file /home/r08543048/miniconda3/share/psi4/basis/jun-cc-pvtz-jkfit.gbs 

  ==> Pre-Iterations <==

   -------------------------------------------------------
    Irrep   Nso     Nmo     Nalpha   Nbeta   Ndocc  Nsocc
   -------------------------------------------------------
     A        642     642       0       0       0       0
   -------------------------------------------------------
    Total     642     642      40      40      40       0
   -------------------------------------------------------

  ==> Integral Setup <==

  ==> DiskDFJK: Density-Fitted J/K Matrices <==

    J tasked:                  Yes
    K tasked:                  Yes
    wK tasked:                  No
    OpenMP threads:              1
    Integrals threads:           1
    Memory [MiB]:            15735
    Algorithm:                Core
    Integral Cache:           SAVE
    Schwarz Cutoff:          1E-12
    Fitting Condition:       1E-10

   => Auxiliary Basis Set <=

  Basis Set: (JUN-CC-PVTZ AUX)
    Blend: JUN-CC-PVTZ-JKFIT
    Number of shells: 470
    Number of basis function: 1490
    Number of Cartesian functions: 1790
    Spherical Harmonics?: true
    Max angular momentum: 4

  Minimum eigenvalue in the overlap matrix is 2.2363932121E-05.
  Using Symmetric Orthogonalization.

  SCF Guess: Superposition of Atomic Densities via on-the-fly atomic UHF.

  ==> Iterations <==

                           Total Energy        Delta E     RMS |[F,P]|

   @DF-RHF iter SAD:  -424.87341238434635   -4.24873e+02   0.00000e+00 
   @DF-RHF iter   1:  -425.86342142112881   -9.90009e-01   1.30947e-03 DIIS
   @DF-RHF iter   2:  -426.18991707127151   -3.26496e-01   6.93531e-04 DIIS
   @DF-RHF iter   3:  -426.27435346714373   -8.44364e-02   1.56682e-04 DIIS
   @DF-RHF iter   4:  -426.28039766039944   -6.04419e-03   7.15835e-05 DIIS
   @DF-RHF iter   5:  -426.28154867916777   -1.15102e-03   1.05438e-05 DIIS
   @DF-RHF iter   6:  -426.28159938716425   -5.07080e-05   4.48606e-06 DIIS
   @DF-RHF iter   7:  -426.28160677679841   -7.38963e-06   1.70271e-06 DIIS
   @DF-RHF iter   8:  -426.28160827451529   -1.49772e-06   7.58438e-07 DIIS
   @DF-RHF iter   9:  -426.28160859258816   -3.18073e-07   2.42997e-07 DIIS
   @DF-RHF iter  10:  -426.28160862748479   -3.48966e-08   6.87951e-08 DIIS
   @DF-RHF iter  11:  -426.28160863029399   -2.80920e-09   1.97742e-08 DIIS
   @DF-RHF iter  12:  -426.28160863057713   -2.83137e-10   8.97613e-09 DIIS
  Energy and wave function converged.


  ==> Post-Iterations <==

    Orbital Energies [Eh]
    ---------------------

    Doubly Occupied:                                                      

       1A    -20.552316     2A    -11.328957     3A    -11.237230  
       4A    -11.233915     5A    -11.223157     6A    -11.222380  
       7A    -11.219934     8A    -11.219773     9A    -11.217537  
      10A    -11.211189    11A     -1.384135    12A     -1.092000  
      13A     -1.080499    14A     -1.023717    15A     -0.975381  
      16A     -0.923884    17A     -0.846773    18A     -0.813366  
      19A     -0.767822    20A     -0.758633    21A     -0.670650  
      22A     -0.655356    23A     -0.647526    24A     -0.630250  
      25A     -0.618010    26A     -0.590315    27A     -0.569448  
      28A     -0.567227    29A     -0.565300    30A     -0.538470  
      31A     -0.514272    32A     -0.510704    33A     -0.499374  
      34A     -0.490705    35A     -0.483240    36A     -0.480884  
      37A     -0.471773    38A     -0.468541    39A     -0.417108  
      40A     -0.359775  

    Virtual:                                                              

      41A      0.042494    42A      0.048310    43A      0.051866  
      44A      0.055865    45A      0.065323    46A      0.069568  
      47A      0.071845    48A      0.075608    49A      0.081424  
      50A      0.092377    51A      0.097860    52A      0.102883  
      53A      0.107845    54A      0.112334    55A      0.115047  
      56A      0.120341    57A      0.124532    58A      0.133376  
      59A      0.134220    60A      0.140547    61A      0.142285  
      62A      0.148135    63A      0.158378    64A      0.160969  
      65A      0.167601    66A      0.168697    67A      0.173730  
      68A      0.182327    69A      0.184481    70A      0.189985  
      71A      0.192762    72A      0.198280    73A      0.207586  
      74A      0.210190    75A      0.215819    76A      0.220183  
      77A      0.227956    78A      0.236298    79A      0.252353  
      80A      0.255876    81A      0.264519    82A      0.267699  
      83A      0.275410    84A      0.278556    85A      0.289162  
      86A      0.293847    87A      0.300044    88A      0.303796  
      89A      0.309670    90A      0.313465    91A      0.316526  
      92A      0.322519    93A      0.326650    94A      0.334873  
      95A      0.338364    96A      0.339360    97A      0.340640  
      98A      0.344984    99A      0.350447   100A      0.355406  
     101A      0.358126   102A      0.367902   103A      0.371516  
     104A      0.376015   105A      0.377924   106A      0.380353  
     107A      0.386856   108A      0.391758   109A      0.395678  
     110A      0.399589   111A      0.409993   112A      0.411552  
     113A      0.414492   114A      0.415300   115A      0.422888  
     116A      0.433982   117A      0.438616   118A      0.445097  
     119A      0.449738   120A      0.457452   121A      0.463457  
     122A      0.466125   123A      0.480982   124A      0.485648  
     125A      0.493220   126A      0.496921   127A      0.505863  
     128A      0.508742   129A      0.521599   130A      0.524200  
     131A      0.531048   132A      0.535539   133A      0.538680  
     134A      0.542599   135A      0.546218   136A      0.555035  
     137A      0.562982   138A      0.565344   139A      0.569721  
     140A      0.578508   141A      0.585399   142A      0.588689  
     143A      0.601406   144A      0.603376   145A      0.610951  
     146A      0.616188   147A      0.623623   148A      0.639336  
     149A      0.646929   150A      0.663301   151A      0.666924  
     152A      0.669720   153A      0.676919   154A      0.680654  
     155A      0.691466   156A      0.706392   157A      0.709748  
     158A      0.710656   159A      0.719667   160A      0.725160  
     161A      0.734364   162A      0.744761   163A      0.755887  
     164A      0.767114   165A      0.770607   166A      0.778977  
     167A      0.787754   168A      0.790596   169A      0.792506  
     170A      0.810838   171A      0.817513   172A      0.823961  
     173A      0.827209   174A      0.830558   175A      0.843631  
     176A      0.846035   177A      0.847041   178A      0.847339  
     179A      0.851077   180A      0.855464   181A      0.868304  
     182A      0.875653   183A      0.881651   184A      0.888119  
     185A      0.897014   186A      0.901786   187A      0.909932  
     188A      0.923855   189A      0.924746   190A      0.930819  
     191A      0.943273   192A      0.949730   193A      0.963839  
     194A      0.966644   195A      0.973811   196A      0.982129  
     197A      0.993626   198A      0.998508   199A      1.005731  
     200A      1.013191   201A      1.025283   202A      1.032198  
     203A      1.046014   204A      1.057936   205A      1.064444  
     206A      1.071191   207A      1.084648   208A      1.095316  
     209A      1.102393   210A      1.109387   211A      1.119408  
     212A      1.134291   213A      1.141101   214A      1.155480  
     215A      1.159402   216A      1.173614   217A      1.181321  
     218A      1.190107   219A      1.206151   220A      1.211567  
     221A      1.216472   222A      1.228718   223A      1.232075  
     224A      1.250306   225A      1.258302   226A      1.265524  
     227A      1.282022   228A      1.288125   229A      1.300381  
     230A      1.317381   231A      1.320843   232A      1.323465  
     233A      1.347328   234A      1.353404   235A      1.355261  
     236A      1.367364   237A      1.368868   238A      1.378928  
     239A      1.384826   240A      1.390609   241A      1.404184  
     242A      1.411834   243A      1.413720   244A      1.418286  
     245A      1.428359   246A      1.434260   247A      1.445474  
     248A      1.447093   249A      1.460722   250A      1.470641  
     251A      1.486538   252A      1.496153   253A      1.497462  
     254A      1.510823   255A      1.513289   256A      1.522504  
     257A      1.528805   258A      1.542293   259A      1.552618  
     260A      1.563875   261A      1.567690   262A      1.571786  
     263A      1.585429   264A      1.594483   265A      1.599779  
     266A      1.608139   267A      1.611168   268A      1.619208  
     269A      1.624714   270A      1.629652   271A      1.638105  
     272A      1.645615   273A      1.650797   274A      1.660769  
     275A      1.671591   276A      1.681180   277A      1.692206  
     278A      1.702417   279A      1.709180   280A      1.714365  
     281A      1.719576   282A      1.731304   283A      1.748073  
     284A      1.762472   285A      1.774756   286A      1.785785  
     287A      1.794720   288A      1.802574   289A      1.811996  
     290A      1.832392   291A      1.840321   292A      1.859967  
     293A      1.871925   294A      1.879172   295A      1.885286  
     296A      1.902931   297A      1.918811   298A      1.922999  
     299A      1.935674   300A      1.944480   301A      1.953780  
     302A      1.966525   303A      1.976026   304A      1.987947  
     305A      2.016343   306A      2.028062   307A      2.035862  
     308A      2.055635   309A      2.067499   310A      2.096509  
     311A      2.136857   312A      2.157827   313A      2.242175  
     314A      2.275851   315A      2.352861   316A      2.417018  
     317A      2.437624   318A      2.487836   319A      2.589233  
     320A      2.689710   321A      2.733600   322A      2.746427  
     323A      2.761374   324A      2.780177   325A      2.786434  
     326A      2.790214   327A      2.812936   328A      2.819679  
     329A      2.840342   330A      2.848198   331A      2.857351  
     332A      2.864087   333A      2.869215   334A      2.886068  
     335A      2.890513   336A      2.905902   337A      2.911106  
     338A      2.921221   339A      2.933815   340A      2.950062  
     341A      2.955153   342A      2.970358   343A      2.995063  
     344A      2.995499   345A      3.007575   346A      3.011761  
     347A      3.026359   348A      3.049216   349A      3.064884  
     350A      3.069333   351A      3.087562   352A      3.101313  
     353A      3.103971   354A      3.106693   355A      3.121342  
     356A      3.127691   357A      3.133130   358A      3.143661  
     359A      3.150652   360A      3.152129   361A      3.165032  
     362A      3.170960   363A      3.178535   364A      3.200736  
     365A      3.201365   366A      3.217990   367A      3.228228  
     368A      3.233606   369A      3.243464   370A      3.246598  
     371A      3.258104   372A      3.275576   373A      3.289683  
     374A      3.299795   375A      3.307645   376A      3.312052  
     377A      3.321829   378A      3.326418   379A      3.334832  
     380A      3.342082   381A      3.354197   382A      3.361778  
     383A      3.372766   384A      3.380256   385A      3.390911  
     386A      3.396931   387A      3.399033   388A      3.408738  
     389A      3.425348   390A      3.433290   391A      3.437801  
     392A      3.450048   393A      3.459831   394A      3.463101  
     395A      3.468023   396A      3.476993   397A      3.479197  
     398A      3.488937   399A      3.494429   400A      3.503175  
     401A      3.507621   402A      3.512242   403A      3.523611  
     404A      3.527102   405A      3.538988   406A      3.544597  
     407A      3.546357   408A      3.547567   409A      3.562946  
     410A      3.568705   411A      3.579345   412A      3.589228  
     413A      3.591104   414A      3.597972   415A      3.607017  
     416A      3.621026   417A      3.623223   418A      3.627962  
     419A      3.641908   420A      3.654477   421A      3.659383  
     422A      3.668141   423A      3.678856   424A      3.684993  
     425A      3.693128   426A      3.704254   427A      3.726461  
     428A      3.748801   429A      3.753176   430A      3.772312  
     431A      3.783094   432A      3.784049   433A      3.790044  
     434A      3.795293   435A      3.814677   436A      3.822864  
     437A      3.833486   438A      3.845725   439A      3.862872  
     440A      3.873993   441A      3.878901   442A      3.889287  
     443A      3.893111   444A      3.913857   445A      3.926438  
     446A      3.932158   447A      3.940497   448A      3.955845  
     449A      3.958847   450A      3.968002   451A      3.973307  
     452A      3.988877   453A      3.997887   454A      4.006053  
     455A      4.013690   456A      4.029137   457A      4.048403  
     458A      4.053281   459A      4.060454   460A      4.073521  
     461A      4.088215   462A      4.121147   463A      4.134793  
     464A      4.141338   465A      4.177691   466A      4.184231  
     467A      4.188078   468A      4.195490   469A      4.204578  
     470A      4.222903   471A      4.226674   472A      4.244372  
     473A      4.247297   474A      4.264655   475A      4.271752  
     476A      4.277838   477A      4.289392   478A      4.294571  
     479A      4.316824   480A      4.321343   481A      4.333597  
     482A      4.341265   483A      4.352560   484A      4.353305  
     485A      4.362420   486A      4.368371   487A      4.373373  
     488A      4.383948   489A      4.398857   490A      4.402000  
     491A      4.417325   492A      4.427148   493A      4.438309  
     494A      4.445748   495A      4.447115   496A      4.454973  
     497A      4.463818   498A      4.469791   499A      4.478100  
     500A      4.499946   501A      4.502375   502A      4.507932  
     503A      4.511856   504A      4.517758   505A      4.529415  
     506A      4.545362   507A      4.553605   508A      4.570976  
     509A      4.581571   510A      4.602023   511A      4.606165  
     512A      4.618005   513A      4.626860   514A      4.636285  
     515A      4.644405   516A      4.654976   517A      4.664769  
     518A      4.670685   519A      4.682196   520A      4.697574  
     521A      4.706703   522A      4.736683   523A      4.744880  
     524A      4.745465   525A      4.771718   526A      4.791159  
     527A      4.807871   528A      4.820093   529A      4.837993  
     530A      4.851225   531A      4.867133   532A      4.875907  
     533A      4.894873   534A      4.897110   535A      4.905049  
     536A      4.934696   537A      4.944416   538A      4.960674  
     539A      4.994129   540A      5.007909   541A      5.015159  
     542A      5.025327   543A      5.043854   544A      5.067095  
     545A      5.082407   546A      5.100226   547A      5.109876  
     548A      5.118361   549A      5.130232   550A      5.154229  
     551A      5.159866   552A      5.182374   553A      5.189486  
     554A      5.202058   555A      5.241222   556A      5.262094  
     557A      5.277112   558A      5.282070   559A      5.290150  
     560A      5.295323   561A      5.299064   562A      5.308282  
     563A      5.329480   564A      5.352352   565A      5.366552  
     566A      5.376800   567A      5.378897   568A      5.399216  
     569A      5.410346   570A      5.421375   571A      5.432876  
     572A      5.437160   573A      5.444886   574A      5.459145  
     575A      5.480066   576A      5.526455   577A      5.532575  
     578A      5.567499   579A      5.581109   580A      5.602111  
     581A      5.613029   582A      5.626259   583A      5.647205  
     584A      5.668100   585A      5.674457   586A      5.702676  
     587A      5.721433   588A      5.727036   589A      5.757275  
     590A      5.760055   591A      5.765866   592A      5.773826  
     593A      5.792860   594A      5.813691   595A      5.853228  
     596A      5.857341   597A      5.880396   598A      5.889074  
     599A      5.910744   600A      5.928185   601A      5.939602  
     602A      5.945743   603A      5.967294   604A      5.968891  
     605A      5.979462   606A      5.989381   607A      6.028004  
     608A      6.120989   609A      6.137377   610A      6.140075  
     611A      6.263494   612A      6.279577   613A      6.330626  
     614A      6.426638   615A      6.488240   616A      6.507600  
     617A      6.514797   618A      6.525459   619A      6.535139  
     620A      6.578238   621A      6.596007   622A      6.624887  
     623A      6.650346   624A      6.719385   625A      6.807077  
     626A      6.992528   627A      7.261297   628A      7.302751  
     629A      7.313237   630A      7.449001   631A      7.645788  
     632A      7.735686   633A     12.390501   634A     12.635714  
     635A     13.865457   636A     13.983774   637A     14.331968  
     638A     14.473285   639A     14.566868   640A     14.619226  
     641A     14.658497   642A     15.408810  

    Final Occupation by Irrep:
              A 
    DOCC [    40 ]

  @DF-RHF Final Energy:  -426.28160863057713

   => Energetics <=

    Nuclear Repulsion Energy =            529.7906207944398602
    One-Electron Energy =               -1627.9814061347137795
    Two-Electron Energy =                 671.9091767096969079
    Total Energy =                       -426.2816086305771250

Computation Completed


Properties will be evaluated at   0.000000,   0.000000,   0.000000 [a0]

Properties computed using the SCF density matrix

  Nuclear Dipole Moment: [e a0]
     X:     3.8603      Y:     8.0685      Z:    -3.9068

  Electronic Dipole Moment: [e a0]
     X:    -4.0222      Y:    -7.7980      Z:     2.8196

  Dipole Moment: [e a0]
     X:    -0.1620      Y:     0.2705      Z:    -1.0872     Total:     1.1320

  Dipole Moment: [D]
     X:    -0.4117      Y:     0.6876      Z:    -2.7635     Total:     2.8774


*** tstop() called on r282 at Fri Sep 10 14:11:59 2021
Module time:
	user time   =     173.13 seconds =       2.89 minutes
	system time =       2.88 seconds =       0.05 minutes
	total time  =        176 seconds =       2.93 minutes
Total time:
	user time   =     173.13 seconds =       2.89 minutes
	system time =       2.88 seconds =       0.05 minutes
	total time  =        176 seconds =       2.93 minutes

  //>>>>>>>>>>>>>>>>>>>>>>>>>>>>>>>>>>>//
  //            Monomer A HF           //
  //<<<<<<<<<<<<<<<<<<<<<<<<<<<<<<<<<<<//


*** tstart() called on r282
*** at Fri Sep 10 14:11:59 2021

   => Loading Basis Set <=

    Name: JUN-CC-PVTZ
    Role: ORBITAL
    Keyword: BASIS
    atoms 1, 5, 7-9, 11-13, 19-28 entry H          line    36 file /home/r08543048/miniconda3/share/psi4/basis/jun-cc-pvtz.gbs 
    atoms 2-3, 6, 10, 14-18       entry C          line   217 file /home/r08543048/miniconda3/share/psi4/basis/jun-cc-pvtz.gbs 
    atoms 4                       entry O          line   305 file /home/r08543048/miniconda3/share/psi4/basis/jun-cc-pvtz.gbs 


         ---------------------------------------------------------
                                   SCF
               by Justin Turney, Rob Parrish, Andy Simmonett
                          and Daniel G. A. Smith
                              RHF Reference
                        1 Threads,  20980 MiB Core
         ---------------------------------------------------------

  ==> Geometry <==

    Molecular point group: c1
    Full point group: C1

    Geometry (in Angstrom), charge = 0, multiplicity = 1:

       Center              X                  Y                   Z               Mass       
    ------------   -----------------  -----------------  -----------------  -----------------
         H           -1.920387453619    -2.343835987473    -0.086449428423     1.007825032230
         C           -2.088513453619    -0.180661987473    -0.515726428423    12.000000000000
         C           -1.838275453619    -1.350109987473     0.390405571577    12.000000000000
         O           -1.552039453619    -1.258706987473     1.569645571577    15.994914619570
         H           -3.047897453619    -0.351258987473    -1.016810428423     1.007825032230
         C           -2.057751453619     1.169957012527     0.177540571577    12.000000000000
         H           -2.851027453619     1.205661012527     0.925965571577     1.007825032230
         H           -1.120431453619     1.268499012527     0.725564571577     1.007825032230
         H           -1.333898453619    -0.240013987473    -1.309548428423     1.007825032230
         C           -2.213652453619     2.314800012527    -0.814909428423    12.000000000000
         H           -1.404411453619     2.306974012527    -1.546981428423     1.007825032230
         H           -3.154402453619     2.235609012527    -1.361368428423     1.007825032230
         H           -2.199620453619     3.280764012527    -0.311592428423     1.007825032230
      Gh(C)           1.228437546381    -2.429348987473    -0.519364428423    12.000000000000
      Gh(C)           1.525270546381    -1.220274987473    -1.007718428423    12.000000000000
      Gh(C)           1.481551546381     0.045615012527    -0.214452428423    12.000000000000
      Gh(C)           2.873397546381     0.644606012527    -0.001731428423    12.000000000000
      Gh(C)           2.811765546381     1.959781012527     0.764436571577    12.000000000000
      Gh(H)           0.904484546381    -2.550419987473     0.507154571577     1.007825032230
      Gh(H)           1.308635546381    -3.317620987473    -1.131053428423     1.007825032230
      Gh(H)           1.855042546381    -1.137719987473    -2.040120428423     1.007825032230
      Gh(H)           0.865798546381     0.788039012527    -0.734267428423     1.007825032230
      Gh(H)           1.011370546381    -0.143172987473     0.754542571577     1.007825032230
      Gh(H)           3.488358546381    -0.078602987473     0.538021571577     1.007825032230
      Gh(H)           3.351371546381     0.799690012527    -0.972400428423     1.007825032230
      Gh(H)           2.217325546381     2.696045012527     0.221570571577     1.007825032230
      Gh(H)           2.350299546381     1.815125012527     1.741959571577     1.007825032230
      Gh(H)           3.805085546381     2.379395012527     0.920377571577     1.007825032230

  Running in c1 symmetry.

  Rotational constants: A =      0.03912  B =      0.02403  C =      0.01793 [cm^-1]
  Rotational constants: A =   1172.87110  B =    720.52123  C =    537.53964 [MHz]
  Nuclear repulsion =  172.405279649279777

  Charge       = 0
  Multiplicity = 1
  Electrons    = 40
  Nalpha       = 20
  Nbeta        = 20

  ==> Algorithm <==

  SCF Algorithm Type is DF.
  DIIS enabled.
  MOM disabled.
  Fractional occupation disabled.
  Guess Type is SAD.
  Energy threshold   = 1.00e-08
  Density threshold  = 1.00e-08
  Integral threshold = 0.00e+00

  ==> Primary Basis <==

  Basis Set: JUN-CC-PVTZ
    Blend: JUN-CC-PVTZ
    Number of shells: 238
    Number of basis function: 642
    Number of Cartesian functions: 720
    Spherical Harmonics?: true
    Max angular momentum: 3

   => Loading Basis Set <=

    Name: (JUN-CC-PVTZ AUX)
    Role: JKFIT
    Keyword: DF_BASIS_SCF
    atoms 1, 5, 7-9, 11-13, 19-28 entry H          line    70 file /home/r08543048/miniconda3/share/psi4/basis/jun-cc-pvtz-jkfit.gbs 
    atoms 2-3, 6, 10, 14-18       entry C          line   152 file /home/r08543048/miniconda3/share/psi4/basis/jun-cc-pvtz-jkfit.gbs 
    atoms 4                       entry O          line   272 file /home/r08543048/miniconda3/share/psi4/basis/jun-cc-pvtz-jkfit.gbs 

  ==> Pre-Iterations <==

   -------------------------------------------------------
    Irrep   Nso     Nmo     Nalpha   Nbeta   Ndocc  Nsocc
   -------------------------------------------------------
     A        642     642       0       0       0       0
   -------------------------------------------------------
    Total     642     642      20      20      20       0
   -------------------------------------------------------

  ==> Integral Setup <==

  ==> DiskDFJK: Density-Fitted J/K Matrices <==

    J tasked:                  Yes
    K tasked:                  Yes
    wK tasked:                  No
    OpenMP threads:              1
    Integrals threads:           1
    Memory [MiB]:            15735
    Algorithm:                Core
    Integral Cache:           LOAD
    Schwarz Cutoff:          1E-12
    Fitting Condition:       1E-10

   => Auxiliary Basis Set <=

  Basis Set: (JUN-CC-PVTZ AUX)
    Blend: JUN-CC-PVTZ-JKFIT
    Number of shells: 470
    Number of basis function: 1490
    Number of Cartesian functions: 1790
    Spherical Harmonics?: true
    Max angular momentum: 4

  Minimum eigenvalue in the overlap matrix is 2.2363932121E-05.
  Using Symmetric Orthogonalization.

  SCF Guess: Superposition of Atomic Densities via on-the-fly atomic UHF.

  ==> Iterations <==

                           Total Energy        Delta E     RMS |[F,P]|

   @DF-RHF iter SAD:  -230.24349985237495   -2.30243e+02   0.00000e+00 
   @DF-RHF iter   1:  -230.86142096991912   -6.17921e-01   9.60146e-04 DIIS
   @DF-RHF iter   2:  -231.01342002037546   -1.51999e-01   5.88793e-04 DIIS
   @DF-RHF iter   3:  -231.06769928139300   -5.42793e-02   1.15897e-04 DIIS
   @DF-RHF iter   4:  -231.07112895264393   -3.42967e-03   4.97126e-05 DIIS
   @DF-RHF iter   5:  -231.07178487755752   -6.55925e-04   8.70013e-06 DIIS
   @DF-RHF iter   6:  -231.07182485342381   -3.99759e-05   3.59308e-06 DIIS
   @DF-RHF iter   7:  -231.07183113432123   -6.28090e-06   1.57799e-06 DIIS
   @DF-RHF iter   8:  -231.07183245650666   -1.32219e-06   5.16135e-07 DIIS
   @DF-RHF iter   9:  -231.07183263475491   -1.78248e-07   9.62734e-08 DIIS
   @DF-RHF iter  10:  -231.07183264065662   -5.90171e-09   2.53511e-08 DIIS
   @DF-RHF iter  11:  -231.07183264092617   -2.69551e-10   7.56982e-09 DIIS
  Energy and wave function converged.


  ==> Post-Iterations <==

    Orbital Energies [Eh]
    ---------------------

    Doubly Occupied:                                                      

       1A    -20.557066     2A    -11.332521     3A    -11.242340  
       4A    -11.225839     5A    -11.218574     6A     -1.387357  
       7A     -1.083805     8A     -0.978276     9A     -0.849236  
      10A     -0.770952    11A     -0.673981    12A     -0.650570  
      13A     -0.633280    14A     -0.570659    15A     -0.568333  
      16A     -0.512913    17A     -0.502350    18A     -0.492132  
      19A     -0.480378    20A     -0.420777  

    Virtual:                                                              

      21A      0.027589    22A      0.039181    23A      0.044658  
      24A      0.052598    25A      0.060228    26A      0.064658  
      27A      0.067592    28A      0.072904    29A      0.076037  
      30A      0.088258    31A      0.094025    32A      0.098279  
      33A      0.099039    34A      0.107058    35A      0.111117  
      36A      0.114455    37A      0.122931    38A      0.126161  
      39A      0.128781    40A      0.133730    41A      0.138629  
      42A      0.139860    43A      0.149386    44A      0.151144  
      45A      0.154775    46A      0.158951    47A      0.165670  
      48A      0.170836    49A      0.177947    50A      0.178485  
      51A      0.184976    52A      0.185905    53A      0.193231  
      54A      0.196344    55A      0.204018    56A      0.214557  
      57A      0.226551    58A      0.236965    59A      0.244637  
      60A      0.251821    61A      0.263231    62A      0.265546  
      63A      0.268325    64A      0.276915    65A      0.287481  
      66A      0.291629    67A      0.299146    68A      0.299593  
      69A      0.304738    70A      0.311143    71A      0.313412  
      72A      0.316314    73A      0.322731    74A      0.330273  
      75A      0.334254    76A      0.336369    77A      0.341414  
      78A      0.345773    79A      0.349572    80A      0.352564  
      81A      0.365184    82A      0.367075    83A      0.371562  
      84A      0.375359    85A      0.380930    86A      0.388186  
      87A      0.391222    88A      0.399177    89A      0.403330  
      90A      0.407043    91A      0.410379    92A      0.418331  
      93A      0.422029    94A      0.429151    95A      0.436270  
      96A      0.438336    97A      0.440555    98A      0.447864  
      99A      0.452252   100A      0.461361   101A      0.470862  
     102A      0.474844   103A      0.482324   104A      0.488992  
     105A      0.497470   106A      0.502084   107A      0.510158  
     108A      0.522377   109A      0.524799   110A      0.527122  
     111A      0.536747   112A      0.540814   113A      0.546452  
     114A      0.558022   115A      0.561926   116A      0.565040  
     117A      0.567792   118A      0.573050   119A      0.579447  
     120A      0.584324   121A      0.590437   122A      0.599246  
     123A      0.605289   124A      0.612868   125A      0.622103  
     126A      0.626448   127A      0.635710   128A      0.642554  
     129A      0.651699   130A      0.654594   131A      0.663509  
     132A      0.663619   133A      0.669206   134A      0.671383  
     135A      0.678504   136A      0.686975   137A      0.689329  
     138A      0.702639   139A      0.704458   140A      0.719583  
     141A      0.720243   142A      0.723349   143A      0.735114  
     144A      0.742758   145A      0.752417   146A      0.754235  
     147A      0.766254   148A      0.780701   149A      0.792443  
     150A      0.796114   151A      0.805215   152A      0.825663  
     153A      0.835915   154A      0.841023   155A      0.842246  
     156A      0.856522   157A      0.858629   158A      0.866587  
     159A      0.877266   160A      0.886572   161A      0.892746  
     162A      0.901568   163A      0.905327   164A      0.921914  
     165A      0.931926   166A      0.940114   167A      0.954219  
     168A      0.962780   169A      0.976364   170A      1.002672  
     171A      1.014550   172A      1.023403   173A      1.031855  
     174A      1.057867   175A      1.060133   176A      1.077168  
     177A      1.085845   178A      1.101344   179A      1.114884  
     180A      1.119784   181A      1.121000   182A      1.138053  
     183A      1.141918   184A      1.154818   185A      1.157205  
     186A      1.169415   187A      1.185619   188A      1.188682  
     189A      1.192673   190A      1.206553   191A      1.212983  
     192A      1.224323   193A      1.227194   194A      1.239134  
     195A      1.243740   196A      1.249446   197A      1.263385  
     198A      1.266275   199A      1.273524   200A      1.283930  
     201A      1.288020   202A      1.300851   203A      1.305689  
     204A      1.311698   205A      1.322554   206A      1.332429  
     207A      1.335538   208A      1.342523   209A      1.350318  
     210A      1.365036   211A      1.371579   212A      1.376042  
     213A      1.381341   214A      1.386023   215A      1.387900  
     216A      1.402156   217A      1.405034   218A      1.409969  
     219A      1.423836   220A      1.428034   221A      1.435823  
     222A      1.438421   223A      1.443275   224A      1.455021  
     225A      1.460179   226A      1.473201   227A      1.479187  
     228A      1.489376   229A      1.495794   230A      1.504869  
     231A      1.512779   232A      1.519288   233A      1.537168  
     234A      1.541033   235A      1.549863   236A      1.553286  
     237A      1.559681   238A      1.565952   239A      1.571178  
     240A      1.576314   241A      1.582044   242A      1.590627  
     243A      1.593612   244A      1.601783   245A      1.605807  
     246A      1.619346   247A      1.631090   248A      1.635854  
     249A      1.636493   250A      1.643628   251A      1.654779  
     252A      1.662892   253A      1.666756   254A      1.680396  
     255A      1.691325   256A      1.702984   257A      1.709946  
     258A      1.720691   259A      1.727625   260A      1.742856  
     261A      1.754124   262A      1.761314   263A      1.765142  
     264A      1.788067   265A      1.805161   266A      1.809877  
     267A      1.825485   268A      1.834954   269A      1.850076  
     270A      1.860067   271A      1.882367   272A      1.888532  
     273A      1.896832   274A      1.899865   275A      1.919744  
     276A      1.929437   277A      1.942899   278A      1.961188  
     279A      1.961682   280A      1.978785   281A      2.003358  
     282A      2.025421   283A      2.034436   284A      2.046038  
     285A      2.063167   286A      2.071194   287A      2.099689  
     288A      2.130476   289A      2.139334   290A      2.178397  
     291A      2.206154   292A      2.232336   293A      2.254128  
     294A      2.264722   295A      2.295531   296A      2.333349  
     297A      2.340136   298A      2.365680   299A      2.391435  
     300A      2.406255   301A      2.417366   302A      2.430370  
     303A      2.466279   304A      2.483794   305A      2.498548  
     306A      2.502141   307A      2.545929   308A      2.567342  
     309A      2.591869   310A      2.601806   311A      2.665292  
     312A      2.701802   313A      2.742667   314A      2.747499  
     315A      2.767361   316A      2.782255   317A      2.817749  
     318A      2.857744   319A      2.891022   320A      2.899795  
     321A      2.906143   322A      2.933153   323A      2.948274  
     324A      2.964047   325A      3.003133   326A      3.015721  
     327A      3.040341   328A      3.068744   329A      3.080303  
     330A      3.118458   331A      3.122152   332A      3.136857  
     333A      3.147343   334A      3.165840   335A      3.196087  
     336A      3.226314   337A      3.276081   338A      3.291965  
     339A      3.307686   340A      3.321742   341A      3.336877  
     342A      3.352098   343A      3.368846   344A      3.393833  
     345A      3.411211   346A      3.438111   347A      3.445611  
     348A      3.453915   349A      3.461841   350A      3.477837  
     351A      3.484685   352A      3.494361   353A      3.512437  
     354A      3.519607   355A      3.523722   356A      3.534698  
     357A      3.538336   358A      3.549980   359A      3.554683  
     360A      3.571293   361A      3.578879   362A      3.583737  
     363A      3.588406   364A      3.601272   365A      3.602343  
     366A      3.608213   367A      3.625955   368A      3.630737  
     369A      3.636464   370A      3.651531   371A      3.660788  
     372A      3.676011   373A      3.688284   374A      3.700528  
     375A      3.708768   376A      3.725561   377A      3.747192  
     378A      3.748702   379A      3.753568   380A      3.772374  
     381A      3.776565   382A      3.791960   383A      3.793044  
     384A      3.796798   385A      3.810903   386A      3.824576  
     387A      3.835878   388A      3.843372   389A      3.851559  
     390A      3.861694   391A      3.873421   392A      3.882648  
     393A      3.888447   394A      3.891534   395A      3.905573  
     396A      3.915377   397A      3.926591   398A      3.934645  
     399A      3.944749   400A      3.958099   401A      3.963558  
     402A      3.973533   403A      3.983238   404A      4.003398  
     405A      4.005214   406A      4.027434   407A      4.031080  
     408A      4.038136   409A      4.055361   410A      4.069991  
     411A      4.095981   412A      4.102946   413A      4.117455  
     414A      4.128543   415A      4.136707   416A      4.158862  
     417A      4.177281   418A      4.185763   419A      4.195862  
     420A      4.209084   421A      4.212217   422A      4.216849  
     423A      4.221642   424A      4.226035   425A      4.238809  
     426A      4.252128   427A      4.262747   428A      4.273256  
     429A      4.283677   430A      4.305398   431A      4.309566  
     432A      4.320578   433A      4.326260   434A      4.340381  
     435A      4.352869   436A      4.360105   437A      4.365098  
     438A      4.385594   439A      4.391745   440A      4.410600  
     441A      4.419350   442A      4.435281   443A      4.440006  
     444A      4.449707   445A      4.463767   446A      4.467421  
     447A      4.491422   448A      4.493576   449A      4.500704  
     450A      4.509303   451A      4.517980   452A      4.522727  
     453A      4.534345   454A      4.539400   455A      4.543378  
     456A      4.551325   457A      4.562991   458A      4.574748  
     459A      4.593669   460A      4.598739   461A      4.609230  
     462A      4.610473   463A      4.630935   464A      4.637177  
     465A      4.642676   466A      4.655240   467A      4.664260  
     468A      4.670338   469A      4.680052   470A      4.693750  
     471A      4.701464   472A      4.703701   473A      4.714011  
     474A      4.721349   475A      4.739123   476A      4.748490  
     477A      4.757028   478A      4.770389   479A      4.779810  
     480A      4.781600   481A      4.796540   482A      4.810608  
     483A      4.816269   484A      4.829741   485A      4.841949  
     486A      4.850781   487A      4.855434   488A      4.862957  
     489A      4.871458   490A      4.872440   491A      4.880111  
     492A      4.887676   493A      4.896449   494A      4.909132  
     495A      4.917175   496A      4.924613   497A      4.943725  
     498A      4.956307   499A      4.963429   500A      4.976846  
     501A      4.981675   502A      4.987479   503A      5.000039  
     504A      5.011643   505A      5.018884   506A      5.033360  
     507A      5.047022   508A      5.051025   509A      5.064221  
     510A      5.076073   511A      5.088407   512A      5.104214  
     513A      5.107313   514A      5.120696   515A      5.127747  
     516A      5.142426   517A      5.153012   518A      5.158341  
     519A      5.175148   520A      5.188609   521A      5.206189  
     522A      5.227193   523A      5.249942   524A      5.257615  
     525A      5.285613   526A      5.291771   527A      5.298868  
     528A      5.306034   529A      5.327046   530A      5.343275  
     531A      5.350437   532A      5.371349   533A      5.376426  
     534A      5.393885   535A      5.406840   536A      5.412936  
     537A      5.436742   538A      5.439657   539A      5.459720  
     540A      5.472759   541A      5.491460   542A      5.522250  
     543A      5.555639   544A      5.575418   545A      5.590384  
     546A      5.599459   547A      5.622867   548A      5.639371  
     549A      5.663862   550A      5.671755   551A      5.679012  
     552A      5.697060   553A      5.705458   554A      5.725514  
     555A      5.735582   556A      5.757391   557A      5.762994  
     558A      5.788516   559A      5.811639   560A      5.848479  
     561A      5.857396   562A      5.864300   563A      5.889328  
     564A      5.908449   565A      5.940408   566A      5.949115  
     567A      5.972362   568A      5.982137   569A      5.996815  
     570A      6.021765   571A      6.042209   572A      6.059501  
     573A      6.080028   574A      6.110669   575A      6.119426  
     576A      6.137068   577A      6.206605   578A      6.248642  
     579A      6.261088   580A      6.279793   581A      6.319683  
     582A      6.325652   583A      6.356332   584A      6.391038  
     585A      6.417765   586A      6.438543   587A      6.453230  
     588A      6.511258   589A      6.525271   590A      6.532016  
     591A      6.589113   592A      6.622010   593A      6.672469  
     594A      6.694852   595A      6.749931   596A      6.787148  
     597A      6.803394   598A      6.828350   599A      6.937794  
     600A      6.987583   601A      7.017554   602A      7.122428  
     603A      7.256833   604A      7.298847   605A      7.308011  
     606A      7.365615   607A      7.424227   608A      7.446153  
     609A      7.482359   610A      7.537933   611A      7.569446  
     612A      7.642125   613A      7.659685   614A      7.684982  
     615A      7.715870   616A      7.730071   617A      7.745129  
     618A      7.822792   619A      7.882849   620A      7.911939  
     621A      7.986449   622A      8.054203   623A      8.158644  
     624A      8.322168   625A      8.360585   626A      8.701727  
     627A      8.866086   628A      9.445466   629A      9.651611  
     630A      9.833414   631A      9.901528   632A     10.226025  
     633A     12.647059   634A     13.979674   635A     14.331913  
     636A     14.512248   637A     14.597484   638A     41.235664  
     639A     44.229784   640A     45.575666   641A     46.160867  
     642A     47.282063  

    Final Occupation by Irrep:
              A 
    DOCC [    20 ]

  @DF-RHF Final Energy:  -231.07183264092617

   => Energetics <=

    Nuclear Repulsion Energy =            172.4052796492797768
    One-Electron Energy =                -654.6515414904223462
    Two-Electron Energy =                 251.1744292002163661
    Total Energy =                       -231.0718326409261749

Computation Completed


Properties will be evaluated at   0.000000,   0.000000,   0.000000 [a0]

Properties computed using the SCF density matrix

  Nuclear Dipole Moment: [e a0]
     X:  -148.6034      Y:    17.0390      Z:     7.5585

  Electronic Dipole Moment: [e a0]
     X:   148.3119      Y:   -16.8681      Z:    -8.7306

  Dipole Moment: [e a0]
     X:    -0.2915      Y:     0.1709      Z:    -1.1721     Total:     1.2198

  Dipole Moment: [D]
     X:    -0.7409      Y:     0.4343      Z:    -2.9792     Total:     3.1005


*** tstop() called on r282 at Fri Sep 10 14:13:40 2021
Module time:
	user time   =      99.38 seconds =       1.66 minutes
	system time =       1.27 seconds =       0.02 minutes
	total time  =        101 seconds =       1.68 minutes
Total time:
	user time   =     272.52 seconds =       4.54 minutes
	system time =       4.15 seconds =       0.07 minutes
	total time  =        277 seconds =       4.62 minutes

  //>>>>>>>>>>>>>>>>>>>>>>>>>>>>>>>>>>>//
  //            Monomer B HF           //
  //<<<<<<<<<<<<<<<<<<<<<<<<<<<<<<<<<<<//


*** tstart() called on r282
*** at Fri Sep 10 14:13:40 2021

   => Loading Basis Set <=

    Name: JUN-CC-PVTZ
    Role: ORBITAL
    Keyword: BASIS
    atoms 1, 5, 7-9, 11-13, 19-28 entry H          line    36 file /home/r08543048/miniconda3/share/psi4/basis/jun-cc-pvtz.gbs 
    atoms 2-3, 6, 10, 14-18       entry C          line   217 file /home/r08543048/miniconda3/share/psi4/basis/jun-cc-pvtz.gbs 
    atoms 4                       entry O          line   305 file /home/r08543048/miniconda3/share/psi4/basis/jun-cc-pvtz.gbs 


         ---------------------------------------------------------
                                   SCF
               by Justin Turney, Rob Parrish, Andy Simmonett
                          and Daniel G. A. Smith
                              RHF Reference
                        1 Threads,  20980 MiB Core
         ---------------------------------------------------------

  ==> Geometry <==

    Molecular point group: c1
    Full point group: C1

    Geometry (in Angstrom), charge = 0, multiplicity = 1:

       Center              X                  Y                   Z               Mass       
    ------------   -----------------  -----------------  -----------------  -----------------
      Gh(H)          -1.920387453619    -2.343835987473    -0.086449428423     1.007825032230
      Gh(C)          -2.088513453619    -0.180661987473    -0.515726428423    12.000000000000
      Gh(C)          -1.838275453619    -1.350109987473     0.390405571577    12.000000000000
      Gh(O)          -1.552039453619    -1.258706987473     1.569645571577    15.994914619570
      Gh(H)          -3.047897453619    -0.351258987473    -1.016810428423     1.007825032230
      Gh(C)          -2.057751453619     1.169957012527     0.177540571577    12.000000000000
      Gh(H)          -2.851027453619     1.205661012527     0.925965571577     1.007825032230
      Gh(H)          -1.120431453619     1.268499012527     0.725564571577     1.007825032230
      Gh(H)          -1.333898453619    -0.240013987473    -1.309548428423     1.007825032230
      Gh(C)          -2.213652453619     2.314800012527    -0.814909428423    12.000000000000
      Gh(H)          -1.404411453619     2.306974012527    -1.546981428423     1.007825032230
      Gh(H)          -3.154402453619     2.235609012527    -1.361368428423     1.007825032230
      Gh(H)          -2.199620453619     3.280764012527    -0.311592428423     1.007825032230
         C            1.228437546381    -2.429348987473    -0.519364428423    12.000000000000
         C            1.525270546381    -1.220274987473    -1.007718428423    12.000000000000
         C            1.481551546381     0.045615012527    -0.214452428423    12.000000000000
         C            2.873397546381     0.644606012527    -0.001731428423    12.000000000000
         C            2.811765546381     1.959781012527     0.764436571577    12.000000000000
         H            0.904484546381    -2.550419987473     0.507154571577     1.007825032230
         H            1.308635546381    -3.317620987473    -1.131053428423     1.007825032230
         H            1.855042546381    -1.137719987473    -2.040120428423     1.007825032230
         H            0.865798546381     0.788039012527    -0.734267428423     1.007825032230
         H            1.011370546381    -0.143172987473     0.754542571577     1.007825032230
         H            3.488358546381    -0.078602987473     0.538021571577     1.007825032230
         H            3.351371546381     0.799690012527    -0.972400428423     1.007825032230
         H            2.217325546381     2.696045012527     0.221570571577     1.007825032230
         H            2.350299546381     1.815125012527     1.741959571577     1.007825032230
         H            3.805085546381     2.379395012527     0.920377571577     1.007825032230

  Running in c1 symmetry.

  Rotational constants: A =      0.03912  B =      0.02403  C =      0.01793 [cm^-1]
  Rotational constants: A =   1172.87110  B =    720.52123  C =    537.53964 [MHz]
  Nuclear repulsion =  170.649291790236788

  Charge       = 0
  Multiplicity = 1
  Electrons    = 40
  Nalpha       = 20
  Nbeta        = 20

  ==> Algorithm <==

  SCF Algorithm Type is DF.
  DIIS enabled.
  MOM disabled.
  Fractional occupation disabled.
  Guess Type is SAD.
  Energy threshold   = 1.00e-08
  Density threshold  = 1.00e-08
  Integral threshold = 0.00e+00

  ==> Primary Basis <==

  Basis Set: JUN-CC-PVTZ
    Blend: JUN-CC-PVTZ
    Number of shells: 238
    Number of basis function: 642
    Number of Cartesian functions: 720
    Spherical Harmonics?: true
    Max angular momentum: 3

   => Loading Basis Set <=

    Name: (JUN-CC-PVTZ AUX)
    Role: JKFIT
    Keyword: DF_BASIS_SCF
    atoms 1, 5, 7-9, 11-13, 19-28 entry H          line    70 file /home/r08543048/miniconda3/share/psi4/basis/jun-cc-pvtz-jkfit.gbs 
    atoms 2-3, 6, 10, 14-18       entry C          line   152 file /home/r08543048/miniconda3/share/psi4/basis/jun-cc-pvtz-jkfit.gbs 
    atoms 4                       entry O          line   272 file /home/r08543048/miniconda3/share/psi4/basis/jun-cc-pvtz-jkfit.gbs 

  ==> Pre-Iterations <==

   -------------------------------------------------------
    Irrep   Nso     Nmo     Nalpha   Nbeta   Ndocc  Nsocc
   -------------------------------------------------------
     A        642     642       0       0       0       0
   -------------------------------------------------------
    Total     642     642      20      20      20       0
   -------------------------------------------------------

  ==> Integral Setup <==

  ==> DiskDFJK: Density-Fitted J/K Matrices <==

    J tasked:                  Yes
    K tasked:                  Yes
    wK tasked:                  No
    OpenMP threads:              1
    Integrals threads:           1
    Memory [MiB]:            15735
    Algorithm:                Core
    Integral Cache:           LOAD
    Schwarz Cutoff:          1E-12
    Fitting Condition:       1E-10

   => Auxiliary Basis Set <=

  Basis Set: (JUN-CC-PVTZ AUX)
    Blend: JUN-CC-PVTZ-JKFIT
    Number of shells: 470
    Number of basis function: 1490
    Number of Cartesian functions: 1790
    Spherical Harmonics?: true
    Max angular momentum: 4

  Minimum eigenvalue in the overlap matrix is 2.2363932121E-05.
  Using Symmetric Orthogonalization.

  SCF Guess: Superposition of Atomic Densities via on-the-fly atomic UHF.

  ==> Iterations <==

                           Total Energy        Delta E     RMS |[F,P]|

   @DF-RHF iter SAD:  -194.45235651479189   -1.94452e+02   0.00000e+00 
   @DF-RHF iter   1:  -194.99847697242870   -5.46120e-01   9.09103e-04 DIIS
   @DF-RHF iter   2:  -195.17498486675589   -1.76508e-01   4.00257e-04 DIIS
   @DF-RHF iter   3:  -195.20964498680249   -3.46601e-02   7.70043e-05 DIIS
   @DF-RHF iter   4:  -195.21198641173351   -2.34142e-03   2.57537e-05 DIIS
   @DF-RHF iter   5:  -195.21215543929694   -1.69028e-04   5.33316e-06 DIIS
   @DF-RHF iter   6:  -195.21216588535427   -1.04461e-05   1.24490e-06 DIIS
   @DF-RHF iter   7:  -195.21216639242894   -5.07075e-07   3.34545e-07 DIIS
   @DF-RHF iter   8:  -195.21216643394172   -4.15128e-08   7.26486e-08 DIIS
   @DF-RHF iter   9:  -195.21216643661504   -2.67332e-09   2.24426e-08 DIIS
   @DF-RHF iter  10:  -195.21216643691722   -3.02180e-10   7.71021e-09 DIIS
  Energy and wave function converged.


  ==> Post-Iterations <==

    Orbital Energies [Eh]
    ---------------------

    Doubly Occupied:                                                      

       1A    -11.230963     2A    -11.222033     3A    -11.219415  
       4A    -11.217424     5A    -11.211458     6A     -1.089578  
       7A     -1.021790     8A     -0.922186     9A     -0.812161  
      10A     -0.756143    11A     -0.652036    12A     -0.616754  
      13A     -0.588545    14A     -0.566720    15A     -0.537630  
      16A     -0.511099    17A     -0.483970    18A     -0.472195  
      19A     -0.470641    20A     -0.355779  

    Virtual:                                                              

      21A      0.030689    22A      0.043218    23A      0.049501  
      24A      0.050833    25A      0.063928    26A      0.066681  
      27A      0.070670    28A      0.072771    29A      0.075310  
      30A      0.090492    31A      0.093687    32A      0.104046  
      33A      0.107127    34A      0.107755    35A      0.111047  
      36A      0.113750    37A      0.118495    38A      0.129133  
      39A      0.131016    40A      0.134671    41A      0.140777  
      42A      0.144804    43A      0.149521    44A      0.155754  
      45A      0.165682    46A      0.167608    47A      0.169773  
      48A      0.173198    49A      0.175721    50A      0.179983  
      51A      0.187335    52A      0.188934    53A      0.204177  
      54A      0.207005    55A      0.210843    56A      0.215801  
      57A      0.224311    58A      0.230632    59A      0.237138  
      60A      0.240696    61A      0.255977    62A      0.263529  
      63A      0.269112    64A      0.272987    65A      0.288469  
      66A      0.290815    67A      0.296095    68A      0.301544  
      69A      0.305796    70A      0.318416    71A      0.321471  
      72A      0.325930    73A      0.330572    74A      0.337602  
      75A      0.339365    76A      0.342145    77A      0.343785  
      78A      0.353943    79A      0.355310    80A      0.361409  
      81A      0.364212    82A      0.370021    83A      0.373799  
      84A      0.376171    85A      0.384302    86A      0.387914  
      87A      0.389630    88A      0.393878    89A      0.401016  
      90A      0.404792    91A      0.414879    92A      0.415616  
      93A      0.425143    94A      0.432336    95A      0.433560  
      96A      0.437368    97A      0.444092    98A      0.452776  
      99A      0.458997   100A      0.467513   101A      0.469084  
     102A      0.474599   103A      0.483242   104A      0.487829  
     105A      0.495127   106A      0.507504   107A      0.510953  
     108A      0.517315   109A      0.524634   110A      0.531778  
     111A      0.536054   112A      0.539804   113A      0.544058  
     114A      0.548750   115A      0.555828   116A      0.558515  
     117A      0.565959   118A      0.576119   119A      0.577410  
     120A      0.586732   121A      0.587410   122A      0.606111  
     123A      0.616555   124A      0.617220   125A      0.620070  
     126A      0.627986   127A      0.634911   128A      0.638625  
     129A      0.644650   130A      0.659320   131A      0.664250  
     132A      0.671762   133A      0.672736   134A      0.679849  
     135A      0.690097   136A      0.692597   137A      0.705589  
     138A      0.711871   139A      0.721568   140A      0.725913  
     141A      0.730925   142A      0.741041   143A      0.744375  
     144A      0.757250   145A      0.765632   146A      0.775930  
     147A      0.788043   148A      0.794519   149A      0.798115  
     150A      0.807279   151A      0.818777   152A      0.827827  
     153A      0.836381   154A      0.844677   155A      0.847654  
     156A      0.852077   157A      0.858174   158A      0.871984  
     159A      0.880357   160A      0.890522   161A      0.905584  
     162A      0.911119   163A      0.917476   164A      0.922350  
     165A      0.938251   166A      0.950124   167A      0.965429  
     168A      0.970134   169A      0.979066   170A      0.991551  
     171A      0.994991   172A      1.001101   173A      1.016196  
     174A      1.026065   175A      1.031767   176A      1.039374  
     177A      1.059391   178A      1.069632   179A      1.082783  
     180A      1.085249   181A      1.092533   182A      1.111273  
     183A      1.115806   184A      1.125493   185A      1.127824  
     186A      1.136037   187A      1.145028   188A      1.156395  
     189A      1.166800   190A      1.175412   191A      1.182594  
     192A      1.192871   193A      1.207060   194A      1.217129  
     195A      1.224345   196A      1.231212   197A      1.243178  
     198A      1.248134   199A      1.257903   200A      1.269817  
     201A      1.274174   202A      1.282757   203A      1.286012  
     204A      1.291332   205A      1.304952   206A      1.315168  
     207A      1.319610   208A      1.327728   209A      1.341570  
     210A      1.353306   211A      1.359821   212A      1.367174  
     213A      1.376501   214A      1.377100   215A      1.387924  
     216A      1.392080   217A      1.396370   218A      1.408486  
     219A      1.413274   220A      1.421381   221A      1.425621  
     222A      1.428609   223A      1.446457   224A      1.451601  
     225A      1.465691   226A      1.472644   227A      1.480394  
     228A      1.485037   229A      1.489318   230A      1.496056  
     231A      1.504827   232A      1.515723   233A      1.521889  
     234A      1.536637   235A      1.547230   236A      1.549606  
     237A      1.557560   238A      1.575414   239A      1.580978  
     240A      1.585822   241A      1.594708   242A      1.601496  
     243A      1.604551   244A      1.616440   245A      1.623007  
     246A      1.633775   247A      1.636338   248A      1.641793  
     249A      1.657516   250A      1.658782   251A      1.670036  
     252A      1.674471   253A      1.681117   254A      1.688246  
     255A      1.696026   256A      1.711111   257A      1.727303  
     258A      1.731522   259A      1.744073   260A      1.752191  
     261A      1.769003   262A      1.784257   263A      1.790463  
     264A      1.806725   265A      1.816485   266A      1.821104  
     267A      1.826080   268A      1.834959   269A      1.854594  
     270A      1.879700   271A      1.898304   272A      1.902733  
     273A      1.924530   274A      1.936888   275A      1.940028  
     276A      1.947938   277A      1.963403   278A      1.977094  
     279A      1.983557   280A      1.994516   281A      2.014353  
     282A      2.022352   283A      2.034896   284A      2.068238  
     285A      2.072550   286A      2.086291   287A      2.125932  
     288A      2.142998   289A      2.163939   290A      2.184071  
     291A      2.185282   292A      2.220669   293A      2.239989  
     294A      2.277483   295A      2.304454   296A      2.326930  
     297A      2.336832   298A      2.403334   299A      2.453759  
     300A      2.456044   301A      2.465028   302A      2.514413  
     303A      2.612182   304A      2.646482   305A      2.672365  
     306A      2.685276   307A      2.714068   308A      2.750594  
     309A      2.775677   310A      2.792162   311A      2.819620  
     312A      2.822526   313A      2.833336   314A      2.850257  
     315A      2.860132   316A      2.863027   317A      2.883332  
     318A      2.888495   319A      2.901217   320A      2.911445  
     321A      2.940118   322A      2.950273   323A      2.966371  
     324A      2.996548   325A      3.010518   326A      3.025232  
     327A      3.039002   328A      3.046584   329A      3.084850  
     330A      3.101842   331A      3.110159   332A      3.121809  
     333A      3.139183   334A      3.142866   335A      3.164374  
     336A      3.176469   337A      3.197269   338A      3.218046  
     339A      3.223508   340A      3.230794   341A      3.235395  
     342A      3.248315   343A      3.252110   344A      3.273388  
     345A      3.294664   346A      3.308884   347A      3.317494  
     348A      3.335754   349A      3.360089   350A      3.377641  
     351A      3.389097   352A      3.405717   353A      3.410678  
     354A      3.420466   355A      3.434982   356A      3.454888  
     357A      3.476864   358A      3.480433   359A      3.489541  
     360A      3.500986   361A      3.507824   362A      3.513383  
     363A      3.523233   364A      3.536166   365A      3.542318  
     366A      3.554511   367A      3.558190   368A      3.572691  
     369A      3.579684   370A      3.587440   371A      3.593302  
     372A      3.596070   373A      3.606621   374A      3.614987  
     375A      3.627065   376A      3.636261   377A      3.641250  
     378A      3.647886   379A      3.650106   380A      3.675853  
     381A      3.685961   382A      3.697401   383A      3.706470  
     384A      3.720123   385A      3.756122   386A      3.765175  
     387A      3.768065   388A      3.789240   389A      3.802350  
     390A      3.807836   391A      3.816935   392A      3.822098  
     393A      3.834452   394A      3.854335   395A      3.860632  
     396A      3.868880   397A      3.879402   398A      3.881926  
     399A      3.892550   400A      3.898726   401A      3.901885  
     402A      3.908266   403A      3.914603   404A      3.922386  
     405A      3.938009   406A      3.952447   407A      3.958727  
     408A      3.970216   409A      3.979466   410A      3.988800  
     411A      4.002715   412A      4.018748   413A      4.021375  
     414A      4.031951   415A      4.043140   416A      4.054241  
     417A      4.064725   418A      4.089754   419A      4.099116  
     420A      4.112785   421A      4.126293   422A      4.140140  
     423A      4.173865   424A      4.185899   425A      4.189072  
     426A      4.203651   427A      4.208202   428A      4.219829  
     429A      4.222841   430A      4.243242   431A      4.251061  
     432A      4.273330   433A      4.280818   434A      4.292161  
     435A      4.319183   436A      4.324847   437A      4.336115  
     438A      4.345043   439A      4.356464   440A      4.365773  
     441A      4.382264   442A      4.391094   443A      4.400627  
     444A      4.413242   445A      4.417751   446A      4.424882  
     447A      4.441932   448A      4.448413   449A      4.457850  
     450A      4.460342   451A      4.472491   452A      4.493558  
     453A      4.495917   454A      4.502800   455A      4.505489  
     456A      4.511309   457A      4.513649   458A      4.523620  
     459A      4.541233   460A      4.549616   461A      4.553727  
     462A      4.566694   463A      4.574379   464A      4.576786  
     465A      4.595564   466A      4.602597   467A      4.618940  
     468A      4.623627   469A      4.630570   470A      4.640353  
     471A      4.651022   472A      4.655211   473A      4.667424  
     474A      4.670808   475A      4.687386   476A      4.695760  
     477A      4.711681   478A      4.721305   479A      4.728968  
     480A      4.747808   481A      4.749912   482A      4.761995  
     483A      4.765135   484A      4.772383   485A      4.777338  
     486A      4.789743   487A      4.796776   488A      4.811511  
     489A      4.816772   490A      4.834021   491A      4.848772  
     492A      4.863946   493A      4.865104   494A      4.875862  
     495A      4.884185   496A      4.899099   497A      4.901040  
     498A      4.904629   499A      4.916057   500A      4.926720  
     501A      4.935292   502A      4.952946   503A      4.960767  
     504A      4.979564   505A      4.992486   506A      5.000320  
     507A      5.006983   508A      5.010183   509A      5.021096  
     510A      5.032602   511A      5.039268   512A      5.045610  
     513A      5.068641   514A      5.078617   515A      5.086721  
     516A      5.089083   517A      5.113360   518A      5.136814  
     519A      5.139648   520A      5.156589   521A      5.166227  
     522A      5.181061   523A      5.196260   524A      5.207384  
     525A      5.236272   526A      5.240692   527A      5.259638  
     528A      5.269880   529A      5.285093   530A      5.295952  
     531A      5.305859   532A      5.338831   533A      5.360903  
     534A      5.363719   535A      5.372406   536A      5.394606  
     537A      5.405142   538A      5.421821   539A      5.443509  
     540A      5.452872   541A      5.459193   542A      5.470338  
     543A      5.483521   544A      5.525840   545A      5.543913  
     546A      5.571225   547A      5.592620   548A      5.613505  
     549A      5.625469   550A      5.646131   551A      5.657291  
     552A      5.661567   553A      5.695912   554A      5.725864  
     555A      5.736120   556A      5.759901   557A      5.772924  
     558A      5.792479   559A      5.808183   560A      5.814952  
     561A      5.855878   562A      5.869117   563A      5.888209  
     564A      5.899554   565A      5.927927   566A      5.941281  
     567A      5.964847   568A      5.969821   569A      6.016837  
     570A      6.028619   571A      6.049012   572A      6.061575  
     573A      6.136436   574A      6.146758   575A      6.180553  
     576A      6.242164   577A      6.261023   578A      6.279729  
     579A      6.307807   580A      6.357281   581A      6.397765  
     582A      6.426158   583A      6.436845   584A      6.470359  
     585A      6.493608   586A      6.509211   587A      6.512457  
     588A      6.521982   589A      6.527808   590A      6.541110  
     591A      6.582077   592A      6.644660   593A      6.650975  
     594A      6.663209   595A      6.690751   596A      6.722994  
     597A      6.796856   598A      6.909831   599A      6.984400  
     600A      7.017768   601A      7.034694   602A      7.314604  
     603A      7.346819   604A      7.542425   605A      7.562511  
     606A      7.652324   607A      7.666129   608A      7.703988  
     609A      7.719415   610A      7.808901   611A      7.837844  
     612A      7.882218   613A      7.924446   614A      8.124778  
     615A      8.235832   616A      8.288951   617A      8.400713  
     618A      8.532674   619A      8.676127   620A      9.510414  
     621A      9.526552   622A      9.670394   623A      9.753914  
     624A      9.844948   625A      9.880008   626A      9.919889  
     627A      9.943585   628A     10.100493   629A     11.043280  
     630A     11.719912   631A     12.001087   632A     12.404716  
     633A     13.764707   634A     13.887450   635A     14.556477  
     636A     14.635593   637A     15.394884   638A     43.994041  
     639A     44.485127   640A     45.617338   641A     45.786006  
     642A     61.019396  

    Final Occupation by Irrep:
              A 
    DOCC [    20 ]

  @DF-RHF Final Energy:  -195.21216643691722

   => Energetics <=

    Nuclear Repulsion Energy =            170.6492917902367878
    One-Electron Energy =                -599.8058792137828732
    Two-Electron Energy =                 233.9444209866288418
    Total Energy =                       -195.2121664369172152

Computation Completed


Properties will be evaluated at   0.000000,   0.000000,   0.000000 [a0]

Properties computed using the SCF density matrix

  Nuclear Dipole Moment: [e a0]
     X:   152.4637      Y:    -8.9705      Z:   -11.4653

  Electronic Dipole Moment: [e a0]
     X:  -152.3929      Y:     9.1343      Z:    11.4778

  Dipole Moment: [e a0]
     X:     0.0708      Y:     0.1638      Z:     0.0124     Total:     0.1789

  Dipole Moment: [D]
     X:     0.1800      Y:     0.4164      Z:     0.0316     Total:     0.4547


*** tstop() called on r282 at Fri Sep 10 14:15:11 2021
Module time:
	user time   =      89.53 seconds =       1.49 minutes
	system time =       1.26 seconds =       0.02 minutes
	total time  =         91 seconds =       1.52 minutes
Total time:
	user time   =     362.05 seconds =       6.03 minutes
	system time =       5.41 seconds =       0.09 minutes
	total time  =        368 seconds =       6.13 minutes
  Constructing Basis Sets for SAPT...

   => Loading Basis Set <=

    Name: (JUN-CC-PVTZ AUX)
    Role: RIFIT
    Keyword: DF_BASIS_SAPT
    atoms 1, 5, 7-9, 11-13, 19-28 entry H          line    30 file /home/r08543048/miniconda3/share/psi4/basis/jun-cc-pvtz-ri.gbs 
    atoms 2-3, 6, 10, 14-18       entry C          line   132 file /home/r08543048/miniconda3/share/psi4/basis/jun-cc-pvtz-ri.gbs 
    atoms 4                       entry O          line   244 file /home/r08543048/miniconda3/share/psi4/basis/jun-cc-pvtz-ri.gbs 


  //>>>>>>>>>>>>>>>>>>>>>>>>>>>>>>>>>>>//
  //               SAPT0               //
  //<<<<<<<<<<<<<<<<<<<<<<<<<<<<<<<<<<<//


*** tstart() called on r282
*** at Fri Sep 10 14:15:11 2021

        SAPT0  
    Ed Hohenstein
     6 June 2009

      Orbital Information
  --------------------------
    NSO        =       642
    NMO        =       642
    NRI        =      1510
    NOCC A     =        20
    NOCC B     =        20
    FOCC A     =         0
    FOCC B     =         0
    NVIR A     =       622
    NVIR B     =       622

    Elst10,r            =    -0.005106296058 [Eh]
    Exch10              =     0.008749852443 [Eh]
    Exch10 (S^2)        =     0.008727564256 [Eh]

    Iter     Energy [mEh]          dE [mEh]         Residual      Time [s]
       1      -0.51660771       0.516607706       3.985087225             3
       2      -0.57483869       0.058230986       1.893161928             5
       3      -0.61137308       0.036534386       0.396316900             7
       4      -0.61108629      -0.000286788       0.175584774             9
       5      -0.60953501      -0.001551277       0.055453536            11
       6      -0.60981597       0.000280953       0.023735822            13
       7      -0.60991891       0.000102940       0.008155360            15
       8      -0.60987770      -0.000041209       0.004038154            17
       9      -0.60986711      -0.000010587       0.001791955            20
      10      -0.60987718       0.000010074       0.000551847            22
      11      -0.60987697      -0.000000216       0.000143901            24
      12      -0.60987640      -0.000000567       0.000046748            26
      13      -0.60987641       0.000000005       0.000013054            28
      14      -0.60987646       0.000000050       0.000003549            30
      15      -0.60987645      -0.000000003       0.000000992            32

    CHF Iterations converged


    Iter     Energy [mEh]          dE [mEh]         Residual      Time [s]
       1      -1.91409232       1.914092322       6.812166062             2
       2      -2.33063758       0.416545255       2.713675025             4
       3      -2.39386086       0.063223283       0.636349293             7
       4      -2.38693420      -0.006926659       0.251895138             9
       5      -2.38271376      -0.004220441       0.048451675            11
       6      -2.38306929       0.000355534       0.017265267            13
       7      -2.38329372       0.000224430       0.004479624            15
       8      -2.38325132      -0.000042401       0.001683462            17
       9      -2.38324466      -0.000006661       0.000532981            19
      10      -2.38324850       0.000003842       0.000167542            21
      11      -2.38324904       0.000000541       0.000040875            23
      12      -2.38324870      -0.000000340       0.000010168            25
      13      -2.38324871       0.000000006       0.000002978            28
      14      -2.38324873       0.000000017       0.000000836            30

    CHF Iterations converged

    Ind20,r (A<-B)      =    -0.000609876454 [Eh]
    Ind20,r (B<-A)      =    -0.002383248727 [Eh]
    Ind20,r             =    -0.002993125181 [Eh]
    Exch-Ind20,r (A<-B) =     0.000473413289 [Eh]
    Exch-Ind20,r (B<-A) =     0.001925383614 [Eh]
    Exch-Ind20,r        =     0.002398796903 [Eh]
    Disp20              =    -0.010392855506 [Eh]
    Disp20 (SS)         =    -0.005196427753 [Eh]
    Disp20 (OS)         =    -0.005196427753 [Eh]
    Exch-Disp20         =     0.001027547675 [Eh]
    Exch-Disp20 (SS)    =     0.000672016056 [Eh]
    Exch-Disp20 (OS)    =     0.000355531619 [Eh]

    SAPT Results 
  --------------------------------------------------------------------------------------------------------
    Electrostatics                 -5.10629606 [mEh]      -3.20424915 [kcal/mol]     -13.40657845 [kJ/mol]
      Elst10,r                     -5.10629606 [mEh]      -3.20424915 [kcal/mol]     -13.40657845 [kJ/mol]

    Exchange                        8.74985244 [mEh]       5.49061530 [kcal/mol]      22.97273443 [kJ/mol]
      Exch10                        8.74985244 [mEh]       5.49061530 [kcal/mol]      22.97273443 [kJ/mol]
      Exch10(S^2)                   8.72756426 [mEh]       5.47662925 [kcal/mol]      22.91421680 [kJ/mol]

    Induction                      -1.25310912 [mEh]      -0.78633784 [kcal/mol]      -3.29003754 [kJ/mol]
      Ind20,r                      -2.99312518 [mEh]      -1.87821441 [kcal/mol]      -7.85844908 [kJ/mol]
      Exch-Ind20,r                  2.39879690 [mEh]       1.50526778 [kcal/mol]       6.29804040 [kJ/mol]
      delta HF,r (2)               -0.65878084 [mEh]      -0.41339122 [kcal/mol]      -1.72962886 [kJ/mol]

    Dispersion                     -9.36530783 [mEh]      -5.87681939 [kcal/mol]     -24.58861232 [kJ/mol]
      Disp20                      -10.39285551 [mEh]      -6.52161529 [kcal/mol]     -27.28643837 [kJ/mol]
      Exch-Disp20                   1.02754768 [mEh]       0.64479590 [kcal/mol]       2.69782605 [kJ/mol]
      Disp20 (SS)                  -5.19642775 [mEh]      -3.26080764 [kcal/mol]     -13.64321919 [kJ/mol]
      Disp20 (OS)                  -5.19642775 [mEh]      -3.26080764 [kcal/mol]     -13.64321919 [kJ/mol]
      Exch-Disp20 (SS)              0.67201606 [mEh]       0.42169644 [kcal/mol]       1.76437791 [kJ/mol]
      Exch-Disp20 (OS)              0.35553162 [mEh]       0.22309946 [kcal/mol]       0.93344814 [kJ/mol]

  Total HF                          2.39044727 [mEh]       1.50002831 [kcal/mol]       6.27611843 [kJ/mol]
  Total SAPT0                      -6.97486056 [mEh]      -4.37679108 [kcal/mol]     -18.31249389 [kJ/mol]

  Special recipe for scaled SAPT0 (see Manual):
    Electrostatics sSAPT0          -5.10629606 [mEh]      -3.20424915 [kcal/mol]     -13.40657845 [kJ/mol]
    Exchange sSAPT0                 8.74985244 [mEh]       5.49061530 [kcal/mol]      22.97273443 [kJ/mol]
    Induction sSAPT0               -1.23468422 [mEh]      -0.77477605 [kcal/mol]      -3.24166298 [kJ/mol]
    Dispersion sSAPT0              -9.35741535 [mEh]      -5.87186678 [kcal/mol]     -24.56789062 [kJ/mol]
  Total sSAPT0                     -6.94854319 [mEh]      -4.36027668 [kcal/mol]     -18.24339762 [kJ/mol]
  --------------------------------------------------------------------------------------------------------

*** tstop() called on r282 at Fri Sep 10 14:20:12 2021
Module time:
	user time   =     263.53 seconds =       4.39 minutes
	system time =      35.66 seconds =       0.59 minutes
	total time  =        301 seconds =       5.02 minutes
Total time:
	user time   =     625.76 seconds =      10.43 minutes
	system time =      41.07 seconds =       0.68 minutes
	total time  =        669 seconds =      11.15 minutes

    Psi4 stopped on: Friday, 10 September 2021 02:20PM
    Psi4 wall time for execution: 0:11:08.58

*** Psi4 exiting successfully. Buy a developer a beer!
