
    -----------------------------------------------------------------------
          Psi4: An Open-Source Ab Initio Electronic Structure Package
                               Psi4 1.3.2 release

                         Git: Rev {HEAD} ecbda83 


    R. M. Parrish, L. A. Burns, D. G. A. Smith, A. C. Simmonett,
    A. E. DePrince III, E. G. Hohenstein, U. Bozkaya, A. Yu. Sokolov,
    R. Di Remigio, R. M. Richard, J. F. Gonthier, A. M. James,
    H. R. McAlexander, A. Kumar, M. Saitow, X. Wang, B. P. Pritchard,
    P. Verma, H. F. Schaefer III, K. Patkowski, R. A. King, E. F. Valeev,
    F. A. Evangelista, J. M. Turney, T. D. Crawford, and C. D. Sherrill,
    J. Chem. Theory Comput. 13(7) pp 3185--3197 (2017).
    (doi: 10.1021/acs.jctc.7b00174)


                         Additional Contributions by
    P. Kraus, H. Kruse, M. H. Lechner, M. C. Schieber, R. A. Shaw,
    A. Alenaizan, R. Galvelis, Z. L. Glick, S. Lehtola, and J. P. Misiewicz

    -----------------------------------------------------------------------


    Psi4 started on: Friday, 10 September 2021 02:39PM

    Process ID: 56756
    Host:       r282
    PSIDATADIR: /home/r08543048/miniconda3/share/psi4
    Memory:     500.0 MiB
    Threads:    1
    
  ==> Input File <==

--------------------------------------------------------------------------
# Any line starting with the # character is a comment line
#! Sample  computation

memory 22 gb

molecule Dimer {
0 1
 H  -1.473369    1.549428    0.098673
 C  -1.772463   -0.407767    1.079736
 C  -1.579356    0.471353   -0.116531
 O  -1.536762    0.070746   -1.264084
 H  -1.875436   -1.446920    0.779915
 H  -0.917323   -0.286918    1.746803
 H  -2.658970   -0.083724    1.627319
  
  
  
  
  
  
  
  

    
    
 --
0 1
 C   1.627736    1.266994    0.064248
 C   1.802414    0.000084    0.452582
 C   1.518561   -1.192641   -0.402354
 H   1.861405    2.092923    0.721868
 H   1.254886    1.498423   -0.925736
 H   2.182394   -0.189164    1.452101
 H   0.801610   -1.859134    0.080873
 H   1.109397   -0.896883   -1.366735
 H   2.428145   -1.772139   -0.568494
   
   
   
   
   
   




units angstrom

no_reorient
symmetry c1
}

set globals{
  basis jun-cc-pvtz
}

energy('sapt0')


--------------------------------------------------------------------------

  Memory set to  20.489 GiB by Python driver.

  //>>>>>>>>>>>>>>>>>>>>>>>>>>>>>>>>>>>//
  //              Dimer HF             //
  //<<<<<<<<<<<<<<<<<<<<<<<<<<<<<<<<<<<//


*** tstart() called on r282
*** at Fri Sep 10 14:39:14 2021

   => Loading Basis Set <=

    Name: JUN-CC-PVTZ
    Role: ORBITAL
    Keyword: BASIS
    atoms 1, 5-7, 11-16 entry H          line    36 file /home/r08543048/miniconda3/share/psi4/basis/jun-cc-pvtz.gbs 
    atoms 2-3, 8-10     entry C          line   217 file /home/r08543048/miniconda3/share/psi4/basis/jun-cc-pvtz.gbs 
    atoms 4             entry O          line   305 file /home/r08543048/miniconda3/share/psi4/basis/jun-cc-pvtz.gbs 


         ---------------------------------------------------------
                                   SCF
               by Justin Turney, Rob Parrish, Andy Simmonett
                          and Daniel G. A. Smith
                              RHF Reference
                        1 Threads,  20980 MiB Core
         ---------------------------------------------------------

  ==> Geometry <==

    Molecular point group: c1
    Full point group: C1

    Geometry (in Angstrom), charge = 0, multiplicity = 1:

       Center              X                  Y                   Z               Mass       
    ------------   -----------------  -----------------  -----------------  -----------------
         H           -1.442189634023     1.533362187960     0.140632906942     1.007825032230
         C           -1.741283634023    -0.423832812040     1.121695906942    12.000000000000
         C           -1.548176634023     0.455287187960    -0.074571093058    12.000000000000
         O           -1.505582634023     0.054680187960    -1.222124093058    15.994914619570
         H           -1.844256634023    -1.462985812040     0.821874906942     1.007825032230
         H           -0.886143634023    -0.302983812040     1.788762906942     1.007825032230
         H           -2.627790634023    -0.099789812040     1.669278906942     1.007825032230
         C            1.658915365977     1.250928187960     0.106207906942    12.000000000000
         C            1.833593365977    -0.015981812040     0.494541906942    12.000000000000
         C            1.549740365977    -1.208706812040    -0.360394093058    12.000000000000
         H            1.892584365977     2.076857187960     0.763827906942     1.007825032230
         H            1.286065365977     1.482357187960    -0.883776093058     1.007825032230
         H            2.213573365977    -0.205229812040     1.494060906942     1.007825032230
         H            0.832789365977    -1.875199812040     0.122832906942     1.007825032230
         H            1.140576365977    -0.912948812040    -1.324775093058     1.007825032230
         H            2.459324365977    -1.788204812040    -0.526534093058     1.007825032230

  Running in c1 symmetry.

  Rotational constants: A =      0.14572  B =      0.05787  C =      0.05708 [cm^-1]
  Rotational constants: A =   4368.52112  B =   1735.04813  C =   1711.33775 [MHz]
  Nuclear repulsion =  223.735159627225073

  Charge       = 0
  Multiplicity = 1
  Electrons    = 48
  Nalpha       = 24
  Nbeta        = 24

  ==> Algorithm <==

  SCF Algorithm Type is DF.
  DIIS enabled.
  MOM disabled.
  Fractional occupation disabled.
  Guess Type is SAD.
  Energy threshold   = 1.00e-08
  Density threshold  = 1.00e-08
  Integral threshold = 0.00e+00

  ==> Primary Basis <==

  Basis Set: JUN-CC-PVTZ
    Blend: JUN-CC-PVTZ
    Number of shells: 138
    Number of basis function: 374
    Number of Cartesian functions: 420
    Spherical Harmonics?: true
    Max angular momentum: 3

   => Loading Basis Set <=

    Name: (JUN-CC-PVTZ AUX)
    Role: JKFIT
    Keyword: DF_BASIS_SCF
    atoms 1, 5-7, 11-16 entry H          line    70 file /home/r08543048/miniconda3/share/psi4/basis/jun-cc-pvtz-jkfit.gbs 
    atoms 2-3, 8-10     entry C          line   152 file /home/r08543048/miniconda3/share/psi4/basis/jun-cc-pvtz-jkfit.gbs 
    atoms 4             entry O          line   272 file /home/r08543048/miniconda3/share/psi4/basis/jun-cc-pvtz-jkfit.gbs 

  ==> Pre-Iterations <==

   -------------------------------------------------------
    Irrep   Nso     Nmo     Nalpha   Nbeta   Ndocc  Nsocc
   -------------------------------------------------------
     A        374     374       0       0       0       0
   -------------------------------------------------------
    Total     374     374      24      24      24       0
   -------------------------------------------------------

  ==> Integral Setup <==

  ==> DiskDFJK: Density-Fitted J/K Matrices <==

    J tasked:                  Yes
    K tasked:                  Yes
    wK tasked:                  No
    OpenMP threads:              1
    Integrals threads:           1
    Memory [MiB]:            15735
    Algorithm:                Core
    Integral Cache:           SAVE
    Schwarz Cutoff:          1E-12
    Fitting Condition:       1E-10

   => Auxiliary Basis Set <=

  Basis Set: (JUN-CC-PVTZ AUX)
    Blend: JUN-CC-PVTZ-JKFIT
    Number of shells: 274
    Number of basis function: 870
    Number of Cartesian functions: 1046
    Spherical Harmonics?: true
    Max angular momentum: 4

  Minimum eigenvalue in the overlap matrix is 3.9651911446E-05.
  Using Symmetric Orthogonalization.

  SCF Guess: Superposition of Atomic Densities via on-the-fly atomic UHF.

  ==> Iterations <==

                           Total Energy        Delta E     RMS |[F,P]|

   @DF-RHF iter SAD:  -268.58187559118142   -2.68582e+02   0.00000e+00 
   @DF-RHF iter   1:  -269.84613170004070   -1.26426e+00   1.77140e-03 DIIS
   @DF-RHF iter   2:  -270.03309133299473   -1.86960e-01   1.00216e-03 DIIS
   @DF-RHF iter   3:  -270.08649680524434   -5.34055e-02   2.18560e-04 DIIS
   @DF-RHF iter   4:  -270.09031808796101   -3.82128e-03   9.04718e-05 DIIS
   @DF-RHF iter   5:  -270.09106187599087   -7.43788e-04   1.37179e-05 DIIS
   @DF-RHF iter   6:  -270.09109634199353   -3.44660e-05   6.19028e-06 DIIS
   @DF-RHF iter   7:  -270.09110132270968   -4.98072e-06   2.63571e-06 DIIS
   @DF-RHF iter   8:  -270.09110255811271   -1.23540e-06   1.07899e-06 DIIS
   @DF-RHF iter   9:  -270.09110278893451   -2.30822e-07   2.54024e-07 DIIS
   @DF-RHF iter  10:  -270.09110280273836   -1.38039e-08   7.68738e-08 DIIS
   @DF-RHF iter  11:  -270.09110280387802   -1.13965e-09   2.62589e-08 DIIS
   @DF-RHF iter  12:  -270.09110280405037   -1.72349e-10   1.15577e-08 DIIS
   @DF-RHF iter  13:  -270.09110280410499   -5.46265e-11   5.83333e-09 DIIS
  Energy and wave function converged.


  ==> Post-Iterations <==

    Orbital Energies [Eh]
    ---------------------

    Doubly Occupied:                                                      

       1A    -20.553945     2A    -11.333006     3A    -11.237615  
       4A    -11.237330     5A    -11.220310     6A    -11.217425  
       7A     -1.385336     8A     -1.067290     9A     -1.020049  
      10A     -0.933402    11A     -0.798970    12A     -0.760297  
      13A     -0.670361    14A     -0.642390    15A     -0.619511  
      16A     -0.605857    17A     -0.583358    18A     -0.564896  
      19A     -0.557549    20A     -0.522937    21A     -0.501801  
      22A     -0.490448    23A     -0.423279    24A     -0.362051  

    Virtual:                                                              

      25A      0.046760    26A      0.052892    27A      0.059085  
      28A      0.062780    29A      0.072162    30A      0.087757  
      31A      0.090048    32A      0.093727    33A      0.101737  
      34A      0.109233    35A      0.117350    36A      0.123322  
      37A      0.128396    38A      0.135030    39A      0.139003  
      40A      0.149251    41A      0.159392    42A      0.174589  
      43A      0.183381    44A      0.184639    45A      0.206453  
      46A      0.211254    47A      0.229785    48A      0.235881  
      49A      0.254867    50A      0.261804    51A      0.270308  
      52A      0.277543    53A      0.281337    54A      0.287255  
      55A      0.300328    56A      0.311741    57A      0.322632  
      58A      0.329033    59A      0.331534    60A      0.338083  
      61A      0.341676    62A      0.344593    63A      0.357908  
      64A      0.361599    65A      0.368199    66A      0.376376  
      67A      0.391277    68A      0.395437    69A      0.404159  
      70A      0.410373    71A      0.425910    72A      0.431360  
      73A      0.443021    74A      0.449878    75A      0.455864  
      76A      0.471196    77A      0.472453    78A      0.489559  
      79A      0.505552    80A      0.510060    81A      0.522804  
      82A      0.531271    83A      0.542546    84A      0.547756  
      85A      0.557561    86A      0.574383    87A      0.588892  
      88A      0.602464    89A      0.633463    90A      0.656708  
      91A      0.661913    92A      0.683162    93A      0.701713  
      94A      0.707753    95A      0.715773    96A      0.720981  
      97A      0.728227    98A      0.750838    99A      0.753178  
     100A      0.764151   101A      0.769358   102A      0.784148  
     103A      0.790222   104A      0.810101   105A      0.815405  
     106A      0.819717   107A      0.824707   108A      0.843926  
     109A      0.855658   110A      0.857859   111A      0.870920  
     112A      0.902763   113A      0.910988   114A      0.924212  
     115A      0.932528   116A      0.944859   117A      0.960822  
     118A      0.966379   119A      0.990762   120A      1.006279  
     121A      1.019845   122A      1.025652   123A      1.066139  
     124A      1.069241   125A      1.081082   126A      1.089272  
     127A      1.111483   128A      1.125273   129A      1.138127  
     130A      1.151128   131A      1.173706   132A      1.179604  
     133A      1.196559   134A      1.207554   135A      1.218913  
     136A      1.253073   137A      1.277295   138A      1.282718  
     139A      1.307584   140A      1.322965   141A      1.328433  
     142A      1.347982   143A      1.373070   144A      1.397507  
     145A      1.406674   146A      1.422999   147A      1.424668  
     148A      1.428146   149A      1.439185   150A      1.454653  
     151A      1.473093   152A      1.486059   153A      1.514505  
     154A      1.515214   155A      1.521584   156A      1.550004  
     157A      1.572543   158A      1.586280   159A      1.593535  
     160A      1.596752   161A      1.615107   162A      1.624796  
     163A      1.631406   164A      1.639824   165A      1.648236  
     166A      1.671157   167A      1.675643   168A      1.715083  
     169A      1.750255   170A      1.762493   171A      1.772476  
     172A      1.793179   173A      1.811210   174A      1.847931  
     175A      1.863179   176A      1.884975   177A      1.906963  
     178A      1.926050   179A      1.973805   180A      2.036756  
     181A      2.061391   182A      2.211969   183A      2.296628  
     184A      2.369716   185A      2.393624   186A      2.417306  
     187A      2.540442   188A      2.645461   189A      2.676192  
     190A      2.701728   191A      2.727129   192A      2.733640  
     193A      2.763709   194A      2.794862   195A      2.810031  
     196A      2.823760   197A      2.839841   198A      2.848628  
     199A      2.878106   200A      2.889068   201A      2.947979  
     202A      2.960638   203A      2.972311   204A      3.010856  
     205A      3.025151   206A      3.039245   207A      3.042003  
     208A      3.070689   209A      3.079410   210A      3.095508  
     211A      3.106649   212A      3.113064   213A      3.130088  
     214A      3.155266   215A      3.170489   216A      3.200694  
     217A      3.205862   218A      3.221574   219A      3.230403  
     220A      3.245307   221A      3.272348   222A      3.292465  
     223A      3.296283   224A      3.310347   225A      3.321041  
     226A      3.346777   227A      3.355997   228A      3.362742  
     229A      3.371122   230A      3.380370   231A      3.391902  
     232A      3.414207   233A      3.421018   234A      3.445647  
     235A      3.458509   236A      3.460981   237A      3.499421  
     238A      3.502851   239A      3.512649   240A      3.516628  
     241A      3.529996   242A      3.562354   243A      3.570325  
     244A      3.591057   245A      3.596897   246A      3.606618  
     247A      3.657491   248A      3.666806   249A      3.675107  
     250A      3.678602   251A      3.689474   252A      3.740552  
     253A      3.753282   254A      3.765268   255A      3.776904  
     256A      3.789372   257A      3.791477   258A      3.800851  
     259A      3.816298   260A      3.829011   261A      3.848713  
     262A      3.863633   263A      3.892486   264A      3.898992  
     265A      3.929836   266A      3.954250   267A      3.980253  
     268A      4.001170   269A      4.039025   270A      4.057089  
     271A      4.084994   272A      4.092883   273A      4.112282  
     274A      4.146157   275A      4.174454   276A      4.190664  
     277A      4.196796   278A      4.218091   279A      4.262507  
     280A      4.276605   281A      4.286074   282A      4.307914  
     283A      4.319791   284A      4.329754   285A      4.346696  
     286A      4.371024   287A      4.379822   288A      4.399278  
     289A      4.408746   290A      4.409304   291A      4.427290  
     292A      4.445022   293A      4.469363   294A      4.496326  
     295A      4.500294   296A      4.520734   297A      4.548048  
     298A      4.564363   299A      4.600352   300A      4.609364  
     301A      4.617591   302A      4.652112   303A      4.672242  
     304A      4.694220   305A      4.730976   306A      4.779584  
     307A      4.787504   308A      4.801068   309A      4.820274  
     310A      4.841172   311A      4.859825   312A      4.909070  
     313A      4.919641   314A      4.948766   315A      5.032311  
     316A      5.037822   317A      5.061198   318A      5.075414  
     319A      5.164470   320A      5.181789   321A      5.192303  
     322A      5.209208   323A      5.228037   324A      5.256427  
     325A      5.306396   326A      5.327233   327A      5.350246  
     328A      5.365866   329A      5.388884   330A      5.440086  
     331A      5.466640   332A      5.475828   333A      5.494689  
     334A      5.550844   335A      5.569810   336A      5.586687  
     337A      5.632774   338A      5.648252   339A      5.678564  
     340A      5.688016   341A      5.692939   342A      5.710996  
     343A      5.722273   344A      5.768673   345A      5.798057  
     346A      5.819148   347A      5.852060   348A      5.878601  
     349A      5.966210   350A      6.084626   351A      6.103267  
     352A      6.127412   353A      6.315943   354A      6.398802  
     355A      6.432796   356A      6.440780   357A      6.457454  
     358A      6.485249   359A      6.527534   360A      6.700348  
     361A      6.794641   362A      6.941330   363A      7.223659  
     364A      7.269015   365A      7.303718   366A      7.444491  
     367A      7.612145   368A      7.706660   369A     12.214598  
     370A     12.424900   371A     14.129846   372A     14.528003  
     373A     14.845094   374A     15.354671  

    Final Occupation by Irrep:
              A 
    DOCC [    24 ]

  @DF-RHF Final Energy:  -270.09110280410499

   => Energetics <=

    Nuclear Repulsion Energy =            223.7351596272250731
    One-Electron Energy =                -809.0336969861771195
    Two-Electron Energy =                 315.2074345548469978
    Total Energy =                       -270.0911028041049917

Computation Completed


Properties will be evaluated at   0.000000,   0.000000,   0.000000 [a0]

Properties computed using the SCF density matrix

  Nuclear Dipole Moment: [e a0]
     X:     2.8282      Y:    -1.4573      Z:     3.8061

  Electronic Dipole Moment: [e a0]
     X:    -2.8420      Y:     1.5547      Z:    -2.6219

  Dipole Moment: [e a0]
     X:    -0.0138      Y:     0.0974      Z:     1.1842     Total:     1.1882

  Dipole Moment: [D]
     X:    -0.0352      Y:     0.2476      Z:     3.0098     Total:     3.0202


*** tstop() called on r282 at Fri Sep 10 14:39:39 2021
Module time:
	user time   =      24.21 seconds =       0.40 minutes
	system time =       0.68 seconds =       0.01 minutes
	total time  =         25 seconds =       0.42 minutes
Total time:
	user time   =      24.21 seconds =       0.40 minutes
	system time =       0.68 seconds =       0.01 minutes
	total time  =         25 seconds =       0.42 minutes

  //>>>>>>>>>>>>>>>>>>>>>>>>>>>>>>>>>>>//
  //            Monomer A HF           //
  //<<<<<<<<<<<<<<<<<<<<<<<<<<<<<<<<<<<//


*** tstart() called on r282
*** at Fri Sep 10 14:39:39 2021

   => Loading Basis Set <=

    Name: JUN-CC-PVTZ
    Role: ORBITAL
    Keyword: BASIS
    atoms 1, 5-7, 11-16 entry H          line    36 file /home/r08543048/miniconda3/share/psi4/basis/jun-cc-pvtz.gbs 
    atoms 2-3, 8-10     entry C          line   217 file /home/r08543048/miniconda3/share/psi4/basis/jun-cc-pvtz.gbs 
    atoms 4             entry O          line   305 file /home/r08543048/miniconda3/share/psi4/basis/jun-cc-pvtz.gbs 


         ---------------------------------------------------------
                                   SCF
               by Justin Turney, Rob Parrish, Andy Simmonett
                          and Daniel G. A. Smith
                              RHF Reference
                        1 Threads,  20980 MiB Core
         ---------------------------------------------------------

  ==> Geometry <==

    Molecular point group: c1
    Full point group: C1

    Geometry (in Angstrom), charge = 0, multiplicity = 1:

       Center              X                  Y                   Z               Mass       
    ------------   -----------------  -----------------  -----------------  -----------------
         H           -1.442189634023     1.533362187960     0.140632906942     1.007825032230
         C           -1.741283634023    -0.423832812040     1.121695906942    12.000000000000
         C           -1.548176634023     0.455287187960    -0.074571093058    12.000000000000
         O           -1.505582634023     0.054680187960    -1.222124093058    15.994914619570
         H           -1.844256634023    -1.462985812040     0.821874906942     1.007825032230
         H           -0.886143634023    -0.302983812040     1.788762906942     1.007825032230
         H           -2.627790634023    -0.099789812040     1.669278906942     1.007825032230
      Gh(C)           1.658915365977     1.250928187960     0.106207906942    12.000000000000
      Gh(C)           1.833593365977    -0.015981812040     0.494541906942    12.000000000000
      Gh(C)           1.549740365977    -1.208706812040    -0.360394093058    12.000000000000
      Gh(H)           1.892584365977     2.076857187960     0.763827906942     1.007825032230
      Gh(H)           1.286065365977     1.482357187960    -0.883776093058     1.007825032230
      Gh(H)           2.213573365977    -0.205229812040     1.494060906942     1.007825032230
      Gh(H)           0.832789365977    -1.875199812040     0.122832906942     1.007825032230
      Gh(H)           1.140576365977    -0.912948812040    -1.324775093058     1.007825032230
      Gh(H)           2.459324365977    -1.788204812040    -0.526534093058     1.007825032230

  Running in c1 symmetry.

  Rotational constants: A =      0.14572  B =      0.05787  C =      0.05708 [cm^-1]
  Rotational constants: A =   4368.52112  B =   1735.04813  C =   1711.33775 [MHz]
  Nuclear repulsion =   69.675069052948402

  Charge       = 0
  Multiplicity = 1
  Electrons    = 24
  Nalpha       = 12
  Nbeta        = 12

  ==> Algorithm <==

  SCF Algorithm Type is DF.
  DIIS enabled.
  MOM disabled.
  Fractional occupation disabled.
  Guess Type is SAD.
  Energy threshold   = 1.00e-08
  Density threshold  = 1.00e-08
  Integral threshold = 0.00e+00

  ==> Primary Basis <==

  Basis Set: JUN-CC-PVTZ
    Blend: JUN-CC-PVTZ
    Number of shells: 138
    Number of basis function: 374
    Number of Cartesian functions: 420
    Spherical Harmonics?: true
    Max angular momentum: 3

   => Loading Basis Set <=

    Name: (JUN-CC-PVTZ AUX)
    Role: JKFIT
    Keyword: DF_BASIS_SCF
    atoms 1, 5-7, 11-16 entry H          line    70 file /home/r08543048/miniconda3/share/psi4/basis/jun-cc-pvtz-jkfit.gbs 
    atoms 2-3, 8-10     entry C          line   152 file /home/r08543048/miniconda3/share/psi4/basis/jun-cc-pvtz-jkfit.gbs 
    atoms 4             entry O          line   272 file /home/r08543048/miniconda3/share/psi4/basis/jun-cc-pvtz-jkfit.gbs 

  ==> Pre-Iterations <==

   -------------------------------------------------------
    Irrep   Nso     Nmo     Nalpha   Nbeta   Ndocc  Nsocc
   -------------------------------------------------------
     A        374     374       0       0       0       0
   -------------------------------------------------------
    Total     374     374      12      12      12       0
   -------------------------------------------------------

  ==> Integral Setup <==

  ==> DiskDFJK: Density-Fitted J/K Matrices <==

    J tasked:                  Yes
    K tasked:                  Yes
    wK tasked:                  No
    OpenMP threads:              1
    Integrals threads:           1
    Memory [MiB]:            15735
    Algorithm:                Core
    Integral Cache:           LOAD
    Schwarz Cutoff:          1E-12
    Fitting Condition:       1E-10

   => Auxiliary Basis Set <=

  Basis Set: (JUN-CC-PVTZ AUX)
    Blend: JUN-CC-PVTZ-JKFIT
    Number of shells: 274
    Number of basis function: 870
    Number of Cartesian functions: 1046
    Spherical Harmonics?: true
    Max angular momentum: 4

  Minimum eigenvalue in the overlap matrix is 3.9651911446E-05.
  Using Symmetric Orthogonalization.

  SCF Guess: Superposition of Atomic Densities via on-the-fly atomic UHF.

  ==> Iterations <==

                           Total Energy        Delta E     RMS |[F,P]|

   @DF-RHF iter SAD:  -152.12063416490096   -1.52121e+02   0.00000e+00 
   @DF-RHF iter   1:  -152.85584728666637   -7.35213e-01   1.30674e-03 DIIS
   @DF-RHF iter   2:  -152.93614444601673   -8.02972e-02   8.91900e-04 DIIS
   @DF-RHF iter   3:  -152.97324638462746   -3.71019e-02   1.50261e-04 DIIS
   @DF-RHF iter   4:  -152.97535958983309   -2.11321e-03   5.80300e-05 DIIS
   @DF-RHF iter   5:  -152.97575393331479   -3.94343e-04   1.15577e-05 DIIS
   @DF-RHF iter   6:  -152.97578289585672   -2.89625e-05   4.60631e-06 DIIS
   @DF-RHF iter   7:  -152.97578678129850   -3.88544e-06   1.78363e-06 DIIS
   @DF-RHF iter   8:  -152.97578740039432   -6.19096e-07   4.13990e-07 DIIS
   @DF-RHF iter   9:  -152.97578743585234   -3.54580e-08   1.11190e-07 DIIS
   @DF-RHF iter  10:  -152.97578743803950   -2.18716e-09   2.36008e-08 DIIS
   @DF-RHF iter  11:  -152.97578743812792   -8.84199e-11   4.32298e-09 DIIS
  Energy and wave function converged.


  ==> Post-Iterations <==

    Orbital Energies [Eh]
    ---------------------

    Doubly Occupied:                                                      

       1A    -20.560283     2A    -11.337539     3A    -11.242705  
       4A     -1.389913     5A     -1.025265     6A     -0.803959  
       7A     -0.674944     8A     -0.623937     9A     -0.607216  
      10A     -0.563154    11A     -0.502761    12A     -0.428237  

    Virtual:                                                              

      13A      0.033285    14A      0.045735    15A      0.050294  
      16A      0.059585    17A      0.069624    18A      0.084656  
      19A      0.086144    20A      0.092788    21A      0.097141  
      22A      0.106765    23A      0.112227    24A      0.117158  
      25A      0.124772    26A      0.126189    27A      0.140015  
      28A      0.140940    29A      0.150849    30A      0.156466  
      31A      0.165564    32A      0.168972    33A      0.193329  
      34A      0.212138    35A      0.234456    36A      0.247383  
      37A      0.250496    38A      0.256229    39A      0.270816  
      40A      0.274171    41A      0.282657    42A      0.287314  
      43A      0.295357    44A      0.306389    45A      0.311859  
      46A      0.322773    47A      0.330213    48A      0.333953  
      49A      0.345744    50A      0.354647    51A      0.358620  
      52A      0.362839    53A      0.380074    54A      0.381778  
      55A      0.395492    56A      0.404162    57A      0.417485  
      58A      0.420950    59A      0.426766    60A      0.438661  
      61A      0.447753    62A      0.449647    63A      0.463810  
      64A      0.476513    65A      0.484030    66A      0.502146  
      67A      0.504663    68A      0.511810    69A      0.537121  
      70A      0.539348    71A      0.551397    72A      0.565785  
      73A      0.572446    74A      0.577243    75A      0.585201  
      76A      0.604713    77A      0.612968    78A      0.627337  
      79A      0.634801    80A      0.652981    81A      0.656372  
      82A      0.674284    83A      0.688550    84A      0.705824  
      85A      0.706569    86A      0.724500    87A      0.739277  
      88A      0.766530    89A      0.771451    90A      0.792439  
      91A      0.793850    92A      0.811971    93A      0.820463  
      94A      0.826318    95A      0.844355    96A      0.856262  
      97A      0.866643    98A      0.898035    99A      0.916140  
     100A      0.950767   101A      0.969435   102A      1.004065  
     103A      1.020099   104A      1.046877   105A      1.077419  
     106A      1.078462   107A      1.089023   108A      1.108643  
     109A      1.119036   110A      1.131709   111A      1.138363  
     112A      1.156268   113A      1.176626   114A      1.200455  
     115A      1.203952   116A      1.214500   117A      1.232581  
     118A      1.246217   119A      1.249310   120A      1.276102  
     121A      1.291448   122A      1.297533   123A      1.312984  
     124A      1.325867   125A      1.330353   126A      1.344252  
     127A      1.361551   128A      1.367372   129A      1.374702  
     130A      1.394342   131A      1.405869   132A      1.413692  
     133A      1.429121   134A      1.439659   135A      1.446496  
     136A      1.456839   137A      1.477447   138A      1.485984  
     139A      1.488863   140A      1.512212   141A      1.532557  
     142A      1.538925   143A      1.541818   144A      1.552959  
     145A      1.564544   146A      1.596872   147A      1.608132  
     148A      1.614593   149A      1.624146   150A      1.633495  
     151A      1.639785   152A      1.656050   153A      1.674925  
     154A      1.684266   155A      1.708967   156A      1.721012  
     157A      1.753886   158A      1.778639   159A      1.783156  
     160A      1.810784   161A      1.829272   162A      1.846443  
     163A      1.878111   164A      1.911651   165A      1.965511  
     166A      1.992656   167A      2.015344   168A      2.068291  
     169A      2.079689   170A      2.113149   171A      2.225547  
     172A      2.252932   173A      2.310636   174A      2.334402  
     175A      2.365283   176A      2.390654   177A      2.403054  
     178A      2.428295   179A      2.455146   180A      2.519507  
     181A      2.539835   182A      2.553981   183A      2.671627  
     184A      2.704093   185A      2.733602   186A      2.777987  
     187A      2.816800   188A      2.831775   189A      2.903030  
     190A      2.939352   191A      2.968450   192A      3.030483  
     193A      3.043790   194A      3.077259   195A      3.117790  
     196A      3.182349   197A      3.192765   198A      3.238242  
     199A      3.267486   200A      3.336933   201A      3.350734  
     202A      3.373006   203A      3.405077   204A      3.419865  
     205A      3.438309   206A      3.445131   207A      3.487652  
     208A      3.508962   209A      3.539809   210A      3.554373  
     211A      3.558852   212A      3.574301   213A      3.603313  
     214A      3.616489   215A      3.634726   216A      3.640616  
     217A      3.650292   218A      3.681417   219A      3.687441  
     220A      3.708436   221A      3.715519   222A      3.729419  
     223A      3.760258   224A      3.766944   225A      3.777982  
     226A      3.798629   227A      3.801565   228A      3.816492  
     229A      3.855983   230A      3.868880   231A      3.872800  
     232A      3.894143   233A      3.897912   234A      3.934933  
     235A      3.952197   236A      3.984901   237A      4.012080  
     238A      4.039502   239A      4.072927   240A      4.082257  
     241A      4.094151   242A      4.110631   243A      4.146012  
     244A      4.157318   245A      4.172733   246A      4.184561  
     247A      4.192327   248A      4.206319   249A      4.236334  
     250A      4.258391   251A      4.266573   252A      4.283203  
     253A      4.287256   254A      4.314515   255A      4.337857  
     256A      4.349680   257A      4.385200   258A      4.396210  
     259A      4.412859   260A      4.424047   261A      4.454056  
     262A      4.465014   263A      4.480140   264A      4.506044  
     265A      4.522041   266A      4.530147   267A      4.545904  
     268A      4.558585   269A      4.582428   270A      4.606297  
     271A      4.608988   272A      4.636869   273A      4.656596  
     274A      4.668530   275A      4.678442   276A      4.720717  
     277A      4.727751   278A      4.739127   279A      4.765597  
     280A      4.785804   281A      4.794039   282A      4.809524  
     283A      4.820643   284A      4.830113   285A      4.834952  
     286A      4.847984   287A      4.864292   288A      4.883736  
     289A      4.915057   290A      4.924860   291A      4.939152  
     292A      4.962651   293A      4.981202   294A      4.988426  
     295A      5.014022   296A      5.037992   297A      5.045821  
     298A      5.050974   299A      5.095092   300A      5.110238  
     301A      5.158070   302A      5.166822   303A      5.175551  
     304A      5.187078   305A      5.237612   306A      5.265046  
     307A      5.317155   308A      5.365297   309A      5.401326  
     310A      5.461161   311A      5.463367   312A      5.488065  
     313A      5.528583   314A      5.535356   315A      5.546906  
     316A      5.566269   317A      5.587179   318A      5.644524  
     319A      5.674332   320A      5.677766   321A      5.705337  
     322A      5.716257   323A      5.802912   324A      5.812647  
     325A      5.842881   326A      5.869322   327A      5.903251  
     328A      5.997761   329A      6.031341   330A      6.082884  
     331A      6.121925   332A      6.129991   333A      6.148842  
     334A      6.241488   335A      6.258466   336A      6.312218  
     337A      6.342970   338A      6.389351   339A      6.398295  
     340A      6.438504   341A      6.447295   342A      6.613554  
     343A      6.722810   344A      6.752226   345A      6.789481  
     346A      6.843489   347A      6.935614   348A      7.093649  
     349A      7.217959   350A      7.262823   351A      7.296859  
     352A      7.387177   353A      7.430924   354A      7.443375  
     355A      7.581572   356A      7.596759   357A      7.612534  
     358A      7.652804   359A      7.707273   360A      7.819421  
     361A      7.924134   362A      7.975839   363A      8.105887  
     364A      8.286258   365A      8.731175   366A      9.380808  
     367A      9.929058   368A     10.195612   369A     12.413006  
     370A     14.141682   371A     14.636831   372A     40.884419  
     373A     45.994237   374A     47.188715  

    Final Occupation by Irrep:
              A 
    DOCC [    12 ]

  @DF-RHF Final Energy:  -152.97578743812792

   => Energetics <=

    Nuclear Repulsion Energy =             69.6750690529484018
    One-Electron Energy =                -345.7818869643973585
    Two-Electron Energy =                 123.1310304733210330
    Total Energy =                       -152.9757874381279237

Computation Completed


Properties will be evaluated at   0.000000,   0.000000,   0.000000 [a0]

Properties computed using the SCF density matrix

  Nuclear Dipole Moment: [e a0]
     X:   -72.9090      Y:     0.5551      Z:     1.7505

  Electronic Dipole Moment: [e a0]
     X:    72.8384      Y:    -0.3042      Z:    -0.4736

  Dipole Moment: [e a0]
     X:    -0.0706      Y:     0.2509      Z:     1.2769     Total:     1.3032

  Dipole Moment: [D]
     X:    -0.1794      Y:     0.6378      Z:     3.2456     Total:     3.3125


*** tstop() called on r282 at Fri Sep 10 14:39:52 2021
Module time:
	user time   =      12.00 seconds =       0.20 minutes
	system time =       0.23 seconds =       0.00 minutes
	total time  =         13 seconds =       0.22 minutes
Total time:
	user time   =      36.21 seconds =       0.60 minutes
	system time =       0.91 seconds =       0.02 minutes
	total time  =         38 seconds =       0.63 minutes

  //>>>>>>>>>>>>>>>>>>>>>>>>>>>>>>>>>>>//
  //            Monomer B HF           //
  //<<<<<<<<<<<<<<<<<<<<<<<<<<<<<<<<<<<//


*** tstart() called on r282
*** at Fri Sep 10 14:39:52 2021

   => Loading Basis Set <=

    Name: JUN-CC-PVTZ
    Role: ORBITAL
    Keyword: BASIS
    atoms 1, 5-7, 11-16 entry H          line    36 file /home/r08543048/miniconda3/share/psi4/basis/jun-cc-pvtz.gbs 
    atoms 2-3, 8-10     entry C          line   217 file /home/r08543048/miniconda3/share/psi4/basis/jun-cc-pvtz.gbs 
    atoms 4             entry O          line   305 file /home/r08543048/miniconda3/share/psi4/basis/jun-cc-pvtz.gbs 


         ---------------------------------------------------------
                                   SCF
               by Justin Turney, Rob Parrish, Andy Simmonett
                          and Daniel G. A. Smith
                              RHF Reference
                        1 Threads,  20980 MiB Core
         ---------------------------------------------------------

  ==> Geometry <==

    Molecular point group: c1
    Full point group: C1

    Geometry (in Angstrom), charge = 0, multiplicity = 1:

       Center              X                  Y                   Z               Mass       
    ------------   -----------------  -----------------  -----------------  -----------------
      Gh(H)          -1.442189634023     1.533362187960     0.140632906942     1.007825032230
      Gh(C)          -1.741283634023    -0.423832812040     1.121695906942    12.000000000000
      Gh(C)          -1.548176634023     0.455287187960    -0.074571093058    12.000000000000
      Gh(O)          -1.505582634023     0.054680187960    -1.222124093058    15.994914619570
      Gh(H)          -1.844256634023    -1.462985812040     0.821874906942     1.007825032230
      Gh(H)          -0.886143634023    -0.302983812040     1.788762906942     1.007825032230
      Gh(H)          -2.627790634023    -0.099789812040     1.669278906942     1.007825032230
         C            1.658915365977     1.250928187960     0.106207906942    12.000000000000
         C            1.833593365977    -0.015981812040     0.494541906942    12.000000000000
         C            1.549740365977    -1.208706812040    -0.360394093058    12.000000000000
         H            1.892584365977     2.076857187960     0.763827906942     1.007825032230
         H            1.286065365977     1.482357187960    -0.883776093058     1.007825032230
         H            2.213573365977    -0.205229812040     1.494060906942     1.007825032230
         H            0.832789365977    -1.875199812040     0.122832906942     1.007825032230
         H            1.140576365977    -0.912948812040    -1.324775093058     1.007825032230
         H            2.459324365977    -1.788204812040    -0.526534093058     1.007825032230

  Running in c1 symmetry.

  Rotational constants: A =      0.14572  B =      0.05787  C =      0.05708 [cm^-1]
  Rotational constants: A =   4368.52112  B =   1735.04813  C =   1711.33775 [MHz]
  Nuclear repulsion =   70.854438473355174

  Charge       = 0
  Multiplicity = 1
  Electrons    = 24
  Nalpha       = 12
  Nbeta        = 12

  ==> Algorithm <==

  SCF Algorithm Type is DF.
  DIIS enabled.
  MOM disabled.
  Fractional occupation disabled.
  Guess Type is SAD.
  Energy threshold   = 1.00e-08
  Density threshold  = 1.00e-08
  Integral threshold = 0.00e+00

  ==> Primary Basis <==

  Basis Set: JUN-CC-PVTZ
    Blend: JUN-CC-PVTZ
    Number of shells: 138
    Number of basis function: 374
    Number of Cartesian functions: 420
    Spherical Harmonics?: true
    Max angular momentum: 3

   => Loading Basis Set <=

    Name: (JUN-CC-PVTZ AUX)
    Role: JKFIT
    Keyword: DF_BASIS_SCF
    atoms 1, 5-7, 11-16 entry H          line    70 file /home/r08543048/miniconda3/share/psi4/basis/jun-cc-pvtz-jkfit.gbs 
    atoms 2-3, 8-10     entry C          line   152 file /home/r08543048/miniconda3/share/psi4/basis/jun-cc-pvtz-jkfit.gbs 
    atoms 4             entry O          line   272 file /home/r08543048/miniconda3/share/psi4/basis/jun-cc-pvtz-jkfit.gbs 

  ==> Pre-Iterations <==

   -------------------------------------------------------
    Irrep   Nso     Nmo     Nalpha   Nbeta   Ndocc  Nsocc
   -------------------------------------------------------
     A        374     374       0       0       0       0
   -------------------------------------------------------
    Total     374     374      12      12      12       0
   -------------------------------------------------------

  ==> Integral Setup <==

  ==> DiskDFJK: Density-Fitted J/K Matrices <==

    J tasked:                  Yes
    K tasked:                  Yes
    wK tasked:                  No
    OpenMP threads:              1
    Integrals threads:           1
    Memory [MiB]:            15735
    Algorithm:                Core
    Integral Cache:           LOAD
    Schwarz Cutoff:          1E-12
    Fitting Condition:       1E-10

   => Auxiliary Basis Set <=

  Basis Set: (JUN-CC-PVTZ AUX)
    Blend: JUN-CC-PVTZ-JKFIT
    Number of shells: 274
    Number of basis function: 870
    Number of Cartesian functions: 1046
    Spherical Harmonics?: true
    Max angular momentum: 4

  Minimum eigenvalue in the overlap matrix is 3.9651911446E-05.
  Using Symmetric Orthogonalization.

  SCF Guess: Superposition of Atomic Densities via on-the-fly atomic UHF.

  ==> Iterations <==

                           Total Energy        Delta E     RMS |[F,P]|

   @DF-RHF iter SAD:  -116.33200011351411   -1.16332e+02   0.00000e+00 
   @DF-RHF iter   1:  -116.98779486428118   -6.55795e-01   1.22552e-03 DIIS
   @DF-RHF iter   2:  -117.09539695365264   -1.07602e-01   5.26237e-04 DIIS
   @DF-RHF iter   3:  -117.11548464994452   -2.00877e-02   9.46011e-05 DIIS
   @DF-RHF iter   4:  -117.11677921601665   -1.29457e-03   2.85167e-05 DIIS
   @DF-RHF iter   5:  -117.11685329388666   -7.40779e-05   7.66922e-06 DIIS
   @DF-RHF iter   6:  -117.11685952407800   -6.23019e-06   1.38216e-06 DIIS
   @DF-RHF iter   7:  -117.11685983360078   -3.09523e-07   5.08025e-07 DIIS
   @DF-RHF iter   8:  -117.11685987449627   -4.08955e-08   1.75835e-07 DIIS
   @DF-RHF iter   9:  -117.11685988035785   -5.86158e-09   6.39807e-08 DIIS
   @DF-RHF iter  10:  -117.11685988130426   -9.46415e-10   1.45565e-08 DIIS
   @DF-RHF iter  11:  -117.11685988134744   -4.31726e-11   2.57131e-09 DIIS
  Energy and wave function converged.


  ==> Post-Iterations <==

    Orbital Energies [Eh]
    ---------------------

    Doubly Occupied:                                                      

       1A    -11.234551     2A    -11.220837     3A    -11.217611  
       4A     -1.064755     5A     -0.932913     6A     -0.757947  
       7A     -0.639819     8A     -0.582805     9A     -0.568391  
      10A     -0.523282    11A     -0.493295    12A     -0.357743  

    Virtual:                                                              

      13A      0.039366    14A      0.050724    15A      0.055245  
      16A      0.059100    17A      0.071959    18A      0.082822  
      19A      0.089237    20A      0.092910    21A      0.098448  
      22A      0.111033    23A      0.116235    24A      0.121452  
      25A      0.123905    26A      0.130009    27A      0.140055  
      28A      0.149265    29A      0.158534    30A      0.168982  
      31A      0.180099    32A      0.191567    33A      0.197694  
      34A      0.209755    35A      0.216640    36A      0.222497  
      37A      0.243288    38A      0.261009    39A      0.271594  
      40A      0.274423    41A      0.285449    42A      0.300846  
      43A      0.304164    44A      0.309077    45A      0.323135  
      46A      0.331241    47A      0.338741    48A      0.347328  
      49A      0.351286    50A      0.352848    51A      0.365177  
      52A      0.369581    53A      0.372944    54A      0.382744  
      55A      0.388989    56A      0.402981    57A      0.411708  
      58A      0.429031    59A      0.436108    60A      0.443420  
      61A      0.458458    62A      0.463718    63A      0.472845  
      64A      0.475218    65A      0.490195    66A      0.503303  
      67A      0.509556    68A      0.516110    69A      0.528281  
      70A      0.534246    71A      0.535270    72A      0.548656  
      73A      0.551463    74A      0.558462    75A      0.585791  
      76A      0.593362    77A      0.606676    78A      0.622816  
      79A      0.637321    80A      0.659199    81A      0.669469  
      82A      0.702529    83A      0.712941    84A      0.728048  
      85A      0.739748    86A      0.751933    87A      0.758667  
      88A      0.770757    89A      0.789398    90A      0.792096  
      91A      0.813857    92A      0.836236    93A      0.850271  
      94A      0.865615    95A      0.867708    96A      0.891199  
      97A      0.899024    98A      0.918691    99A      0.926858  
     100A      0.933926   101A      0.963312   102A      0.967920  
     103A      0.984672   104A      0.998184   105A      1.008434  
     106A      1.023874   107A      1.048766   108A      1.064886  
     109A      1.082686   110A      1.095685   111A      1.110990  
     112A      1.115790   113A      1.122239   114A      1.136663  
     115A      1.154901   116A      1.160507   117A      1.185186  
     118A      1.194097   119A      1.208640   120A      1.220398  
     121A      1.229342   122A      1.250715   123A      1.266900  
     124A      1.292265   125A      1.304900   126A      1.311197  
     127A      1.328360   128A      1.350821   129A      1.352902  
     130A      1.379355   131A      1.390760   132A      1.397842  
     133A      1.403042   134A      1.419169   135A      1.453707  
     136A      1.462603   137A      1.480449   138A      1.482116  
     139A      1.491379   140A      1.514743   141A      1.538630  
     142A      1.539692   143A      1.565198   144A      1.576885  
     145A      1.586568   146A      1.599591   147A      1.613699  
     148A      1.630221   149A      1.633534   150A      1.650951  
     151A      1.663092   152A      1.674458   153A      1.693540  
     154A      1.722883   155A      1.746059   156A      1.750170  
     157A      1.774670   158A      1.788604   159A      1.834925  
     160A      1.861637   161A      1.892286   162A      1.905049  
     163A      1.910445   164A      1.936385   165A      2.023528  
     166A      2.035134   167A      2.042900   168A      2.069087  
     169A      2.097944   170A      2.120316   171A      2.223317  
     172A      2.233309   173A      2.375443   174A      2.384192  
     175A      2.497111   176A      2.543102   177A      2.631694  
     178A      2.689628   179A      2.712455   180A      2.733797  
     181A      2.754095   182A      2.787987   183A      2.811246  
     184A      2.818945   185A      2.836209   186A      2.856511  
     187A      2.871863   188A      2.887382   189A      2.927854  
     190A      2.977707   191A      3.000502   192A      3.026884  
     193A      3.033472   194A      3.081258   195A      3.093102  
     196A      3.106830   197A      3.120972   198A      3.160526  
     199A      3.172641   200A      3.187399   201A      3.198866  
     202A      3.238560   203A      3.243808   204A      3.270315  
     205A      3.279331   206A      3.309356   207A      3.338990  
     208A      3.346755   209A      3.363854   210A      3.384270  
     211A      3.391547   212A      3.433478   213A      3.441357  
     214A      3.469646   215A      3.496921   216A      3.505379  
     217A      3.521780   218A      3.546667   219A      3.549859  
     220A      3.583865   221A      3.593612   222A      3.600701  
     223A      3.607817   224A      3.641692   225A      3.661024  
     226A      3.665219   227A      3.681513   228A      3.745471  
     229A      3.751572   230A      3.766100   231A      3.790927  
     232A      3.793621   233A      3.811720   234A      3.820796  
     235A      3.836967   236A      3.847267   237A      3.854140  
     238A      3.883762   239A      3.901175   240A      3.923781  
     241A      3.936449   242A      3.973706   243A      4.004255  
     244A      4.022477   245A      4.028520   246A      4.039079  
     247A      4.057751   248A      4.087582   249A      4.106201  
     250A      4.150710   251A      4.176684   252A      4.179591  
     253A      4.195787   254A      4.216382   255A      4.281610  
     256A      4.299226   257A      4.308018   258A      4.317539  
     259A      4.338689   260A      4.357730   261A      4.376013  
     262A      4.377925   263A      4.383789   264A      4.409205  
     265A      4.413678   266A      4.434377   267A      4.446533  
     268A      4.454865   269A      4.494247   270A      4.511957  
     271A      4.516001   272A      4.536056   273A      4.560242  
     274A      4.569724   275A      4.592671   276A      4.601108  
     277A      4.619630   278A      4.640681   279A      4.648687  
     280A      4.685442   281A      4.718389   282A      4.747413  
     283A      4.748783   284A      4.767577   285A      4.775650  
     286A      4.786862   287A      4.798363   288A      4.818893  
     289A      4.824813   290A      4.848254   291A      4.861281  
     292A      4.883255   293A      4.909230   294A      4.922292  
     295A      4.937173   296A      4.952467   297A      4.954404  
     298A      4.971333   299A      5.035189   300A      5.038182  
     301A      5.050260   302A      5.079606   303A      5.130186  
     304A      5.138947   305A      5.187554   306A      5.210405  
     307A      5.232706   308A      5.245684   309A      5.309094  
     310A      5.331437   311A      5.362032   312A      5.385808  
     313A      5.402056   314A      5.446275   315A      5.488975  
     316A      5.567529   317A      5.619864   318A      5.634229  
     319A      5.647475   320A      5.691095   321A      5.693676  
     322A      5.761078   323A      5.772816   324A      5.794890  
     325A      5.810219   326A      5.855861   327A      5.966054  
     328A      6.059859   329A      6.094891   330A      6.109382  
     331A      6.119647   332A      6.184077   333A      6.275650  
     334A      6.280823   335A      6.331314   336A      6.401039  
     337A      6.450813   338A      6.460340   339A      6.501416  
     340A      6.501834   341A      6.528084   342A      6.615471  
     343A      6.697603   344A      6.707745   345A      6.774875  
     346A      6.875585   347A      7.020475   348A      7.324253  
     349A      7.463474   350A      7.569196   351A      7.599857  
     352A      7.810809   353A      7.849719   354A      7.912170  
     355A      8.151953   356A      8.326624   357A      8.494650  
     358A      9.406523   359A      9.437830   360A      9.808470  
     361A      9.858697   362A      9.888105   363A      9.913489  
     364A     10.053535   365A     10.997256   366A     11.685612  
     367A     11.894834   368A     12.260382   369A     13.733745  
     370A     14.727321   371A     15.337268   372A     43.355247  
     373A     45.853260   374A     60.525481  

    Final Occupation by Irrep:
              A 
    DOCC [    12 ]

  @DF-RHF Final Energy:  -117.11685988134744

   => Energetics <=

    Nuclear Repulsion Energy =             70.8544384733551738
    One-Electron Energy =                -296.7546982208921236
    Two-Electron Energy =                 108.7833998661895123
    Total Energy =                       -117.1168598813474375

Computation Completed


Properties will be evaluated at   0.000000,   0.000000,   0.000000 [a0]

Properties computed using the SCF density matrix

  Nuclear Dipole Moment: [e a0]
     X:    75.7372      Y:    -2.0124      Z:     2.0556

  Electronic Dipole Moment: [e a0]
     X:   -75.7304      Y:     1.8448      Z:    -2.0655

  Dipole Moment: [e a0]
     X:     0.0068      Y:    -0.1676      Z:    -0.0099     Total:     0.1680

  Dipole Moment: [D]
     X:     0.0174      Y:    -0.4260      Z:    -0.0251     Total:     0.4271


*** tstop() called on r282 at Fri Sep 10 14:40:03 2021
Module time:
	user time   =      11.32 seconds =       0.19 minutes
	system time =       0.27 seconds =       0.00 minutes
	total time  =         11 seconds =       0.18 minutes
Total time:
	user time   =      47.53 seconds =       0.79 minutes
	system time =       1.18 seconds =       0.02 minutes
	total time  =         49 seconds =       0.82 minutes
  Constructing Basis Sets for SAPT...

   => Loading Basis Set <=

    Name: (JUN-CC-PVTZ AUX)
    Role: RIFIT
    Keyword: DF_BASIS_SAPT
    atoms 1, 5-7, 11-16 entry H          line    30 file /home/r08543048/miniconda3/share/psi4/basis/jun-cc-pvtz-ri.gbs 
    atoms 2-3, 8-10     entry C          line   132 file /home/r08543048/miniconda3/share/psi4/basis/jun-cc-pvtz-ri.gbs 
    atoms 4             entry O          line   244 file /home/r08543048/miniconda3/share/psi4/basis/jun-cc-pvtz-ri.gbs 


  //>>>>>>>>>>>>>>>>>>>>>>>>>>>>>>>>>>>//
  //               SAPT0               //
  //<<<<<<<<<<<<<<<<<<<<<<<<<<<<<<<<<<<//


*** tstart() called on r282
*** at Fri Sep 10 14:40:03 2021

        SAPT0  
    Ed Hohenstein
     6 June 2009

      Orbital Information
  --------------------------
    NSO        =       374
    NMO        =       374
    NRI        =       882
    NOCC A     =        12
    NOCC B     =        12
    FOCC A     =         0
    FOCC B     =         0
    NVIR A     =       362
    NVIR B     =       362

    Elst10,r            =    -0.005193543952 [Eh]
    Exch10              =     0.008138506618 [Eh]
    Exch10 (S^2)        =     0.008103383970 [Eh]

    Iter     Energy [mEh]          dE [mEh]         Residual      Time [s]
       1      -0.53545520       0.535455198       4.176319896             0
       2      -0.59145302       0.055997820       1.910607580             1
       3      -0.62891711       0.037464095       0.472505993             1
       4      -0.63016450       0.001247385       0.184402757             1
       5      -0.62808089      -0.002083610       0.055413503             2
       6      -0.62831069       0.000229806       0.021756769             2
       7      -0.62843573       0.000125035       0.005162751             3
       8      -0.62839424      -0.000041490       0.001922389             3
       9      -0.62839696       0.000002724       0.001141114             3
      10      -0.62840061       0.000003647       0.000353882             4
      11      -0.62839970      -0.000000909       0.000121775             4
      12      -0.62839939      -0.000000313       0.000030279             4
      13      -0.62839952       0.000000129       0.000007498             5
      14      -0.62839951      -0.000000006       0.000001858             5
      15      -0.62839951      -0.000000004       0.000000347             5

    CHF Iterations converged


    Iter     Energy [mEh]          dE [mEh]         Residual      Time [s]
       1      -2.38342175       2.383421750       7.577761872             1
       2      -3.04087656       0.657454812       2.543029707             1
       3      -3.07686794       0.035991373       0.653746599             2
       4      -3.06328425      -0.013583685       0.261789031             2
       5      -3.06050339      -0.002780863       0.055600254             2
       6      -3.06151067       0.001007287       0.022241296             3
       7      -3.06160630       0.000095622       0.008060956             3
       8      -3.06149451      -0.000111788       0.001901072             3
       9      -3.06150005       0.000005547       0.000451828             4
      10      -3.06150376       0.000003709       0.000118189             4
      11      -3.06150333      -0.000000437       0.000034436             5
      12      -3.06150311      -0.000000217       0.000008517             5
      13      -3.06150314       0.000000029       0.000001933             5
      14      -3.06150315       0.000000010       0.000000465             6

    CHF Iterations converged

    Ind20,r (A<-B)      =    -0.000628399507 [Eh]
    Ind20,r (B<-A)      =    -0.003061503148 [Eh]
    Ind20,r             =    -0.003689902656 [Eh]
    Exch-Ind20,r (A<-B) =     0.000501391720 [Eh]
    Exch-Ind20,r (B<-A) =     0.002510130670 [Eh]
    Exch-Ind20,r        =     0.003011522390 [Eh]
    Disp20              =    -0.008150450589 [Eh]
    Disp20 (SS)         =    -0.004075225295 [Eh]
    Disp20 (OS)         =    -0.004075225295 [Eh]
    Exch-Disp20         =     0.000940422754 [Eh]
    Exch-Disp20 (SS)    =     0.000606470963 [Eh]
    Exch-Disp20 (OS)    =     0.000333951791 [Eh]

    SAPT Results 
  --------------------------------------------------------------------------------------------------------
    Electrostatics                 -5.19354395 [mEh]      -3.25899803 [kcal/mol]     -13.63564777 [kJ/mol]
      Elst10,r                     -5.19354395 [mEh]      -3.25899803 [kcal/mol]     -13.63564777 [kJ/mol]

    Exchange                        8.13850662 [mEh]       5.10699001 [kcal/mol]      21.36764618 [kJ/mol]
      Exch10                        8.13850662 [mEh]       5.10699001 [kcal/mol]      21.36764618 [kJ/mol]
      Exch10(S^2)                   8.10338397 [mEh]       5.08495021 [kcal/mol]      21.27543168 [kJ/mol]

    Induction                      -1.40044730 [mEh]      -0.87879395 [kcal/mol]      -3.67687387 [kJ/mol]
      Ind20,r                      -3.68990266 [mEh]      -2.31544887 [kcal/mol]      -9.68783809 [kJ/mol]
      Exch-Ind20,r                  3.01152239 [mEh]       1.88975883 [kcal/mol]       7.90675095 [kJ/mol]
      delta HF,r (2)               -0.72206703 [mEh]      -0.45310390 [kcal/mol]      -1.89578672 [kJ/mol]

    Dispersion                     -7.21002784 [mEh]      -4.52436077 [kcal/mol]     -18.92992547 [kJ/mol]
      Disp20                       -8.15045059 [mEh]      -5.11448496 [kcal/mol]     -21.39900507 [kJ/mol]
      Exch-Disp20                   0.94042275 [mEh]       0.59012419 [kcal/mol]       2.46907960 [kJ/mol]
      Disp20 (SS)                  -4.07522529 [mEh]      -2.55724248 [kcal/mol]     -10.69950254 [kJ/mol]
      Disp20 (OS)                  -4.07522529 [mEh]      -2.55724248 [kcal/mol]     -10.69950254 [kJ/mol]
      Exch-Disp20 (SS)              0.60647096 [mEh]       0.38056627 [kcal/mol]       1.59228929 [kJ/mol]
      Exch-Disp20 (OS)              0.33395179 [mEh]       0.20955791 [kcal/mol]       0.87679031 [kJ/mol]

  Total HF                          1.54451537 [mEh]       0.96919803 [kcal/mol]       4.05512455 [kJ/mol]
  Total SAPT0                      -5.66551247 [mEh]      -3.55516275 [kcal/mol]     -14.87480093 [kJ/mol]

  Special recipe for scaled SAPT0 (see Manual):
    Electrostatics sSAPT0          -5.19354395 [mEh]      -3.25899803 [kcal/mol]     -13.63564777 [kJ/mol]
    Exchange sSAPT0                 8.13850662 [mEh]       5.10699001 [kcal/mol]      21.36764618 [kJ/mol]
    Induction sSAPT0               -1.36111863 [mEh]      -0.85411484 [kcal/mol]      -3.57361647 [kJ/mol]
    Dispersion sSAPT0              -7.19774648 [mEh]      -4.51665411 [kcal/mol]     -18.89768078 [kJ/mol]
  Total sSAPT0                     -5.61390245 [mEh]      -3.52277697 [kcal/mol]     -14.73929884 [kJ/mol]
  --------------------------------------------------------------------------------------------------------

*** tstop() called on r282 at Fri Sep 10 14:40:46 2021
Module time:
	user time   =      34.14 seconds =       0.57 minutes
	system time =       7.23 seconds =       0.12 minutes
	total time  =         43 seconds =       0.72 minutes
Total time:
	user time   =      81.77 seconds =       1.36 minutes
	system time =       8.41 seconds =       0.14 minutes
	total time  =         92 seconds =       1.53 minutes

    Psi4 stopped on: Friday, 10 September 2021 02:40PM
    Psi4 wall time for execution: 0:01:32.56

*** Psi4 exiting successfully. Buy a developer a beer!
