
    -----------------------------------------------------------------------
          Psi4: An Open-Source Ab Initio Electronic Structure Package
                               Psi4 1.3.2 release

                         Git: Rev {HEAD} ecbda83 


    R. M. Parrish, L. A. Burns, D. G. A. Smith, A. C. Simmonett,
    A. E. DePrince III, E. G. Hohenstein, U. Bozkaya, A. Yu. Sokolov,
    R. Di Remigio, R. M. Richard, J. F. Gonthier, A. M. James,
    H. R. McAlexander, A. Kumar, M. Saitow, X. Wang, B. P. Pritchard,
    P. Verma, H. F. Schaefer III, K. Patkowski, R. A. King, E. F. Valeev,
    F. A. Evangelista, J. M. Turney, T. D. Crawford, and C. D. Sherrill,
    J. Chem. Theory Comput. 13(7) pp 3185--3197 (2017).
    (doi: 10.1021/acs.jctc.7b00174)


                         Additional Contributions by
    P. Kraus, H. Kruse, M. H. Lechner, M. C. Schieber, R. A. Shaw,
    A. Alenaizan, R. Galvelis, Z. L. Glick, S. Lehtola, and J. P. Misiewicz

    -----------------------------------------------------------------------


    Psi4 started on: Friday, 10 September 2021 02:48PM

    Process ID: 56764
    Host:       r282
    PSIDATADIR: /home/r08543048/miniconda3/share/psi4
    Memory:     500.0 MiB
    Threads:    1
    
  ==> Input File <==

--------------------------------------------------------------------------
# Any line starting with the # character is a comment line
#! Sample  computation

memory 22 gb

molecule Dimer {
0 1
 H   0.355938   -1.580097    1.115901
 C   1.744462    0.117275    0.830759
 C   0.914854   -1.030354    0.335604
 O   0.831922   -1.370841   -0.829138
 H   2.442465   -0.290969    1.569251
 C   2.465494    0.868447   -0.273162
 H   3.122629    0.202063   -0.828611
 H   1.751429    1.287871   -0.979567
 H   3.061297    1.680223    0.139983
 H   1.068955    0.768911    1.393284
  
  
  
  
  

    
    
 --
0 1
 C   -1.336225    1.375227   -0.478009
 C   -2.190322    0.692096    0.290215
 C   -2.568015   -0.737915    0.068508
 H   -1.112079    2.414425   -0.279164
 H   -0.851843    0.905304   -1.324908
 H   -2.656497    1.199786    1.128980
 H   -3.635171   -0.825581   -0.142048
 H   -2.011133   -1.166619   -0.763255
 H   -2.372856   -1.337248    0.959767
   
   
   
   
   
   




units angstrom

no_reorient
symmetry c1
}

set globals{
  basis jun-cc-pvtz
}

energy('sapt0')


--------------------------------------------------------------------------

  Memory set to  20.489 GiB by Python driver.

  //>>>>>>>>>>>>>>>>>>>>>>>>>>>>>>>>>>>//
  //              Dimer HF             //
  //<<<<<<<<<<<<<<<<<<<<<<<<<<<<<<<<<<<//


*** tstart() called on r282
*** at Fri Sep 10 14:48:13 2021

   => Loading Basis Set <=

    Name: JUN-CC-PVTZ
    Role: ORBITAL
    Keyword: BASIS
    atoms 1, 5, 7-10, 14-19 entry H          line    36 file /home/r08543048/miniconda3/share/psi4/basis/jun-cc-pvtz.gbs 
    atoms 2-3, 6, 11-13     entry C          line   217 file /home/r08543048/miniconda3/share/psi4/basis/jun-cc-pvtz.gbs 
    atoms 4                 entry O          line   305 file /home/r08543048/miniconda3/share/psi4/basis/jun-cc-pvtz.gbs 


         ---------------------------------------------------------
                                   SCF
               by Justin Turney, Rob Parrish, Andy Simmonett
                          and Daniel G. A. Smith
                              RHF Reference
                        1 Threads,  20980 MiB Core
         ---------------------------------------------------------

  ==> Geometry <==

    Molecular point group: c1
    Full point group: C1

    Geometry (in Angstrom), charge = 0, multiplicity = 1:

       Center              X                  Y                   Z               Mass       
    ------------   -----------------  -----------------  -----------------  -----------------
         H            0.347684501778    -1.547869530259     1.135581817800     1.007825032230
         C            1.736208501778     0.149502469741     0.850439817800    12.000000000000
         C            0.906600501778    -0.998126530259     0.355284817800    12.000000000000
         O            0.823668501778    -1.338613530259    -0.809457182200    15.994914619570
         H            2.434211501778    -0.258741530259     1.588931817800     1.007825032230
         C            2.457240501778     0.900674469741    -0.253481182200    12.000000000000
         H            3.114375501778     0.234290469741    -0.808930182200     1.007825032230
         H            1.743175501778     1.320098469741    -0.959886182200     1.007825032230
         H            3.053043501778     1.712450469741     0.159663817800     1.007825032230
         H            1.060701501778     0.801138469741     1.412964817800     1.007825032230
         C           -1.344478498222     1.407454469741    -0.458328182200    12.000000000000
         C           -2.198575498222     0.724323469741     0.309895817800    12.000000000000
         C           -2.576268498222    -0.705687530259     0.088188817800    12.000000000000
         H           -1.120332498222     2.446652469741    -0.259483182200     1.007825032230
         H           -0.860096498222     0.937531469741    -1.305227182200     1.007825032230
         H           -2.664750498222     1.232013469741     1.148660817800     1.007825032230
         H           -3.643424498222    -0.793353530259    -0.122367182200     1.007825032230
         H           -2.019386498222    -1.134391530259    -0.743574182200     1.007825032230
         H           -2.381109498222    -1.305020530259     0.979447817800     1.007825032230

  Running in c1 symmetry.

  Rotational constants: A =      0.11737  B =      0.04344  C =      0.03686 [cm^-1]
  Rotational constants: A =   3518.59182  B =   1302.27511  C =   1105.13119 [MHz]
  Nuclear repulsion =  292.267185132979478

  Charge       = 0
  Multiplicity = 1
  Electrons    = 56
  Nalpha       = 28
  Nbeta        = 28

  ==> Algorithm <==

  SCF Algorithm Type is DF.
  DIIS enabled.
  MOM disabled.
  Fractional occupation disabled.
  Guess Type is SAD.
  Energy threshold   = 1.00e-08
  Density threshold  = 1.00e-08
  Integral threshold = 0.00e+00

  ==> Primary Basis <==

  Basis Set: JUN-CC-PVTZ
    Blend: JUN-CC-PVTZ
    Number of shells: 163
    Number of basis function: 441
    Number of Cartesian functions: 495
    Spherical Harmonics?: true
    Max angular momentum: 3

   => Loading Basis Set <=

    Name: (JUN-CC-PVTZ AUX)
    Role: JKFIT
    Keyword: DF_BASIS_SCF
    atoms 1, 5, 7-10, 14-19 entry H          line    70 file /home/r08543048/miniconda3/share/psi4/basis/jun-cc-pvtz-jkfit.gbs 
    atoms 2-3, 6, 11-13     entry C          line   152 file /home/r08543048/miniconda3/share/psi4/basis/jun-cc-pvtz-jkfit.gbs 
    atoms 4                 entry O          line   272 file /home/r08543048/miniconda3/share/psi4/basis/jun-cc-pvtz-jkfit.gbs 

  ==> Pre-Iterations <==

   -------------------------------------------------------
    Irrep   Nso     Nmo     Nalpha   Nbeta   Ndocc  Nsocc
   -------------------------------------------------------
     A        441     441       0       0       0       0
   -------------------------------------------------------
    Total     441     441      28      28      28       0
   -------------------------------------------------------

  ==> Integral Setup <==

  ==> DiskDFJK: Density-Fitted J/K Matrices <==

    J tasked:                  Yes
    K tasked:                  Yes
    wK tasked:                  No
    OpenMP threads:              1
    Integrals threads:           1
    Memory [MiB]:            15735
    Algorithm:                Core
    Integral Cache:           SAVE
    Schwarz Cutoff:          1E-12
    Fitting Condition:       1E-10

   => Auxiliary Basis Set <=

  Basis Set: (JUN-CC-PVTZ AUX)
    Blend: JUN-CC-PVTZ-JKFIT
    Number of shells: 323
    Number of basis function: 1025
    Number of Cartesian functions: 1232
    Spherical Harmonics?: true
    Max angular momentum: 4

  Minimum eigenvalue in the overlap matrix is 3.4443446251E-05.
  Using Symmetric Orthogonalization.

  SCF Guess: Superposition of Atomic Densities via on-the-fly atomic UHF.

  ==> Iterations <==

                           Total Energy        Delta E     RMS |[F,P]|

   @DF-RHF iter SAD:  -307.64103052531794   -3.07641e+02   0.00000e+00 
   @DF-RHF iter   1:  -308.84958449920128   -1.20855e+00   1.61776e-03 DIIS
   @DF-RHF iter   2:  -309.07186664021549   -2.22282e-01   8.94761e-04 DIIS
   @DF-RHF iter   3:  -309.13426933283165   -6.24027e-02   1.94151e-04 DIIS
   @DF-RHF iter   4:  -309.13857215475599   -4.30282e-03   8.68468e-05 DIIS
   @DF-RHF iter   5:  -309.13944737844685   -8.75224e-04   1.29495e-05 DIIS
   @DF-RHF iter   6:  -309.13949094709693   -4.35687e-05   5.06866e-06 DIIS
   @DF-RHF iter   7:  -309.13949662432282   -5.67723e-06   2.13022e-06 DIIS
   @DF-RHF iter   8:  -309.13949774944365   -1.12512e-06   9.30398e-07 DIIS
   @DF-RHF iter   9:  -309.13949797111638   -2.21673e-07   2.47521e-07 DIIS
   @DF-RHF iter  10:  -309.13949798682069   -1.57043e-08   7.31667e-08 DIIS
   @DF-RHF iter  11:  -309.13949798809119   -1.27051e-09   2.02934e-08 DIIS
   @DF-RHF iter  12:  -309.13949798819510   -1.03910e-10   6.95220e-09 DIIS
  Energy and wave function converged.


  ==> Post-Iterations <==

    Orbital Energies [Eh]
    ---------------------

    Doubly Occupied:                                                      

       1A    -20.553285     2A    -11.330160     3A    -11.239753  
       4A    -11.235515     5A    -11.218318     6A    -11.218111  
       7A    -11.217991     8A     -1.385565     9A     -1.066024  
      10A     -1.060029    11A     -0.932893    12A     -0.909598  
      13A     -0.770684    14A     -0.758884    15A     -0.678028  
      16A     -0.641218    17A     -0.632685    18A     -0.624415  
      19A     -0.582023    20A     -0.568028    21A     -0.538913  
      22A     -0.526115    23A     -0.521280    24A     -0.517058  
      25A     -0.496664    26A     -0.483121    27A     -0.419614  
      28A     -0.360103  

    Virtual:                                                              

      29A      0.047412    30A      0.050885    31A      0.058300  
      32A      0.059302    33A      0.071266    34A      0.076050  
      35A      0.084347    36A      0.092419    37A      0.097196  
      38A      0.108801    39A      0.111137    40A      0.118699  
      41A      0.119906    42A      0.124982    43A      0.129307  
      44A      0.141261    45A      0.146528    46A      0.154454  
      47A      0.157214    48A      0.163383    49A      0.180424  
      50A      0.187987    51A      0.190519    52A      0.193422  
      53A      0.214852    54A      0.219269    55A      0.227211  
      56A      0.255324    57A      0.257773    58A      0.262660  
      59A      0.275705    60A      0.282574    61A      0.285723  
      62A      0.295040    63A      0.302556    64A      0.309119  
      65A      0.311460    66A      0.323572    67A      0.326411  
      68A      0.329053    69A      0.337543    70A      0.343967  
      71A      0.348793    72A      0.349678    73A      0.359564  
      74A      0.368554    75A      0.369199    76A      0.377988  
      77A      0.380618    78A      0.395176    79A      0.395815  
      80A      0.406810    81A      0.411539    82A      0.418556  
      83A      0.426835    84A      0.434229    85A      0.456117  
      86A      0.460298    87A      0.468171    88A      0.482362  
      89A      0.484388    90A      0.498427    91A      0.501197  
      92A      0.519660    93A      0.522204    94A      0.529900  
      95A      0.535219    96A      0.539690    97A      0.542857  
      98A      0.551073    99A      0.564100   100A      0.576966  
     101A      0.590417   102A      0.592327   103A      0.610073  
     104A      0.635121   105A      0.643786   106A      0.659083  
     107A      0.677953   108A      0.690794   109A      0.705434  
     110A      0.706986   111A      0.714852   112A      0.728300  
     113A      0.731466   114A      0.739432   115A      0.748145  
     116A      0.758949   117A      0.767203   118A      0.772311  
     119A      0.783330   120A      0.801374   121A      0.811444  
     122A      0.819237   123A      0.823880   124A      0.837557  
     125A      0.839477   126A      0.845932   127A      0.849981  
     128A      0.863039   129A      0.873552   130A      0.880071  
     131A      0.892707   132A      0.909584   133A      0.921082  
     134A      0.924260   135A      0.935477   136A      0.949850  
     137A      0.966876   138A      0.980438   139A      0.989104  
     140A      1.004264   141A      1.028285   142A      1.032350  
     143A      1.053036   144A      1.061667   145A      1.072505  
     146A      1.087529   147A      1.094973   148A      1.103373  
     149A      1.120345   150A      1.131503   151A      1.149005  
     152A      1.157132   153A      1.170826   154A      1.181836  
     155A      1.201157   156A      1.222058   157A      1.242983  
     158A      1.243163   159A      1.254730   160A      1.284277  
     161A      1.296508   162A      1.301381   163A      1.318970  
     164A      1.331468   165A      1.361423   166A      1.370519  
     167A      1.379534   168A      1.392847   169A      1.400163  
     170A      1.406940   171A      1.416838   172A      1.427406  
     173A      1.435626   174A      1.449736   175A      1.475492  
     176A      1.481494   177A      1.499909   178A      1.503003  
     179A      1.519271   180A      1.526018   181A      1.529894  
     182A      1.544209   183A      1.551389   184A      1.569556  
     185A      1.591298   186A      1.596023   187A      1.609617  
     188A      1.618507   189A      1.620595   190A      1.629786  
     191A      1.631300   192A      1.654866   193A      1.661720  
     194A      1.679567   195A      1.694671   196A      1.712497  
     197A      1.722367   198A      1.733780   199A      1.761844  
     200A      1.779003   201A      1.799293   202A      1.805461  
     203A      1.813248   204A      1.822993   205A      1.859871  
     206A      1.881762   207A      1.900730   208A      1.923016  
     209A      1.932788   210A      1.950628   211A      1.969277  
     212A      2.043168   213A      2.066847   214A      2.115823  
     215A      2.227002   216A      2.326916   217A      2.373333  
     218A      2.412426   219A      2.456575   220A      2.562985  
     221A      2.644444   222A      2.692100   223A      2.723620  
     224A      2.741095   225A      2.756479   226A      2.790044  
     227A      2.801922   228A      2.803937   229A      2.841479  
     230A      2.845023   231A      2.869943   232A      2.875589  
     233A      2.897465   234A      2.916772   235A      2.920422  
     236A      2.939206   237A      2.955484   238A      2.962697  
     239A      2.986466   240A      3.001834   241A      3.025350  
     242A      3.041014   243A      3.049480   244A      3.061779  
     245A      3.084767   246A      3.090078   247A      3.099136  
     248A      3.112632   249A      3.124107   250A      3.141138  
     251A      3.157815   252A      3.172490   253A      3.177623  
     254A      3.183643   255A      3.217583   256A      3.245022  
     257A      3.253900   258A      3.261579   259A      3.267075  
     260A      3.291871   261A      3.305000   262A      3.317463  
     263A      3.332647   264A      3.339276   265A      3.344955  
     266A      3.355450   267A      3.364447   268A      3.390556  
     269A      3.398115   270A      3.405441   271A      3.409524  
     272A      3.411409   273A      3.428269   274A      3.451852  
     275A      3.458161   276A      3.467625   277A      3.488253  
     278A      3.494694   279A      3.505606   280A      3.514116  
     281A      3.518095   282A      3.534157   283A      3.540871  
     284A      3.544977   285A      3.574844   286A      3.592703  
     287A      3.602765   288A      3.612748   289A      3.622624  
     290A      3.639012   291A      3.663925   292A      3.676011  
     293A      3.680039   294A      3.691818   295A      3.699789  
     296A      3.712441   297A      3.726134   298A      3.756458  
     299A      3.763727   300A      3.778839   301A      3.797427  
     302A      3.802681   303A      3.824772   304A      3.840122  
     305A      3.852372   306A      3.868841   307A      3.883055  
     308A      3.893022   309A      3.897692   310A      3.912979  
     311A      3.941186   312A      3.947063   313A      3.984673  
     314A      3.995489   315A      4.019785   316A      4.031662  
     317A      4.055193   318A      4.088248   319A      4.097056  
     320A      4.108749   321A      4.131638   322A      4.148230  
     323A      4.160531   324A      4.168894   325A      4.214480  
     326A      4.216715   327A      4.221163   328A      4.248314  
     329A      4.293216   330A      4.298352   331A      4.309578  
     332A      4.327252   333A      4.330905   334A      4.338546  
     335A      4.350868   336A      4.365664   337A      4.378421  
     338A      4.385474   339A      4.406750   340A      4.417785  
     341A      4.432069   342A      4.451676   343A      4.458632  
     344A      4.465759   345A      4.482830   346A      4.491445  
     347A      4.505213   348A      4.508054   349A      4.523404  
     350A      4.541911   351A      4.565051   352A      4.585432  
     353A      4.609069   354A      4.628445   355A      4.648898  
     356A      4.651859   357A      4.669855   358A      4.685393  
     359A      4.692073   360A      4.708107   361A      4.730293  
     362A      4.783381   363A      4.809463   364A      4.828294  
     365A      4.843584   366A      4.855454   367A      4.905349  
     368A      4.918440   369A      4.938560   370A      4.945350  
     371A      4.978308   372A      5.016090   373A      5.037885  
     374A      5.044947   375A      5.074580   376A      5.083280  
     377A      5.165312   378A      5.185287   379A      5.210616  
     380A      5.231535   381A      5.252267   382A      5.278661  
     383A      5.292478   384A      5.301233   385A      5.315819  
     386A      5.330661   387A      5.343774   388A      5.363113  
     389A      5.375519   390A      5.399626   391A      5.434702  
     392A      5.452835   393A      5.467646   394A      5.489707  
     395A      5.519252   396A      5.569306   397A      5.625075  
     398A      5.633721   399A      5.672950   400A      5.689928  
     401A      5.697701   402A      5.702967   403A      5.717990  
     404A      5.744346   405A      5.749789   406A      5.775884  
     407A      5.790659   408A      5.815527   409A      5.849646  
     410A      5.855157   411A      5.916502   412A      5.925708  
     413A      5.967345   414A      5.982427   415A      6.099516  
     416A      6.132123   417A      6.196427   418A      6.325026  
     419A      6.404388   420A      6.449620   421A      6.469726  
     422A      6.492594   423A      6.515552   424A      6.527593  
     425A      6.554955   426A      6.703036   427A      6.804127  
     428A      6.966212   429A      7.259329   430A      7.291703  
     431A      7.306451   432A      7.441381   433A      7.630947  
     434A      7.724554   435A     12.199550   436A     12.516721  
     437A     14.031517   438A     14.320031   439A     14.683401  
     440A     14.752316   441A     15.382536  

    Final Occupation by Irrep:
              A 
    DOCC [    28 ]

  @DF-RHF Final Energy:  -309.13949798819510

   => Energetics <=

    Nuclear Repulsion Energy =            292.2671851329794777
    One-Electron Energy =                -997.8412133696848514
    Two-Electron Energy =                 396.4345302485102138
    Total Energy =                       -309.1394979881951031

Computation Completed


Properties will be evaluated at   0.000000,   0.000000,   0.000000 [a0]

Properties computed using the SCF density matrix

  Nuclear Dipole Moment: [e a0]
     X:    -0.8734      Y:     3.4105      Z:     2.0827

  Electronic Dipole Moment: [e a0]
     X:     0.9711      Y:    -3.0320      Z:    -0.9903

  Dipole Moment: [e a0]
     X:     0.0977      Y:     0.3784      Z:     1.0924     Total:     1.1602

  Dipole Moment: [D]
     X:     0.2483      Y:     0.9619      Z:     2.7767     Total:     2.9490


*** tstop() called on r282 at Fri Sep 10 14:48:55 2021
Module time:
	user time   =      40.80 seconds =       0.68 minutes
	system time =       1.07 seconds =       0.02 minutes
	total time  =         42 seconds =       0.70 minutes
Total time:
	user time   =      40.80 seconds =       0.68 minutes
	system time =       1.07 seconds =       0.02 minutes
	total time  =         42 seconds =       0.70 minutes

  //>>>>>>>>>>>>>>>>>>>>>>>>>>>>>>>>>>>//
  //            Monomer A HF           //
  //<<<<<<<<<<<<<<<<<<<<<<<<<<<<<<<<<<<//


*** tstart() called on r282
*** at Fri Sep 10 14:48:55 2021

   => Loading Basis Set <=

    Name: JUN-CC-PVTZ
    Role: ORBITAL
    Keyword: BASIS
    atoms 1, 5, 7-10, 14-19 entry H          line    36 file /home/r08543048/miniconda3/share/psi4/basis/jun-cc-pvtz.gbs 
    atoms 2-3, 6, 11-13     entry C          line   217 file /home/r08543048/miniconda3/share/psi4/basis/jun-cc-pvtz.gbs 
    atoms 4                 entry O          line   305 file /home/r08543048/miniconda3/share/psi4/basis/jun-cc-pvtz.gbs 


         ---------------------------------------------------------
                                   SCF
               by Justin Turney, Rob Parrish, Andy Simmonett
                          and Daniel G. A. Smith
                              RHF Reference
                        1 Threads,  20980 MiB Core
         ---------------------------------------------------------

  ==> Geometry <==

    Molecular point group: c1
    Full point group: C1

    Geometry (in Angstrom), charge = 0, multiplicity = 1:

       Center              X                  Y                   Z               Mass       
    ------------   -----------------  -----------------  -----------------  -----------------
         H            0.347684501778    -1.547869530259     1.135581817800     1.007825032230
         C            1.736208501778     0.149502469741     0.850439817800    12.000000000000
         C            0.906600501778    -0.998126530259     0.355284817800    12.000000000000
         O            0.823668501778    -1.338613530259    -0.809457182200    15.994914619570
         H            2.434211501778    -0.258741530259     1.588931817800     1.007825032230
         C            2.457240501778     0.900674469741    -0.253481182200    12.000000000000
         H            3.114375501778     0.234290469741    -0.808930182200     1.007825032230
         H            1.743175501778     1.320098469741    -0.959886182200     1.007825032230
         H            3.053043501778     1.712450469741     0.159663817800     1.007825032230
         H            1.060701501778     0.801138469741     1.412964817800     1.007825032230
      Gh(C)          -1.344478498222     1.407454469741    -0.458328182200    12.000000000000
      Gh(C)          -2.198575498222     0.724323469741     0.309895817800    12.000000000000
      Gh(C)          -2.576268498222    -0.705687530259     0.088188817800    12.000000000000
      Gh(H)          -1.120332498222     2.446652469741    -0.259483182200     1.007825032230
      Gh(H)          -0.860096498222     0.937531469741    -1.305227182200     1.007825032230
      Gh(H)          -2.664750498222     1.232013469741     1.148660817800     1.007825032230
      Gh(H)          -3.643424498222    -0.793353530259    -0.122367182200     1.007825032230
      Gh(H)          -2.019386498222    -1.134391530259    -0.743574182200     1.007825032230
      Gh(H)          -2.381109498222    -1.305020530259     0.979447817800     1.007825032230

  Running in c1 symmetry.

  Rotational constants: A =      0.11737  B =      0.04344  C =      0.03686 [cm^-1]
  Rotational constants: A =   3518.59182  B =   1302.27511  C =   1105.13119 [MHz]
  Nuclear repulsion =  118.691441849321535

  Charge       = 0
  Multiplicity = 1
  Electrons    = 32
  Nalpha       = 16
  Nbeta        = 16

  ==> Algorithm <==

  SCF Algorithm Type is DF.
  DIIS enabled.
  MOM disabled.
  Fractional occupation disabled.
  Guess Type is SAD.
  Energy threshold   = 1.00e-08
  Density threshold  = 1.00e-08
  Integral threshold = 0.00e+00

  ==> Primary Basis <==

  Basis Set: JUN-CC-PVTZ
    Blend: JUN-CC-PVTZ
    Number of shells: 163
    Number of basis function: 441
    Number of Cartesian functions: 495
    Spherical Harmonics?: true
    Max angular momentum: 3

   => Loading Basis Set <=

    Name: (JUN-CC-PVTZ AUX)
    Role: JKFIT
    Keyword: DF_BASIS_SCF
    atoms 1, 5, 7-10, 14-19 entry H          line    70 file /home/r08543048/miniconda3/share/psi4/basis/jun-cc-pvtz-jkfit.gbs 
    atoms 2-3, 6, 11-13     entry C          line   152 file /home/r08543048/miniconda3/share/psi4/basis/jun-cc-pvtz-jkfit.gbs 
    atoms 4                 entry O          line   272 file /home/r08543048/miniconda3/share/psi4/basis/jun-cc-pvtz-jkfit.gbs 

  ==> Pre-Iterations <==

   -------------------------------------------------------
    Irrep   Nso     Nmo     Nalpha   Nbeta   Ndocc  Nsocc
   -------------------------------------------------------
     A        441     441       0       0       0       0
   -------------------------------------------------------
    Total     441     441      16      16      16       0
   -------------------------------------------------------

  ==> Integral Setup <==

  ==> DiskDFJK: Density-Fitted J/K Matrices <==

    J tasked:                  Yes
    K tasked:                  Yes
    wK tasked:                  No
    OpenMP threads:              1
    Integrals threads:           1
    Memory [MiB]:            15735
    Algorithm:                Core
    Integral Cache:           LOAD
    Schwarz Cutoff:          1E-12
    Fitting Condition:       1E-10

   => Auxiliary Basis Set <=

  Basis Set: (JUN-CC-PVTZ AUX)
    Blend: JUN-CC-PVTZ-JKFIT
    Number of shells: 323
    Number of basis function: 1025
    Number of Cartesian functions: 1232
    Spherical Harmonics?: true
    Max angular momentum: 4

  Minimum eigenvalue in the overlap matrix is 3.4443446251E-05.
  Using Symmetric Orthogonalization.

  SCF Guess: Superposition of Atomic Densities via on-the-fly atomic UHF.

  ==> Iterations <==

                           Total Energy        Delta E     RMS |[F,P]|

   @DF-RHF iter SAD:  -191.17990226192038   -1.91180e+02   0.00000e+00 
   @DF-RHF iter   1:  -191.85946769395809   -6.79565e-01   1.26039e-03 DIIS
   @DF-RHF iter   2:  -191.97487371533697   -1.15406e-01   8.07018e-04 DIIS
   @DF-RHF iter   3:  -192.02097489544641   -4.61012e-02   1.49335e-04 DIIS
   @DF-RHF iter   4:  -192.02375350903091   -2.77861e-03   6.36194e-05 DIIS
   @DF-RHF iter   5:  -192.02430058266566   -5.47074e-04   1.14926e-05 DIIS
   @DF-RHF iter   6:  -192.02433854509491   -3.79624e-05   4.36792e-06 DIIS
   @DF-RHF iter   7:  -192.02434372206994   -5.17698e-06   1.88523e-06 DIIS
   @DF-RHF iter   8:  -192.02434459375351   -8.71684e-07   5.91967e-07 DIIS
   @DF-RHF iter   9:  -192.02434469875683   -1.05003e-07   1.19790e-07 DIIS
   @DF-RHF iter  10:  -192.02434470287665   -4.11981e-09   2.49738e-08 DIIS
   @DF-RHF iter  11:  -192.02434470301671   -1.40062e-10   5.23320e-09 DIIS
  Energy and wave function converged.


  ==> Post-Iterations <==

    Orbital Energies [Eh]
    ---------------------

    Doubly Occupied:                                                      

       1A    -20.557931     2A    -11.332930     3A    -11.245439  
       4A    -11.221183     5A     -1.388497     6A     -1.064861  
       7A     -0.913225     8A     -0.774071     9A     -0.681194  
      10A     -0.636790    11A     -0.627614    12A     -0.542191  
      13A     -0.527696    14A     -0.520970    15A     -0.491424  
      16A     -0.423151  

    Virtual:                                                              

      17A      0.033878    18A      0.046298    19A      0.049366  
      20A      0.056021    21A      0.067393    22A      0.073947  
      23A      0.079628    24A      0.092518    25A      0.094609  
      26A      0.101524    27A      0.108382    28A      0.112919  
      29A      0.117001    30A      0.121980    31A      0.126185  
      32A      0.130127    33A      0.145377    34A      0.149048  
      35A      0.150677    36A      0.161266    37A      0.166909  
      38A      0.171477    39A      0.175501    40A      0.197971  
      41A      0.202056    42A      0.214913    43A      0.237865  
      44A      0.249893    45A      0.258382    46A      0.262454  
      47A      0.270602    48A      0.277911    49A      0.278904  
      50A      0.292008    51A      0.296288    52A      0.310726  
      53A      0.315769    54A      0.319067    55A      0.322085  
      56A      0.329877    57A      0.332229    58A      0.334051  
      59A      0.346398    60A      0.353226    61A      0.362528  
      62A      0.366827    63A      0.380483    64A      0.387582  
      65A      0.394263    66A      0.399278    67A      0.406940  
      68A      0.415064    69A      0.417426    70A      0.432174  
      71A      0.434155    72A      0.444907    73A      0.449598  
      74A      0.467030    75A      0.476048    76A      0.476786  
      77A      0.488632    78A      0.500097    79A      0.509994  
      80A      0.517278    81A      0.523482    82A      0.530197  
      83A      0.544074    84A      0.544575    85A      0.559405  
      86A      0.569717    87A      0.580102    88A      0.591721  
      89A      0.593690    90A      0.603969    91A      0.608457  
      92A      0.623755    93A      0.629163    94A      0.635230  
      95A      0.650081    96A      0.659931    97A      0.665750  
      98A      0.681860    99A      0.695773   100A      0.704695  
     101A      0.711860   102A      0.723275   103A      0.733339  
     104A      0.751452   105A      0.755177   106A      0.767550  
     107A      0.787591   108A      0.803470   109A      0.809977  
     110A      0.816264   111A      0.825118   112A      0.830504  
     113A      0.852205   114A      0.858089   115A      0.859326  
     116A      0.877464   117A      0.889018   118A      0.912628  
     119A      0.928157   120A      0.970640   121A      0.979354  
     122A      0.999687   123A      1.001352   124A      1.045023  
     125A      1.061556   126A      1.081389   127A      1.088899  
     128A      1.096363   129A      1.106796   130A      1.123046  
     131A      1.127467   132A      1.147587   133A      1.157870  
     134A      1.167290   135A      1.180486   136A      1.190675  
     137A      1.216667   138A      1.226202   139A      1.233869  
     140A      1.240104   141A      1.254079   142A      1.256335  
     143A      1.276759   144A      1.294087   145A      1.310420  
     146A      1.315458   147A      1.322048   148A      1.333584  
     149A      1.337163   150A      1.352075   151A      1.354602  
     152A      1.359419   153A      1.385582   154A      1.398079  
     155A      1.402884   156A      1.414176   157A      1.430632  
     158A      1.435759   159A      1.440020   160A      1.448977  
     161A      1.467462   162A      1.476312   163A      1.487721  
     164A      1.509508   165A      1.518210   166A      1.522060  
     167A      1.532762   168A      1.545753   169A      1.550367  
     170A      1.569171   171A      1.577123   172A      1.585132  
     173A      1.590297   174A      1.608936   175A      1.619391  
     176A      1.620672   177A      1.626179   178A      1.636336  
     179A      1.660616   180A      1.665085   181A      1.680043  
     182A      1.685631   183A      1.703799   184A      1.718788  
     185A      1.729267   186A      1.749140   187A      1.772194  
     188A      1.780382   189A      1.801418   190A      1.808663  
     191A      1.831636   192A      1.840084   193A      1.864919  
     194A      1.884477   195A      1.929898   196A      1.944330  
     197A      1.967799   198A      2.002367   199A      2.022750  
     200A      2.067201   201A      2.085261   202A      2.113399  
     203A      2.133953   204A      2.230365   205A      2.253632  
     206A      2.336749   207A      2.358101   208A      2.370766  
     209A      2.389955   210A      2.425945   211A      2.452015  
     212A      2.468122   213A      2.521888   214A      2.550664  
     215A      2.568227   216A      2.670633   217A      2.726088  
     218A      2.755704   219A      2.811820   220A      2.826003  
     221A      2.859747   222A      2.884324   223A      2.912877  
     224A      2.929201   225A      2.948272   226A      2.951107  
     227A      2.984863   228A      2.992644   229A      3.047589  
     230A      3.055063   231A      3.103830   232A      3.129585  
     233A      3.138148   234A      3.168466   235A      3.239396  
     236A      3.286080   237A      3.300740   238A      3.326807  
     239A      3.347289   240A      3.380771   241A      3.390628  
     242A      3.400878   243A      3.423381   244A      3.432929  
     245A      3.438487   246A      3.446704   247A      3.485818  
     248A      3.490373   249A      3.509475   250A      3.521366  
     251A      3.536381   252A      3.550393   253A      3.568642  
     254A      3.575530   255A      3.578676   256A      3.600939  
     257A      3.603704   258A      3.626301   259A      3.637121  
     260A      3.667314   261A      3.671983   262A      3.684788  
     263A      3.696021   264A      3.702073   265A      3.713832  
     266A      3.741855   267A      3.750720   268A      3.764471  
     269A      3.778490   270A      3.791437   271A      3.819355  
     272A      3.836032   273A      3.854996   274A      3.859024  
     275A      3.875202   276A      3.877522   277A      3.897558  
     278A      3.901928   279A      3.904840   280A      3.941871  
     281A      3.944567   282A      3.988834   283A      3.995384  
     284A      4.014327   285A      4.048110   286A      4.074347  
     287A      4.085652   288A      4.099199   289A      4.113699  
     290A      4.134282   291A      4.140319   292A      4.147780  
     293A      4.172424   294A      4.183118   295A      4.195299  
     296A      4.216368   297A      4.224395   298A      4.231353  
     299A      4.251115   300A      4.266748   301A      4.273266  
     302A      4.315291   303A      4.320125   304A      4.331683  
     305A      4.333503   306A      4.352075   307A      4.357598  
     308A      4.397629   309A      4.397856   310A      4.434597  
     311A      4.438533   312A      4.446676   313A      4.466144  
     314A      4.472156   315A      4.482575   316A      4.503166  
     317A      4.511722   318A      4.518120   319A      4.529683  
     320A      4.550388   321A      4.562807   322A      4.566697  
     323A      4.604340   324A      4.612698   325A      4.638519  
     326A      4.647861   327A      4.659114   328A      4.664294  
     329A      4.676974   330A      4.692035   331A      4.715984  
     332A      4.723736   333A      4.738914   334A      4.749218  
     335A      4.788743   336A      4.802669   337A      4.813789  
     338A      4.821710   339A      4.827999   340A      4.845367  
     341A      4.859953   342A      4.874416   343A      4.892537  
     344A      4.905910   345A      4.913463   346A      4.937351  
     347A      4.942251   348A      4.951346   349A      4.977952  
     350A      4.989698   351A      4.993242   352A      5.018115  
     353A      5.025594   354A      5.040472   355A      5.058207  
     356A      5.070647   357A      5.079806   358A      5.107648  
     359A      5.159143   360A      5.165979   361A      5.181213  
     362A      5.243111   363A      5.254317   364A      5.277037  
     365A      5.290311   366A      5.309807   367A      5.333031  
     368A      5.340084   369A      5.372953   370A      5.400352  
     371A      5.432360   372A      5.462235   373A      5.479522  
     374A      5.515777   375A      5.532069   376A      5.538237  
     377A      5.565253   378A      5.626463   379A      5.668633  
     380A      5.676046   381A      5.697349   382A      5.714757  
     383A      5.740921   384A      5.747326   385A      5.798323  
     386A      5.810259   387A      5.838858   388A      5.846558  
     389A      5.901337   390A      5.912493   391A      5.921270  
     392A      5.965493   393A      5.997484   394A      6.034700  
     395A      6.126184   396A      6.135559   397A      6.146168  
     398A      6.190484   399A      6.242863   400A      6.260312  
     401A      6.323393   402A      6.351775   403A      6.391670  
     404A      6.409628   405A      6.488961   406A      6.511828  
     407A      6.547521   408A      6.628321   409A      6.723286  
     410A      6.765751   411A      6.800642   412A      6.858173  
     413A      6.964787   414A      7.094793   415A      7.256266  
     416A      7.287728   417A      7.302684   418A      7.394395  
     419A      7.425289   420A      7.444946   421A      7.570005  
     422A      7.599165   423A      7.627479   424A      7.657489  
     425A      7.724347   426A      7.818757   427A      7.917835  
     428A      7.978487   429A      8.110000   430A      8.287635  
     431A      8.742596   432A      9.397266   433A      9.926797  
     434A     10.213290   435A     12.513582   436A     14.027148  
     437A     14.330604   438A     14.703510   439A     40.783358  
     440A     45.975801   441A     47.251594  

    Final Occupation by Irrep:
              A 
    DOCC [    16 ]

  @DF-RHF Final Energy:  -192.02434470301671

   => Energetics <=

    Nuclear Repulsion Energy =            118.6914418493215351
    One-Electron Energy =                -495.5332360920085080
    Two-Electron Energy =                 184.8174495396702923
    Total Energy =                       -192.0243447030167090

Computation Completed


Properties will be evaluated at   0.000000,   0.000000,   0.000000 [a0]

Properties computed using the SCF density matrix

  Nuclear Dipole Moment: [e a0]
     X:    92.4886      Y:   -15.3734      Z:     3.3375

  Electronic Dipole Moment: [e a0]
     X:   -92.2591      Y:    15.8867      Z:    -2.2241

  Dipole Moment: [e a0]
     X:     0.2294      Y:     0.5134      Z:     1.1134     Total:     1.2473

  Dipole Moment: [D]
     X:     0.5831      Y:     1.3048      Z:     2.8299     Total:     3.1703


*** tstop() called on r282 at Fri Sep 10 14:49:19 2021
Module time:
	user time   =      23.02 seconds =       0.38 minutes
	system time =       0.51 seconds =       0.01 minutes
	total time  =         24 seconds =       0.40 minutes
Total time:
	user time   =      63.82 seconds =       1.06 minutes
	system time =       1.58 seconds =       0.03 minutes
	total time  =         66 seconds =       1.10 minutes

  //>>>>>>>>>>>>>>>>>>>>>>>>>>>>>>>>>>>//
  //            Monomer B HF           //
  //<<<<<<<<<<<<<<<<<<<<<<<<<<<<<<<<<<<//


*** tstart() called on r282
*** at Fri Sep 10 14:49:19 2021

   => Loading Basis Set <=

    Name: JUN-CC-PVTZ
    Role: ORBITAL
    Keyword: BASIS
    atoms 1, 5, 7-10, 14-19 entry H          line    36 file /home/r08543048/miniconda3/share/psi4/basis/jun-cc-pvtz.gbs 
    atoms 2-3, 6, 11-13     entry C          line   217 file /home/r08543048/miniconda3/share/psi4/basis/jun-cc-pvtz.gbs 
    atoms 4                 entry O          line   305 file /home/r08543048/miniconda3/share/psi4/basis/jun-cc-pvtz.gbs 


         ---------------------------------------------------------
                                   SCF
               by Justin Turney, Rob Parrish, Andy Simmonett
                          and Daniel G. A. Smith
                              RHF Reference
                        1 Threads,  20980 MiB Core
         ---------------------------------------------------------

  ==> Geometry <==

    Molecular point group: c1
    Full point group: C1

    Geometry (in Angstrom), charge = 0, multiplicity = 1:

       Center              X                  Y                   Z               Mass       
    ------------   -----------------  -----------------  -----------------  -----------------
      Gh(H)           0.347684501778    -1.547869530259     1.135581817800     1.007825032230
      Gh(C)           1.736208501778     0.149502469741     0.850439817800    12.000000000000
      Gh(C)           0.906600501778    -0.998126530259     0.355284817800    12.000000000000
      Gh(O)           0.823668501778    -1.338613530259    -0.809457182200    15.994914619570
      Gh(H)           2.434211501778    -0.258741530259     1.588931817800     1.007825032230
      Gh(C)           2.457240501778     0.900674469741    -0.253481182200    12.000000000000
      Gh(H)           3.114375501778     0.234290469741    -0.808930182200     1.007825032230
      Gh(H)           1.743175501778     1.320098469741    -0.959886182200     1.007825032230
      Gh(H)           3.053043501778     1.712450469741     0.159663817800     1.007825032230
      Gh(H)           1.060701501778     0.801138469741     1.412964817800     1.007825032230
         C           -1.344478498222     1.407454469741    -0.458328182200    12.000000000000
         C           -2.198575498222     0.724323469741     0.309895817800    12.000000000000
         C           -2.576268498222    -0.705687530259     0.088188817800    12.000000000000
         H           -1.120332498222     2.446652469741    -0.259483182200     1.007825032230
         H           -0.860096498222     0.937531469741    -1.305227182200     1.007825032230
         H           -2.664750498222     1.232013469741     1.148660817800     1.007825032230
         H           -3.643424498222    -0.793353530259    -0.122367182200     1.007825032230
         H           -2.019386498222    -1.134391530259    -0.743574182200     1.007825032230
         H           -2.381109498222    -1.305020530259     0.979447817800     1.007825032230

  Running in c1 symmetry.

  Rotational constants: A =      0.11737  B =      0.04344  C =      0.03686 [cm^-1]
  Rotational constants: A =   3518.59182  B =   1302.27511  C =   1105.13119 [MHz]
  Nuclear repulsion =   70.842878560734732

  Charge       = 0
  Multiplicity = 1
  Electrons    = 24
  Nalpha       = 12
  Nbeta        = 12

  ==> Algorithm <==

  SCF Algorithm Type is DF.
  DIIS enabled.
  MOM disabled.
  Fractional occupation disabled.
  Guess Type is SAD.
  Energy threshold   = 1.00e-08
  Density threshold  = 1.00e-08
  Integral threshold = 0.00e+00

  ==> Primary Basis <==

  Basis Set: JUN-CC-PVTZ
    Blend: JUN-CC-PVTZ
    Number of shells: 163
    Number of basis function: 441
    Number of Cartesian functions: 495
    Spherical Harmonics?: true
    Max angular momentum: 3

   => Loading Basis Set <=

    Name: (JUN-CC-PVTZ AUX)
    Role: JKFIT
    Keyword: DF_BASIS_SCF
    atoms 1, 5, 7-10, 14-19 entry H          line    70 file /home/r08543048/miniconda3/share/psi4/basis/jun-cc-pvtz-jkfit.gbs 
    atoms 2-3, 6, 11-13     entry C          line   152 file /home/r08543048/miniconda3/share/psi4/basis/jun-cc-pvtz-jkfit.gbs 
    atoms 4                 entry O          line   272 file /home/r08543048/miniconda3/share/psi4/basis/jun-cc-pvtz-jkfit.gbs 

  ==> Pre-Iterations <==

   -------------------------------------------------------
    Irrep   Nso     Nmo     Nalpha   Nbeta   Ndocc  Nsocc
   -------------------------------------------------------
     A        441     441       0       0       0       0
   -------------------------------------------------------
    Total     441     441      12      12      12       0
   -------------------------------------------------------

  ==> Integral Setup <==

  ==> DiskDFJK: Density-Fitted J/K Matrices <==

    J tasked:                  Yes
    K tasked:                  Yes
    wK tasked:                  No
    OpenMP threads:              1
    Integrals threads:           1
    Memory [MiB]:            15735
    Algorithm:                Core
    Integral Cache:           LOAD
    Schwarz Cutoff:          1E-12
    Fitting Condition:       1E-10

   => Auxiliary Basis Set <=

  Basis Set: (JUN-CC-PVTZ AUX)
    Blend: JUN-CC-PVTZ-JKFIT
    Number of shells: 323
    Number of basis function: 1025
    Number of Cartesian functions: 1232
    Spherical Harmonics?: true
    Max angular momentum: 4

  Minimum eigenvalue in the overlap matrix is 3.4443446251E-05.
  Using Symmetric Orthogonalization.

  SCF Guess: Superposition of Atomic Densities via on-the-fly atomic UHF.

  ==> Iterations <==

                           Total Energy        Delta E     RMS |[F,P]|

   @DF-RHF iter SAD:  -116.33069379952398   -1.16331e+02   0.00000e+00 
   @DF-RHF iter   1:  -116.98788124200880   -6.57187e-01   1.03886e-03 DIIS
   @DF-RHF iter   2:  -117.09541075755997   -1.07530e-01   4.45973e-04 DIIS
   @DF-RHF iter   3:  -117.11547354876993   -2.00628e-02   8.01790e-05 DIIS
   @DF-RHF iter   4:  -117.11676752944484   -1.29398e-03   2.41218e-05 DIIS
   @DF-RHF iter   5:  -117.11684129238010   -7.37629e-05   6.50516e-06 DIIS
   @DF-RHF iter   6:  -117.11684752185235   -6.22947e-06   1.17115e-06 DIIS
   @DF-RHF iter   7:  -117.11684783118957   -3.09337e-07   4.30089e-07 DIIS
   @DF-RHF iter   8:  -117.11684787193060   -4.07410e-08   1.48834e-07 DIIS
   @DF-RHF iter   9:  -117.11684787776115   -5.83054e-09   5.41787e-08 DIIS
   @DF-RHF iter  10:  -117.11684787870504   -9.43899e-10   1.23577e-08 DIIS
   @DF-RHF iter  11:  -117.11684787874908   -4.40394e-11   2.18704e-09 DIIS
  Energy and wave function converged.


  ==> Post-Iterations <==

    Orbital Energies [Eh]
    ---------------------

    Doubly Occupied:                                                      

       1A    -11.234582     2A    -11.220922     3A    -11.217644  
       4A     -1.064620     5A     -0.932828     6A     -0.757923  
       7A     -0.639827     8A     -0.582717     9A     -0.568071  
      10A     -0.523535    11A     -0.493191    12A     -0.357754  

    Virtual:                                                              

      13A      0.035107    14A      0.047983    15A      0.053820  
      16A      0.058375    17A      0.068491    18A      0.074039  
      19A      0.082026    20A      0.090809    21A      0.091486  
      22A      0.105194    23A      0.107733    24A      0.115210  
      25A      0.117365    26A      0.121682    27A      0.126978  
      28A      0.135611    29A      0.149462    30A      0.151911  
      31A      0.157898    32A      0.162322    33A      0.164923  
      34A      0.173360    35A      0.184940    36A      0.194926  
      37A      0.205332    38A      0.209088    39A      0.221666  
      40A      0.229975    41A      0.239562    42A      0.254421  
      43A      0.269428    44A      0.282557    45A      0.290669  
      46A      0.294369    47A      0.305818    48A      0.310478  
      49A      0.315519    50A      0.327990    51A      0.329505  
      52A      0.338118    53A      0.341799    54A      0.345670  
      55A      0.352849    56A      0.359745    57A      0.371346  
      58A      0.374588    59A      0.382181    60A      0.392132  
      61A      0.393751    62A      0.396909    63A      0.404106  
      64A      0.409047    65A      0.412419    66A      0.422286  
      67A      0.436084    68A      0.448593    69A      0.455904  
      70A      0.465838    71A      0.476808    72A      0.481708  
      73A      0.491707    74A      0.503545    75A      0.513467  
      76A      0.521598    77A      0.532358    78A      0.534145  
      79A      0.535814    80A      0.542635    81A      0.550056  
      82A      0.561639    83A      0.575213    84A      0.580145  
      85A      0.598066    86A      0.604722    87A      0.621153  
      88A      0.626523    89A      0.636389    90A      0.641211  
      91A      0.650165    92A      0.660335    93A      0.680913  
      94A      0.693297    95A      0.698682    96A      0.711633  
      97A      0.730845    98A      0.743011    99A      0.761156  
     100A      0.770413   101A      0.778726   102A      0.782906  
     103A      0.793744   104A      0.812656   105A      0.818737  
     106A      0.833726   107A      0.840210   108A      0.853728  
     109A      0.876488   110A      0.894099   111A      0.901642  
     112A      0.914707   113A      0.926002   114A      0.941326  
     115A      0.950901   116A      0.967254   117A      0.975928  
     118A      0.991562   119A      0.996706   120A      1.010565  
     121A      1.032871   122A      1.056929   123A      1.070592  
     124A      1.075509   125A      1.093495   126A      1.104580  
     127A      1.109821   128A      1.126339   129A      1.132192  
     130A      1.159309   131A      1.161930   132A      1.191154  
     133A      1.194812   134A      1.206306   135A      1.216465  
     136A      1.228206   137A      1.240515   138A      1.251474  
     139A      1.256080   140A      1.268884   141A      1.273186  
     142A      1.280336   143A      1.297462   144A      1.315863  
     145A      1.322281   146A      1.338573   147A      1.359564  
     148A      1.365770   149A      1.377648   150A      1.384567  
     151A      1.394918   152A      1.406672   153A      1.414043  
     154A      1.421819   155A      1.459446   156A      1.464437  
     157A      1.469285   158A      1.477746   159A      1.491358  
     160A      1.509061   161A      1.519721   162A      1.530036  
     163A      1.550214   164A      1.556470   165A      1.570841  
     166A      1.585658   167A      1.597059   168A      1.600954  
     169A      1.604558   170A      1.620271   171A      1.631453  
     172A      1.639745   173A      1.646545   174A      1.664592  
     175A      1.675789   176A      1.699168   177A      1.703937  
     178A      1.715645   179A      1.741644   180A      1.758289  
     181A      1.773147   182A      1.779935   183A      1.793642  
     184A      1.804548   185A      1.866232   186A      1.878270  
     187A      1.896032   188A      1.904731   189A      1.925717  
     190A      1.938198   191A      1.957977   192A      1.989457  
     193A      2.040847   194A      2.068542   195A      2.096409  
     196A      2.107816   197A      2.140142   198A      2.181111  
     199A      2.192723   200A      2.235049   201A      2.281543  
     202A      2.362778   203A      2.410811   204A      2.425420  
     205A      2.463783   206A      2.536884   207A      2.594994  
     208A      2.632631   209A      2.661251   210A      2.684428  
     211A      2.736135   212A      2.764733   213A      2.785620  
     214A      2.815651   215A      2.824515   216A      2.864907  
     217A      2.873784   218A      2.877847   219A      2.887010  
     220A      2.926263   221A      2.937322   222A      2.970763  
     223A      3.005456   224A      3.026610   225A      3.035778  
     226A      3.078187   227A      3.087778   228A      3.098576  
     229A      3.115639   230A      3.179983   231A      3.183487  
     232A      3.203933   233A      3.208931   234A      3.231617  
     235A      3.249901   236A      3.278297   237A      3.286880  
     238A      3.305598   239A      3.333846   240A      3.353005  
     241A      3.368172   242A      3.390024   243A      3.412346  
     244A      3.432840   245A      3.446625   246A      3.490192  
     247A      3.504991   248A      3.508998   249A      3.519374  
     250A      3.524698   251A      3.552085   252A      3.570682  
     253A      3.589099   254A      3.604899   255A      3.609611  
     256A      3.627386   257A      3.634339   258A      3.658917  
     259A      3.672696   260A      3.680572   261A      3.687505  
     262A      3.708063   263A      3.737926   264A      3.746909  
     265A      3.765596   266A      3.795013   267A      3.798910  
     268A      3.808686   269A      3.816756   270A      3.830385  
     271A      3.837400   272A      3.849540   273A      3.859225  
     274A      3.877505   275A      3.895607   276A      3.902513  
     277A      3.926335   278A      3.940547   279A      3.976831  
     280A      3.983525   281A      4.000915   282A      4.024997  
     283A      4.037564   284A      4.050506   285A      4.055674  
     286A      4.085925   287A      4.097690   288A      4.124398  
     289A      4.142792   290A      4.154396   291A      4.159964  
     292A      4.212716   293A      4.232289   294A      4.252867  
     295A      4.274400   296A      4.297731   297A      4.306037  
     298A      4.314047   299A      4.329395   300A      4.356773  
     301A      4.370270   302A      4.399721   303A      4.409524  
     304A      4.420527   305A      4.436002   306A      4.445991  
     307A      4.449763   308A      4.468672   309A      4.490266  
     310A      4.497413   311A      4.505617   312A      4.518133  
     313A      4.530867   314A      4.548525   315A      4.556506  
     316A      4.577050   317A      4.596394   318A      4.608082  
     319A      4.618150   320A      4.627999   321A      4.643269  
     322A      4.650724   323A      4.666554   324A      4.688076  
     325A      4.706341   326A      4.719842   327A      4.727145  
     328A      4.731470   329A      4.774281   330A      4.792262  
     331A      4.794678   332A      4.815669   333A      4.822429  
     334A      4.834782   335A      4.847820   336A      4.865350  
     337A      4.872147   338A      4.884176   339A      4.885143  
     340A      4.903157   341A      4.921028   342A      4.934381  
     343A      4.939043   344A      4.959700   345A      4.976836  
     346A      4.980389   347A      4.996553   348A      5.004442  
     349A      5.020267   350A      5.040412   351A      5.064226  
     352A      5.091030   353A      5.098431   354A      5.118426  
     355A      5.149735   356A      5.180517   357A      5.198778  
     358A      5.221095   359A      5.230933   360A      5.279481  
     361A      5.302710   362A      5.322981   363A      5.337976  
     364A      5.364418   365A      5.374855   366A      5.401289  
     367A      5.447534   368A      5.466026   369A      5.488871  
     370A      5.565523   371A      5.575900   372A      5.621277  
     373A      5.627067   374A      5.663648   375A      5.689672  
     376A      5.700824   377A      5.739675   378A      5.771219  
     379A      5.786670   380A      5.803014   381A      5.849321  
     382A      5.872472   383A      5.882486   384A      5.975313  
     385A      6.036715   386A      6.082667   387A      6.097398  
     388A      6.116187   389A      6.160823   390A      6.239539  
     391A      6.327459   392A      6.370290   393A      6.385078  
     394A      6.405178   395A      6.436091   396A      6.447596  
     397A      6.455608   398A      6.474261   399A      6.505395  
     400A      6.509019   401A      6.538225   402A      6.630860  
     403A      6.660371   404A      6.704064   405A      6.876081  
     406A      6.901551   407A      6.975781   408A      7.028654  
     409A      7.329890   410A      7.362333   411A      7.546779  
     412A      7.564773   413A      7.701996   414A      7.711676  
     415A      7.800681   416A      7.888535   417A      7.903034  
     418A      8.021057   419A      8.143417   420A      8.260707  
     421A      8.469137   422A      8.565927   423A      9.433820  
     424A      9.487137   425A      9.661801   426A      9.837026  
     427A      9.877549   428A      9.914908   429A      9.934267  
     430A     10.092572   431A     11.032069   432A     11.699038  
     433A     11.986214   434A     12.228546   435A     13.748330  
     436A     14.715033   437A     15.378016   438A     43.673760  
     439A     44.927959   440A     45.848677   441A     60.797620  

    Final Occupation by Irrep:
              A 
    DOCC [    12 ]

  @DF-RHF Final Energy:  -117.11684787874908

   => Energetics <=

    Nuclear Repulsion Energy =             70.8428785607347322
    One-Electron Energy =                -296.7322255212372966
    Two-Electron Energy =                 108.7724990817534803
    Total Energy =                       -117.1168478787490841

Computation Completed


Properties will be evaluated at   0.000000,   0.000000,   0.000000 [a0]

Properties computed using the SCF density matrix

  Nuclear Dipole Moment: [e a0]
     X:   -93.3620      Y:    18.7838      Z:    -1.2548

  Electronic Dipole Moment: [e a0]
     X:    93.2636      Y:   -18.9102      Z:     1.3068

  Dipole Moment: [e a0]
     X:    -0.0984      Y:    -0.1264      Z:     0.0520     Total:     0.1684

  Dipole Moment: [D]
     X:    -0.2502      Y:    -0.3213      Z:     0.1321     Total:     0.4281


*** tstop() called on r282 at Fri Sep 10 14:49:41 2021
Module time:
	user time   =      21.96 seconds =       0.37 minutes
	system time =       0.45 seconds =       0.01 minutes
	total time  =         22 seconds =       0.37 minutes
Total time:
	user time   =      85.78 seconds =       1.43 minutes
	system time =       2.03 seconds =       0.03 minutes
	total time  =         88 seconds =       1.47 minutes
  Constructing Basis Sets for SAPT...

   => Loading Basis Set <=

    Name: (JUN-CC-PVTZ AUX)
    Role: RIFIT
    Keyword: DF_BASIS_SAPT
    atoms 1, 5, 7-10, 14-19 entry H          line    30 file /home/r08543048/miniconda3/share/psi4/basis/jun-cc-pvtz-ri.gbs 
    atoms 2-3, 6, 11-13     entry C          line   132 file /home/r08543048/miniconda3/share/psi4/basis/jun-cc-pvtz-ri.gbs 
    atoms 4                 entry O          line   244 file /home/r08543048/miniconda3/share/psi4/basis/jun-cc-pvtz-ri.gbs 


  //>>>>>>>>>>>>>>>>>>>>>>>>>>>>>>>>>>>//
  //               SAPT0               //
  //<<<<<<<<<<<<<<<<<<<<<<<<<<<<<<<<<<<//


*** tstart() called on r282
*** at Fri Sep 10 14:49:41 2021

        SAPT0  
    Ed Hohenstein
     6 June 2009

      Orbital Information
  --------------------------
    NSO        =       441
    NMO        =       441
    NRI        =      1039
    NOCC A     =        16
    NOCC B     =        12
    FOCC A     =         0
    FOCC B     =         0
    NVIR A     =       425
    NVIR B     =       429

    Elst10,r            =    -0.005088113057 [Eh]
    Exch10              =     0.007953542063 [Eh]
    Exch10 (S^2)        =     0.007924791725 [Eh]

    Iter     Energy [mEh]          dE [mEh]         Residual      Time [s]
       1      -0.49421534       0.494215340       4.074352389             1
       2      -0.54823869       0.054023346       1.879532989             2
       3      -0.58306668       0.034827997       0.514618499             2
       4      -0.58477003       0.001703349       0.182030657             4
       5      -0.58254682      -0.002223215       0.056287281             4
       6      -0.58273250       0.000185682       0.023849343             5
       7      -0.58288110       0.000148598       0.006194668             6
       8      -0.58284567      -0.000035432       0.002250114             6
       9      -0.58283977      -0.000005897       0.001166156             7
      10      -0.58284539       0.000005621       0.000594727             8
      11      -0.58284520      -0.000000193       0.000141014             8
      12      -0.58284471      -0.000000489       0.000031336             9
      13      -0.58284476       0.000000055       0.000009076            10
      14      -0.58284479       0.000000024       0.000002351            10
      15      -0.58284478      -0.000000004       0.000000565            11

    CHF Iterations converged


    Iter     Energy [mEh]          dE [mEh]         Residual      Time [s]
       1      -2.27945903       2.279459028       7.221963201             0
       2      -2.88720229       0.607743262       2.449804891             1
       3      -2.92322395       0.036021658       0.622256864             2
       4      -2.91147395      -0.011749993       0.265129959             2
       5      -2.90828261      -0.003191341       0.053160092             3
       6      -2.90933058       0.001047965       0.019340996             4
       7      -2.90936583       0.000035247       0.007461609             4
       8      -2.90926396      -0.000101870       0.001667496             5
       9      -2.90927314       0.000009187       0.000419867             5
      10      -2.90927580       0.000002652       0.000099451             6
      11      -2.90927504      -0.000000759       0.000023836             7
      12      -2.90927500      -0.000000033       0.000006901             7
      13      -2.90927504       0.000000037       0.000001673             8
      14      -2.90927504       0.000000002       0.000000432             9

    CHF Iterations converged

    Ind20,r (A<-B)      =    -0.000582844782 [Eh]
    Ind20,r (B<-A)      =    -0.002909275043 [Eh]
    Ind20,r             =    -0.003492119825 [Eh]
    Exch-Ind20,r (A<-B) =     0.000453840585 [Eh]
    Exch-Ind20,r (B<-A) =     0.002435910039 [Eh]
    Exch-Ind20,r        =     0.002889750623 [Eh]
    Disp20              =    -0.008448098244 [Eh]
    Disp20 (SS)         =    -0.004224049122 [Eh]
    Disp20 (OS)         =    -0.004224049122 [Eh]
    Exch-Disp20         =     0.000972855028 [Eh]
    Exch-Disp20 (SS)    =     0.000626634411 [Eh]
    Exch-Disp20 (OS)    =     0.000346220616 [Eh]

    SAPT Results 
  --------------------------------------------------------------------------------------------------------
    Electrostatics                 -5.08811306 [mEh]      -3.19283915 [kcal/mol]     -13.35883899 [kJ/mol]
      Elst10,r                     -5.08811306 [mEh]      -3.19283915 [kcal/mol]     -13.35883899 [kJ/mol]

    Exchange                        7.95354206 [mEh]       4.99092299 [kcal/mol]      20.88202181 [kJ/mol]
      Exch10                        7.95354206 [mEh]       4.99092299 [kcal/mol]      20.88202181 [kJ/mol]
      Exch10(S^2)                   7.92479172 [mEh]       4.97288189 [kcal/mol]      20.80653781 [kJ/mol]

    Induction                      -1.17083544 [mEh]      -0.73471033 [kcal/mol]      -3.07402801 [kJ/mol]
      Ind20,r                      -3.49211982 [mEh]      -2.19133827 [kcal/mol]      -9.16855934 [kJ/mol]
      Exch-Ind20,r                  2.88975062 [mEh]       1.81334589 [kcal/mol]       7.58703922 [kJ/mol]
      delta HF,r (2)               -0.56846623 [mEh]      -0.35671795 [kcal/mol]      -1.49250789 [kJ/mol]

    Dispersion                     -7.47524322 [mEh]      -4.69078594 [kcal/mol]     -19.62624836 [kJ/mol]
      Disp20                       -8.44809824 [mEh]      -5.30126168 [kcal/mol]     -22.18047888 [kJ/mol]
      Exch-Disp20                   0.97285503 [mEh]       0.61047575 [kcal/mol]       2.55423052 [kJ/mol]
      Disp20 (SS)                  -4.22404912 [mEh]      -2.65063084 [kcal/mol]     -11.09023944 [kJ/mol]
      Disp20 (OS)                  -4.22404912 [mEh]      -2.65063084 [kcal/mol]     -11.09023944 [kJ/mol]
      Exch-Disp20 (SS)              0.62663441 [mEh]       0.39321903 [kcal/mol]       1.64522842 [kJ/mol]
      Exch-Disp20 (OS)              0.34622062 [mEh]       0.21725672 [kcal/mol]       0.90900210 [kJ/mol]

  Total HF                          1.69459357 [mEh]       1.06337352 [kcal/mol]       4.44915481 [kJ/mol]
  Total SAPT0                      -5.78064965 [mEh]      -3.62741242 [kcal/mol]     -15.17709355 [kJ/mol]

  Special recipe for scaled SAPT0 (see Manual):
    Electrostatics sSAPT0          -5.08811306 [mEh]      -3.19283915 [kcal/mol]     -13.35883899 [kJ/mol]
    Exchange sSAPT0                 7.95354206 [mEh]       4.99092299 [kcal/mol]      20.88202181 [kJ/mol]
    Induction sSAPT0               -1.13927003 [mEh]      -0.71490274 [kcal/mol]      -2.99115306 [kJ/mol]
    Dispersion sSAPT0              -7.46461650 [mEh]      -4.68411757 [kcal/mol]     -19.59834792 [kJ/mol]
  Total sSAPT0                     -5.73845753 [mEh]      -3.60093646 [kcal/mol]     -15.06631816 [kJ/mol]
  --------------------------------------------------------------------------------------------------------

*** tstop() called on r282 at Fri Sep 10 14:50:59 2021
Module time:
	user time   =      63.82 seconds =       1.06 minutes
	system time =      12.48 seconds =       0.21 minutes
	total time  =         78 seconds =       1.30 minutes
Total time:
	user time   =     149.72 seconds =       2.50 minutes
	system time =      14.51 seconds =       0.24 minutes
	total time  =        166 seconds =       2.77 minutes

    Psi4 stopped on: Friday, 10 September 2021 02:50PM
    Psi4 wall time for execution: 0:02:46.25

*** Psi4 exiting successfully. Buy a developer a beer!
