
    -----------------------------------------------------------------------
          Psi4: An Open-Source Ab Initio Electronic Structure Package
                               Psi4 1.3.2 release

                         Git: Rev {HEAD} ecbda83 


    R. M. Parrish, L. A. Burns, D. G. A. Smith, A. C. Simmonett,
    A. E. DePrince III, E. G. Hohenstein, U. Bozkaya, A. Yu. Sokolov,
    R. Di Remigio, R. M. Richard, J. F. Gonthier, A. M. James,
    H. R. McAlexander, A. Kumar, M. Saitow, X. Wang, B. P. Pritchard,
    P. Verma, H. F. Schaefer III, K. Patkowski, R. A. King, E. F. Valeev,
    F. A. Evangelista, J. M. Turney, T. D. Crawford, and C. D. Sherrill,
    J. Chem. Theory Comput. 13(7) pp 3185--3197 (2017).
    (doi: 10.1021/acs.jctc.7b00174)


                         Additional Contributions by
    P. Kraus, H. Kruse, M. H. Lechner, M. C. Schieber, R. A. Shaw,
    A. Alenaizan, R. Galvelis, Z. L. Glick, S. Lehtola, and J. P. Misiewicz

    -----------------------------------------------------------------------


    Psi4 started on: Friday, 10 September 2021 02:34PM

    Process ID: 56751
    Host:       r282
    PSIDATADIR: /home/r08543048/miniconda3/share/psi4
    Memory:     500.0 MiB
    Threads:    1
    
  ==> Input File <==

--------------------------------------------------------------------------
# Any line starting with the # character is a comment line
#! Sample  computation

memory 22 gb

molecule Dimer {
0 1
 H   -0.367178    2.111301   -1.015861
 C    1.128661    0.504689   -0.744617
 C    0.223217    1.589965   -0.240615
 O    0.107772    1.901580    0.929964
 H    1.733027    0.928727   -1.554163
 C    2.001084   -0.131280    0.323143
 H    2.655339    0.630504    0.749975
 H    1.368759   -0.478057    1.140700
 H    0.480812   -0.237712   -1.226497
 C    2.824911   -1.283655   -0.236601
 H    2.177912   -2.066155   -0.636204
 H    3.473124   -0.945505   -1.046071
 H    3.454788   -1.730692    0.531439
  
  

    
    
 --
0 1
 C   -2.832200    0.277460   -0.480851
 C   -2.337095   -0.957775   -0.358209
 C   -1.544447   -1.436729    0.815839
 H   -3.411441    0.564695   -1.347499
 H   -2.672488    1.021282    0.289759
 H   -2.524510   -1.675205   -1.151176
 H   -0.589485   -1.860107    0.498071
 H   -1.347255   -0.623916    1.514053
 H   -2.078361   -2.227848    1.345231
   
   
   
   
   
   




units angstrom

no_reorient
symmetry c1
}

set globals{
  basis jun-cc-pvtz
}

energy('sapt0')


--------------------------------------------------------------------------

  Memory set to  20.489 GiB by Python driver.

  //>>>>>>>>>>>>>>>>>>>>>>>>>>>>>>>>>>>//
  //              Dimer HF             //
  //<<<<<<<<<<<<<<<<<<<<<<<<<<<<<<<<<<<//


*** tstart() called on r282
*** at Fri Sep 10 14:34:08 2021

   => Loading Basis Set <=

    Name: JUN-CC-PVTZ
    Role: ORBITAL
    Keyword: BASIS
    atoms 1, 5, 7-9, 11-13, 17-22 entry H          line    36 file /home/r08543048/miniconda3/share/psi4/basis/jun-cc-pvtz.gbs 
    atoms 2-3, 6, 10, 14-16       entry C          line   217 file /home/r08543048/miniconda3/share/psi4/basis/jun-cc-pvtz.gbs 
    atoms 4                       entry O          line   305 file /home/r08543048/miniconda3/share/psi4/basis/jun-cc-pvtz.gbs 


         ---------------------------------------------------------
                                   SCF
               by Justin Turney, Rob Parrish, Andy Simmonett
                          and Daniel G. A. Smith
                              RHF Reference
                        1 Threads,  20980 MiB Core
         ---------------------------------------------------------

  ==> Geometry <==

    Molecular point group: c1
    Full point group: C1

    Geometry (in Angstrom), charge = 0, multiplicity = 1:

       Center              X                  Y                   Z               Mass       
    ------------   -----------------  -----------------  -----------------  -----------------
         H           -0.346712819931     2.054094956027    -1.032412391877     1.007825032230
         C            1.149126180069     0.447482956027    -0.761168391877    12.000000000000
         C            0.243682180069     1.532758956027    -0.257166391877    12.000000000000
         O            0.128237180069     1.844373956027     0.913412608123    15.994914619570
         H            1.753492180069     0.871520956027    -1.570714391877     1.007825032230
         C            2.021549180069    -0.188486043973     0.306591608123    12.000000000000
         H            2.675804180069     0.573297956027     0.733423608123     1.007825032230
         H            1.389224180069    -0.535263043973     1.124148608123     1.007825032230
         H            0.501277180069    -0.294918043973    -1.243048391877     1.007825032230
         C            2.845376180069    -1.340861043973    -0.253152391877    12.000000000000
         H            2.198377180069    -2.123361043973    -0.652755391877     1.007825032230
         H            3.493589180069    -1.002711043973    -1.062622391877     1.007825032230
         H            3.475253180069    -1.787898043973     0.514887608123     1.007825032230
         C           -2.811734819931     0.220253956027    -0.497402391877    12.000000000000
         C           -2.316629819931    -1.014981043973    -0.374760391877    12.000000000000
         C           -1.523981819931    -1.493935043973     0.799287608123    12.000000000000
         H           -3.390975819931     0.507488956027    -1.364050391877     1.007825032230
         H           -2.652022819931     0.964075956027     0.273207608123     1.007825032230
         H           -2.504044819931    -1.732411043973    -1.167727391877     1.007825032230
         H           -0.569019819931    -1.917313043973     0.481519608123     1.007825032230
         H           -1.326789819931    -0.681122043973     1.497501608123     1.007825032230
         H           -2.057895819931    -2.285054043973     1.328679608123     1.007825032230

  Running in c1 symmetry.

  Rotational constants: A =      0.07445  B =      0.03548  C =      0.02816 [cm^-1]
  Rotational constants: A =   2232.03189  B =   1063.73776  C =    844.24654 [MHz]
  Nuclear repulsion =  366.809871899909922

  Charge       = 0
  Multiplicity = 1
  Electrons    = 64
  Nalpha       = 32
  Nbeta        = 32

  ==> Algorithm <==

  SCF Algorithm Type is DF.
  DIIS enabled.
  MOM disabled.
  Fractional occupation disabled.
  Guess Type is SAD.
  Energy threshold   = 1.00e-08
  Density threshold  = 1.00e-08
  Integral threshold = 0.00e+00

  ==> Primary Basis <==

  Basis Set: JUN-CC-PVTZ
    Blend: JUN-CC-PVTZ
    Number of shells: 188
    Number of basis function: 508
    Number of Cartesian functions: 570
    Spherical Harmonics?: true
    Max angular momentum: 3

   => Loading Basis Set <=

    Name: (JUN-CC-PVTZ AUX)
    Role: JKFIT
    Keyword: DF_BASIS_SCF
    atoms 1, 5, 7-9, 11-13, 17-22 entry H          line    70 file /home/r08543048/miniconda3/share/psi4/basis/jun-cc-pvtz-jkfit.gbs 
    atoms 2-3, 6, 10, 14-16       entry C          line   152 file /home/r08543048/miniconda3/share/psi4/basis/jun-cc-pvtz-jkfit.gbs 
    atoms 4                       entry O          line   272 file /home/r08543048/miniconda3/share/psi4/basis/jun-cc-pvtz-jkfit.gbs 

  ==> Pre-Iterations <==

   -------------------------------------------------------
    Irrep   Nso     Nmo     Nalpha   Nbeta   Ndocc  Nsocc
   -------------------------------------------------------
     A        508     508       0       0       0       0
   -------------------------------------------------------
    Total     508     508      32      32      32       0
   -------------------------------------------------------

  ==> Integral Setup <==

  ==> DiskDFJK: Density-Fitted J/K Matrices <==

    J tasked:                  Yes
    K tasked:                  Yes
    wK tasked:                  No
    OpenMP threads:              1
    Integrals threads:           1
    Memory [MiB]:            15735
    Algorithm:                Core
    Integral Cache:           SAVE
    Schwarz Cutoff:          1E-12
    Fitting Condition:       1E-10

   => Auxiliary Basis Set <=

  Basis Set: (JUN-CC-PVTZ AUX)
    Blend: JUN-CC-PVTZ-JKFIT
    Number of shells: 372
    Number of basis function: 1180
    Number of Cartesian functions: 1418
    Spherical Harmonics?: true
    Max angular momentum: 4

  Minimum eigenvalue in the overlap matrix is 2.9974167706E-05.
  Using Symmetric Orthogonalization.

  SCF Guess: Superposition of Atomic Densities via on-the-fly atomic UHF.

  ==> Iterations <==

                           Total Energy        Delta E     RMS |[F,P]|

   @DF-RHF iter SAD:  -346.73374746434558   -3.46734e+02   0.00000e+00 
   @DF-RHF iter   1:  -347.85273965082177   -1.11899e+00   1.49450e-03 DIIS
   @DF-RHF iter   2:  -348.11103238080545   -2.58293e-01   8.11437e-04 DIIS
   @DF-RHF iter   3:  -348.18069032358517   -6.96579e-02   1.79117e-04 DIIS
   @DF-RHF iter   4:  -348.18558418030608   -4.89386e-03   8.02458e-05 DIIS
   @DF-RHF iter   5:  -348.18653961769496   -9.55437e-04   1.21959e-05 DIIS
   @DF-RHF iter   6:  -348.18658471427818   -4.50966e-05   5.17769e-06 DIIS
   @DF-RHF iter   7:  -348.18659133902418   -6.62475e-06   2.04759e-06 DIIS
   @DF-RHF iter   8:  -348.18659275273006   -1.41371e-06   8.85759e-07 DIIS
   @DF-RHF iter   9:  -348.18659303133245   -2.78602e-07   2.59120e-07 DIIS
   @DF-RHF iter  10:  -348.18659305475046   -2.34180e-08   7.73853e-08 DIIS
   @DF-RHF iter  11:  -348.18659305691011   -2.15965e-09   2.30473e-08 DIIS
   @DF-RHF iter  12:  -348.18659305715050   -2.40391e-10   1.04007e-08 DIIS
   @DF-RHF iter  13:  -348.18659305722332   -7.28164e-11   5.45649e-09 DIIS
  Energy and wave function converged.


  ==> Post-Iterations <==

    Orbital Energies [Eh]
    ---------------------

    Doubly Occupied:                                                      

       1A    -20.552388     2A    -11.329067     3A    -11.237699  
       4A    -11.237618     5A    -11.223620     6A    -11.221163  
       7A    -11.220109     8A    -11.217769     9A     -1.384249  
      10A     -1.081424    11A     -1.067835    12A     -0.975644  
      13A     -0.935404    14A     -0.847015    15A     -0.768498  
      16A     -0.760255    17A     -0.670798    18A     -0.649829  
      19A     -0.643262    20A     -0.630419    21A     -0.584873  
      22A     -0.572332    23A     -0.567638    24A     -0.563639  
      25A     -0.525312    26A     -0.511199    27A     -0.503453  
      28A     -0.492870    29A     -0.489679    30A     -0.477158  
      31A     -0.417303    32A     -0.361931  

    Virtual:                                                              

      33A      0.043604    34A      0.049732    35A      0.056352  
      36A      0.058702    37A      0.066885    38A      0.073624  
      39A      0.079103    40A      0.087061    41A      0.090431  
      42A      0.101307    43A      0.106183    44A      0.112264  
      45A      0.116992    46A      0.119988    47A      0.123238  
      48A      0.131610    49A      0.139847    50A      0.145495  
      51A      0.147719    52A      0.150990    53A      0.160913  
      54A      0.162397    55A      0.176876    56A      0.182717  
      57A      0.188259    58A      0.190516    59A      0.201172  
      60A      0.206813    61A      0.220234    62A      0.227787  
      63A      0.241132    64A      0.246651    65A      0.253929  
      66A      0.258259    67A      0.273835    68A      0.276291  
      69A      0.288395    70A      0.294540    71A      0.298959  
      72A      0.303806    73A      0.307352    74A      0.317147  
      75A      0.320278    76A      0.328497    77A      0.333510  
      78A      0.337912    79A      0.344978    80A      0.349113  
      81A      0.356181    82A      0.362118    83A      0.364214  
      84A      0.367121    85A      0.368996    86A      0.375816  
      87A      0.388906    88A      0.389919    89A      0.399738  
      90A      0.401489    91A      0.409872    92A      0.412941  
      93A      0.418526    94A      0.429119    95A      0.430482  
      96A      0.437753    97A      0.453018    98A      0.463403  
      99A      0.469393   100A      0.485147   101A      0.486226  
     102A      0.500617   103A      0.507938   104A      0.510973  
     105A      0.523036   106A      0.526062   107A      0.534153  
     108A      0.539190   109A      0.544800   110A      0.549490  
     111A      0.557996   112A      0.564154   113A      0.567877  
     114A      0.576595   115A      0.591072   116A      0.595174  
     117A      0.598894   118A      0.619153   119A      0.637149  
     120A      0.653608   121A      0.664113   122A      0.674252  
     123A      0.680382   124A      0.692689   125A      0.702719  
     126A      0.705019   127A      0.721408   128A      0.723430  
     129A      0.735338   130A      0.741671   131A      0.750911  
     132A      0.763360   133A      0.767218   134A      0.777114  
     135A      0.785211   136A      0.792846   137A      0.795636  
     138A      0.801475   139A      0.810026   140A      0.826996  
     141A      0.833041   142A      0.837118   143A      0.843024  
     144A      0.853239   145A      0.856727   146A      0.873218  
     147A      0.878554   148A      0.882700   149A      0.894145  
     150A      0.910110   151A      0.916310   152A      0.924228  
     153A      0.942895   154A      0.946859   155A      0.957718  
     156A      0.964056   157A      0.977487   158A      0.980137  
     159A      0.993363   160A      1.000184   161A      1.012493  
     162A      1.025401   163A      1.049100   164A      1.057996  
     165A      1.067076   166A      1.082017   167A      1.086120  
     168A      1.107207   169A      1.111637   170A      1.122338  
     171A      1.141477   172A      1.146945   173A      1.153378  
     174A      1.188542   175A      1.195215   176A      1.197509  
     177A      1.215304   178A      1.234507   179A      1.236592  
     180A      1.244643   181A      1.266182   182A      1.278636  
     183A      1.291397   184A      1.301874   185A      1.305662  
     186A      1.320394   187A      1.338863   188A      1.341718  
     189A      1.353405   190A      1.363653   191A      1.368342  
     192A      1.383452   193A      1.397937   194A      1.413133  
     195A      1.422036   196A      1.427901   197A      1.430977  
     198A      1.435739   199A      1.445356   200A      1.468070  
     201A      1.485173   202A      1.488384   203A      1.503036  
     204A      1.507964   205A      1.528748   206A      1.530253  
     207A      1.540855   208A      1.553343   209A      1.561952  
     210A      1.563628   211A      1.578389   212A      1.591294  
     213A      1.600404   214A      1.607084   215A      1.609416  
     216A      1.620455   217A      1.633570   218A      1.650428  
     219A      1.654237   220A      1.668223   221A      1.669529  
     222A      1.678270   223A      1.691933   224A      1.713354  
     225A      1.728938   226A      1.744618   227A      1.748944  
     228A      1.762872   229A      1.786048   230A      1.814302  
     231A      1.816113   232A      1.838649   233A      1.859778  
     234A      1.866765   235A      1.875888   236A      1.890991  
     237A      1.910113   238A      1.924965   239A      1.927266  
     240A      1.934543   241A      1.983786   242A      2.000383  
     243A      2.024830   244A      2.041556   245A      2.055474  
     246A      2.073405   247A      2.211534   248A      2.228331  
     249A      2.332820   250A      2.392211   251A      2.415517  
     252A      2.473499   253A      2.582585   254A      2.650210  
     255A      2.697782   256A      2.727958   257A      2.737378  
     258A      2.761221   259A      2.769835   260A      2.773763  
     261A      2.796285   262A      2.830099   263A      2.836020  
     264A      2.846775   265A      2.865704   266A      2.874192  
     267A      2.878442   268A      2.892546   269A      2.912722  
     270A      2.916585   271A      2.947450   272A      2.971739  
     273A      2.975657   274A      2.996795   275A      3.009276  
     276A      3.029298   277A      3.030520   278A      3.061754  
     279A      3.075738   280A      3.082704   281A      3.093083  
     282A      3.098911   283A      3.110803   284A      3.124364  
     285A      3.128677   286A      3.140223   287A      3.148914  
     288A      3.158935   289A      3.172700   290A      3.188917  
     291A      3.197656   292A      3.229359   293A      3.234395  
     294A      3.240411   295A      3.259164   296A      3.273439  
     297A      3.284099   298A      3.290699   299A      3.296942  
     300A      3.311391   301A      3.319535   302A      3.320523  
     303A      3.345258   304A      3.350941   305A      3.361334  
     306A      3.365129   307A      3.376079   308A      3.387642  
     309A      3.403591   310A      3.417646   311A      3.420551  
     312A      3.435437   313A      3.436637   314A      3.453446  
     315A      3.463469   316A      3.465607   317A      3.486774  
     318A      3.493360   319A      3.501958   320A      3.509893  
     321A      3.512744   322A      3.523698   323A      3.531138  
     324A      3.540072   325A      3.552244   326A      3.560990  
     327A      3.573246   328A      3.577573   329A      3.593458  
     330A      3.604329   331A      3.613898   332A      3.627730  
     333A      3.640935   334A      3.647689   335A      3.651458  
     336A      3.684218   337A      3.692296   338A      3.702187  
     339A      3.724885   340A      3.751902   341A      3.756166  
     342A      3.761581   343A      3.772202   344A      3.778093  
     345A      3.784809   346A      3.799756   347A      3.822053  
     348A      3.823593   349A      3.846619   350A      3.853257  
     351A      3.876500   352A      3.885401   353A      3.891509  
     354A      3.925628   355A      3.934259   356A      3.936603  
     357A      3.956820   358A      3.964477   359A      3.977112  
     360A      3.988413   361A      4.003720   362A      4.018861  
     363A      4.044838   364A      4.046843   365A      4.058398  
     366A      4.087255   367A      4.091291   368A      4.111720  
     369A      4.136161   370A      4.154531   371A      4.173009  
     372A      4.185765   373A      4.199091   374A      4.218548  
     375A      4.220130   376A      4.255300   377A      4.265912  
     378A      4.283127   379A      4.288942   380A      4.308917  
     381A      4.319065   382A      4.323942   383A      4.334901  
     384A      4.348615   385A      4.353205   386A      4.356383  
     387A      4.372877   388A      4.385665   389A      4.398774  
     390A      4.403952   391A      4.413711   392A      4.423744  
     393A      4.441829   394A      4.457050   395A      4.463069  
     396A      4.478466   397A      4.496121   398A      4.501095  
     399A      4.507883   400A      4.525559   401A      4.536717  
     402A      4.552041   403A      4.565564   404A      4.594289  
     405A      4.599229   406A      4.622589   407A      4.627999  
     408A      4.636455   409A      4.643922   410A      4.660445  
     411A      4.668218   412A      4.699855   413A      4.705577  
     414A      4.715821   415A      4.756718   416A      4.780814  
     417A      4.816527   418A      4.818683   419A      4.834330  
     420A      4.850255   421A      4.873016   422A      4.873937  
     423A      4.893045   424A      4.917102   425A      4.925684  
     426A      4.941397   427A      4.996533   428A      5.007752  
     429A      5.036395   430A      5.063772   431A      5.074610  
     432A      5.096450   433A      5.108477   434A      5.119477  
     435A      5.148232   436A      5.180098   437A      5.186368  
     438A      5.207507   439A      5.236660   440A      5.276224  
     441A      5.279881   442A      5.299416   443A      5.310009  
     444A      5.323700   445A      5.344169   446A      5.358736  
     447A      5.366836   448A      5.375268   449A      5.392744  
     450A      5.408231   451A      5.417623   452A      5.434848  
     453A      5.446776   454A      5.488781   455A      5.519451  
     456A      5.561037   457A      5.579276   458A      5.596516  
     459A      5.623619   460A      5.635132   461A      5.668652  
     462A      5.689316   463A      5.695650   464A      5.701446  
     465A      5.714165   466A      5.757794   467A      5.761461  
     468A      5.789209   469A      5.801877   470A      5.810670  
     471A      5.853516   472A      5.863999   473A      5.885115  
     474A      5.907347   475A      5.945800   476A      5.959821  
     477A      5.969792   478A      5.982109   479A      6.103460  
     480A      6.118022   481A      6.137716   482A      6.255842  
     483A      6.325848   484A      6.405495   485A      6.449388  
     486A      6.497708   487A      6.504753   488A      6.522575  
     489A      6.539681   490A      6.585539   491A      6.607547  
     492A      6.702710   493A      6.804586   494A      6.984331  
     495A      7.255006   496A      7.294962   497A      7.308874  
     498A      7.438548   499A      7.642898   500A      7.726579  
     501A     12.180555   502A     12.600440   503A     13.916880  
     504A     14.315000   505A     14.475745   506A     14.540580  
     507A     14.811185   508A     15.357975  

    Final Occupation by Irrep:
              A 
    DOCC [    32 ]

  @DF-RHF Final Energy:  -348.18659305722332

   => Energetics <=

    Nuclear Repulsion Energy =            366.8098718999099219
    One-Electron Energy =               -1198.5500253905074715
    Two-Electron Energy =                 483.5535604333742299
    Total Energy =                       -348.1865930572233196

Computation Completed


Properties will be evaluated at   0.000000,   0.000000,   0.000000 [a0]

Properties computed using the SCF density matrix

  Nuclear Dipole Moment: [e a0]
     X:     2.4751      Y:    -6.9186      Z:    -2.0018

  Electronic Dipole Moment: [e a0]
     X:    -2.1942      Y:     6.3378      Z:     1.0382

  Dipole Moment: [e a0]
     X:     0.2810      Y:    -0.5809      Z:    -0.9636     Total:     1.1597

  Dipole Moment: [D]
     X:     0.7141      Y:    -1.4764      Z:    -2.4492     Total:     2.9476


*** tstop() called on r282 at Fri Sep 10 14:35:27 2021
Module time:
	user time   =      77.28 seconds =       1.29 minutes
	system time =       1.48 seconds =       0.02 minutes
	total time  =         79 seconds =       1.32 minutes
Total time:
	user time   =      77.28 seconds =       1.29 minutes
	system time =       1.48 seconds =       0.02 minutes
	total time  =         79 seconds =       1.32 minutes

  //>>>>>>>>>>>>>>>>>>>>>>>>>>>>>>>>>>>//
  //            Monomer A HF           //
  //<<<<<<<<<<<<<<<<<<<<<<<<<<<<<<<<<<<//


*** tstart() called on r282
*** at Fri Sep 10 14:35:27 2021

   => Loading Basis Set <=

    Name: JUN-CC-PVTZ
    Role: ORBITAL
    Keyword: BASIS
    atoms 1, 5, 7-9, 11-13, 17-22 entry H          line    36 file /home/r08543048/miniconda3/share/psi4/basis/jun-cc-pvtz.gbs 
    atoms 2-3, 6, 10, 14-16       entry C          line   217 file /home/r08543048/miniconda3/share/psi4/basis/jun-cc-pvtz.gbs 
    atoms 4                       entry O          line   305 file /home/r08543048/miniconda3/share/psi4/basis/jun-cc-pvtz.gbs 


         ---------------------------------------------------------
                                   SCF
               by Justin Turney, Rob Parrish, Andy Simmonett
                          and Daniel G. A. Smith
                              RHF Reference
                        1 Threads,  20980 MiB Core
         ---------------------------------------------------------

  ==> Geometry <==

    Molecular point group: c1
    Full point group: C1

    Geometry (in Angstrom), charge = 0, multiplicity = 1:

       Center              X                  Y                   Z               Mass       
    ------------   -----------------  -----------------  -----------------  -----------------
         H           -0.346712819931     2.054094956027    -1.032412391877     1.007825032230
         C            1.149126180069     0.447482956027    -0.761168391877    12.000000000000
         C            0.243682180069     1.532758956027    -0.257166391877    12.000000000000
         O            0.128237180069     1.844373956027     0.913412608123    15.994914619570
         H            1.753492180069     0.871520956027    -1.570714391877     1.007825032230
         C            2.021549180069    -0.188486043973     0.306591608123    12.000000000000
         H            2.675804180069     0.573297956027     0.733423608123     1.007825032230
         H            1.389224180069    -0.535263043973     1.124148608123     1.007825032230
         H            0.501277180069    -0.294918043973    -1.243048391877     1.007825032230
         C            2.845376180069    -1.340861043973    -0.253152391877    12.000000000000
         H            2.198377180069    -2.123361043973    -0.652755391877     1.007825032230
         H            3.493589180069    -1.002711043973    -1.062622391877     1.007825032230
         H            3.475253180069    -1.787898043973     0.514887608123     1.007825032230
      Gh(C)          -2.811734819931     0.220253956027    -0.497402391877    12.000000000000
      Gh(C)          -2.316629819931    -1.014981043973    -0.374760391877    12.000000000000
      Gh(C)          -1.523981819931    -1.493935043973     0.799287608123    12.000000000000
      Gh(H)          -3.390975819931     0.507488956027    -1.364050391877     1.007825032230
      Gh(H)          -2.652022819931     0.964075956027     0.273207608123     1.007825032230
      Gh(H)          -2.504044819931    -1.732411043973    -1.167727391877     1.007825032230
      Gh(H)          -0.569019819931    -1.917313043973     0.481519608123     1.007825032230
      Gh(H)          -1.326789819931    -0.681122043973     1.497501608123     1.007825032230
      Gh(H)          -2.057895819931    -2.285054043973     1.328679608123     1.007825032230

  Running in c1 symmetry.

  Rotational constants: A =      0.07445  B =      0.03548  C =      0.02816 [cm^-1]
  Rotational constants: A =   2232.03189  B =   1063.73776  C =    844.24654 [MHz]
  Nuclear repulsion =  172.415729642145749

  Charge       = 0
  Multiplicity = 1
  Electrons    = 40
  Nalpha       = 20
  Nbeta        = 20

  ==> Algorithm <==

  SCF Algorithm Type is DF.
  DIIS enabled.
  MOM disabled.
  Fractional occupation disabled.
  Guess Type is SAD.
  Energy threshold   = 1.00e-08
  Density threshold  = 1.00e-08
  Integral threshold = 0.00e+00

  ==> Primary Basis <==

  Basis Set: JUN-CC-PVTZ
    Blend: JUN-CC-PVTZ
    Number of shells: 188
    Number of basis function: 508
    Number of Cartesian functions: 570
    Spherical Harmonics?: true
    Max angular momentum: 3

   => Loading Basis Set <=

    Name: (JUN-CC-PVTZ AUX)
    Role: JKFIT
    Keyword: DF_BASIS_SCF
    atoms 1, 5, 7-9, 11-13, 17-22 entry H          line    70 file /home/r08543048/miniconda3/share/psi4/basis/jun-cc-pvtz-jkfit.gbs 
    atoms 2-3, 6, 10, 14-16       entry C          line   152 file /home/r08543048/miniconda3/share/psi4/basis/jun-cc-pvtz-jkfit.gbs 
    atoms 4                       entry O          line   272 file /home/r08543048/miniconda3/share/psi4/basis/jun-cc-pvtz-jkfit.gbs 

  ==> Pre-Iterations <==

   -------------------------------------------------------
    Irrep   Nso     Nmo     Nalpha   Nbeta   Ndocc  Nsocc
   -------------------------------------------------------
     A        508     508       0       0       0       0
   -------------------------------------------------------
    Total     508     508      20      20      20       0
   -------------------------------------------------------

  ==> Integral Setup <==

  ==> DiskDFJK: Density-Fitted J/K Matrices <==

    J tasked:                  Yes
    K tasked:                  Yes
    wK tasked:                  No
    OpenMP threads:              1
    Integrals threads:           1
    Memory [MiB]:            15735
    Algorithm:                Core
    Integral Cache:           LOAD
    Schwarz Cutoff:          1E-12
    Fitting Condition:       1E-10

   => Auxiliary Basis Set <=

  Basis Set: (JUN-CC-PVTZ AUX)
    Blend: JUN-CC-PVTZ-JKFIT
    Number of shells: 372
    Number of basis function: 1180
    Number of Cartesian functions: 1418
    Spherical Harmonics?: true
    Max angular momentum: 4

  Minimum eigenvalue in the overlap matrix is 2.9974167706E-05.
  Using Symmetric Orthogonalization.

  SCF Guess: Superposition of Atomic Densities via on-the-fly atomic UHF.

  ==> Iterations <==

                           Total Energy        Delta E     RMS |[F,P]|

   @DF-RHF iter SAD:  -230.24382696210205   -2.30244e+02   0.00000e+00 
   @DF-RHF iter   1:  -230.86145478558586   -6.17628e-01   1.21336e-03 DIIS
   @DF-RHF iter   2:  -231.01345220069683   -1.51997e-01   7.43918e-04 DIIS
   @DF-RHF iter   3:  -231.06770673490885   -5.42545e-02   1.46438e-04 DIIS
   @DF-RHF iter   4:  -231.07113489151644   -3.42816e-03   6.28163e-05 DIIS
   @DF-RHF iter   5:  -231.07179044857156   -6.55557e-04   1.09915e-05 DIIS
   @DF-RHF iter   6:  -231.07183039178571   -3.99432e-05   4.53893e-06 DIIS
   @DF-RHF iter   7:  -231.07183666587881   -6.27409e-06   1.99291e-06 DIIS
   @DF-RHF iter   8:  -231.07183798623075   -1.32035e-06   6.51825e-07 DIIS
   @DF-RHF iter   9:  -231.07183816419337   -1.77963e-07   1.21588e-07 DIIS
   @DF-RHF iter  10:  -231.07183817009252   -5.89915e-09   3.20301e-08 DIIS
   @DF-RHF iter  11:  -231.07183817036054   -2.68017e-10   9.57026e-09 DIIS
  Energy and wave function converged.


  ==> Post-Iterations <==

    Orbital Energies [Eh]
    ---------------------

    Doubly Occupied:                                                      

       1A    -20.557087     2A    -11.332505     3A    -11.242301  
       4A    -11.225787     5A    -11.218532     6A     -1.387434  
       7A     -1.083773     8A     -0.978233     9A     -0.849250  
      10A     -0.771003    11A     -0.674006    12A     -0.650542  
      13A     -0.633296    14A     -0.570801    15A     -0.568191  
      16A     -0.512908    17A     -0.502384    18A     -0.492149  
      19A     -0.480354    20A     -0.420769  

    Virtual:                                                              

      21A      0.032245    22A      0.044364    23A      0.047303  
      24A      0.056062    25A      0.062390    26A      0.072010  
      27A      0.077140    28A      0.083479    29A      0.089882  
      30A      0.098416    31A      0.102905    32A      0.106593  
      33A      0.111800    34A      0.118329    35A      0.119044  
      36A      0.122874    37A      0.132932    38A      0.141394  
      39A      0.146555    40A      0.147350    41A      0.153060  
      42A      0.159523    43A      0.165156    44A      0.169686  
      45A      0.178408    46A      0.182841    47A      0.194415  
      48A      0.203192    49A      0.218457    50A      0.229110  
      51A      0.243311    52A      0.244969    53A      0.256847  
      54A      0.263344    55A      0.266259    56A      0.278684  
      57A      0.283838    58A      0.291465    59A      0.295152  
      60A      0.303389    61A      0.305446    62A      0.311821  
      63A      0.323388    64A      0.326065    65A      0.330195  
      66A      0.336894    67A      0.338440    68A      0.345860  
      69A      0.357166    70A      0.358819    71A      0.362121  
      72A      0.375189    73A      0.377900    74A      0.385422  
      75A      0.388587    76A      0.398682    77A      0.401753  
      78A      0.409654    79A      0.417932    80A      0.422258  
      81A      0.430946    82A      0.435757    83A      0.441251  
      84A      0.450218    85A      0.454864    86A      0.461067  
      87A      0.476761    88A      0.479504    89A      0.487052  
      90A      0.488769    91A      0.506240    92A      0.518947  
      93A      0.527626    94A      0.534708    95A      0.543425  
      96A      0.552423    97A      0.556189    98A      0.564324  
      99A      0.572968   100A      0.576142   101A      0.579153  
     102A      0.583390   103A      0.589658   104A      0.598412  
     105A      0.609619   106A      0.622193   107A      0.626039  
     108A      0.630837   109A      0.644022   110A      0.657486  
     111A      0.659779   112A      0.667186   113A      0.677690  
     114A      0.687384   115A      0.692157   116A      0.706435  
     117A      0.713355   118A      0.719467   119A      0.735650  
     120A      0.738821   121A      0.759964   122A      0.763584  
     123A      0.780139   124A      0.797403   125A      0.803764  
     126A      0.815464   127A      0.827494   128A      0.834492  
     129A      0.838974   130A      0.843293   131A      0.853832  
     132A      0.858514   133A      0.877872   134A      0.886971  
     135A      0.904891   136A      0.910579   137A      0.919964  
     138A      0.935578   139A      0.952006   140A      0.964882  
     141A      0.985014   142A      0.996478   143A      1.011133  
     144A      1.021898   145A      1.055650   146A      1.064746  
     147A      1.076006   148A      1.084756   149A      1.109990  
     150A      1.118069   151A      1.135821   152A      1.139890  
     153A      1.149536   154A      1.154986   155A      1.165752  
     156A      1.171346   157A      1.184534   158A      1.196239  
     159A      1.203925   160A      1.214964   161A      1.234925  
     162A      1.240498   163A      1.249871   164A      1.260685  
     165A      1.268750   166A      1.293580   167A      1.300168  
     168A      1.307595   169A      1.321395   170A      1.330163  
     171A      1.334738   172A      1.346753   173A      1.354845  
     174A      1.366928   175A      1.376534   176A      1.383406  
     177A      1.386522   178A      1.397422   179A      1.404377  
     180A      1.409951   181A      1.418313   182A      1.432015  
     183A      1.445308   184A      1.450479   185A      1.459956  
     186A      1.468686   187A      1.474078   188A      1.494156  
     189A      1.497931   190A      1.504150   191A      1.527939  
     192A      1.534671   193A      1.538122   194A      1.544697  
     195A      1.559435   196A      1.565274   197A      1.570689  
     198A      1.579611   199A      1.591311   200A      1.599806  
     201A      1.602029   202A      1.610718   203A      1.626533  
     204A      1.637075   205A      1.642644   206A      1.653601  
     207A      1.666937   208A      1.681713   209A      1.690466  
     210A      1.691165   211A      1.696690   212A      1.714448  
     213A      1.742150   214A      1.745871   215A      1.753484  
     216A      1.770197   217A      1.792060   218A      1.809454  
     219A      1.829465   220A      1.844608   221A      1.860253  
     222A      1.881838   223A      1.887004   224A      1.895129  
     225A      1.920687   226A      1.936138   227A      1.959297  
     228A      1.992530   229A      2.006649   230A      2.020949  
     231A      2.027923   232A      2.049932   233A      2.074691  
     234A      2.092112   235A      2.129455   236A      2.215865  
     237A      2.240855   238A      2.280565   239A      2.328207  
     240A      2.365671   241A      2.394258   242A      2.404060  
     243A      2.423390   244A      2.448181   245A      2.482687  
     246A      2.531814   247A      2.558049   248A      2.590456  
     249A      2.675202   250A      2.727980   251A      2.743514  
     252A      2.775777   253A      2.795166   254A      2.837830  
     255A      2.869683   256A      2.875303   257A      2.889535  
     258A      2.909047   259A      2.912084   260A      2.946312  
     261A      2.991957   262A      2.996386   263A      3.033226  
     264A      3.056273   265A      3.073800   266A      3.107797  
     267A      3.117120   268A      3.128641   269A      3.139387  
     270A      3.156429   271A      3.178318   272A      3.213136  
     273A      3.267301   274A      3.281834   275A      3.302086  
     276A      3.313477   277A      3.329392   278A      3.343724  
     279A      3.354346   280A      3.386618   281A      3.405677  
     282A      3.428428   283A      3.434072   284A      3.446404  
     285A      3.449398   286A      3.455212   287A      3.469091  
     288A      3.485394   289A      3.499448   290A      3.510198  
     291A      3.514532   292A      3.538515   293A      3.541078  
     294A      3.553058   295A      3.561355   296A      3.576410  
     297A      3.581340   298A      3.583443   299A      3.606356  
     300A      3.621018   301A      3.626322   302A      3.628953  
     303A      3.641234   304A      3.674609   305A      3.685650  
     306A      3.701973   307A      3.707016   308A      3.726940  
     309A      3.731866   310A      3.749950   311A      3.754894  
     312A      3.771317   313A      3.778259   314A      3.785897  
     315A      3.795691   316A      3.798303   317A      3.836381  
     318A      3.842116   319A      3.869045   320A      3.875048  
     321A      3.882339   322A      3.896326   323A      3.917897  
     324A      3.931266   325A      3.940062   326A      3.945379  
     327A      3.952509   328A      3.956424   329A      3.992071  
     330A      4.003311   331A      4.022339   332A      4.040309  
     333A      4.055018   334A      4.079560   335A      4.091058  
     336A      4.098848   337A      4.116886   338A      4.143591  
     339A      4.156172   340A      4.178645   341A      4.187618  
     342A      4.190286   343A      4.201814   344A      4.211875  
     345A      4.217241   346A      4.238312   347A      4.251699  
     348A      4.267789   349A      4.275346   350A      4.286276  
     351A      4.306374   352A      4.323726   353A      4.326976  
     354A      4.331758   355A      4.342319   356A      4.353194  
     357A      4.360542   358A      4.373305   359A      4.398014  
     360A      4.411049   361A      4.413490   362A      4.437759  
     363A      4.447882   364A      4.472309   365A      4.477797  
     366A      4.481555   367A      4.497330   368A      4.512105  
     369A      4.515689   370A      4.531675   371A      4.540701  
     372A      4.549298   373A      4.561075   374A      4.567881  
     375A      4.589320   376A      4.602953   377A      4.619317  
     378A      4.629754   379A      4.640389   380A      4.657715  
     381A      4.664891   382A      4.682145   383A      4.689387  
     384A      4.692460   385A      4.708959   386A      4.723023  
     387A      4.746761   388A      4.764211   389A      4.788250  
     390A      4.798357   391A      4.812771   392A      4.821766  
     393A      4.834008   394A      4.841312   395A      4.846801  
     396A      4.859978   397A      4.873481   398A      4.877886  
     399A      4.891886   400A      4.902021   401A      4.931297  
     402A      4.938175   403A      4.948436   404A      4.970578  
     405A      4.981636   406A      4.998437   407A      5.008215  
     408A      5.011361   409A      5.023770   410A      5.052150  
     411A      5.062158   412A      5.082508   413A      5.093418  
     414A      5.099729   415A      5.112905   416A      5.143165  
     417A      5.157508   418A      5.161187   419A      5.182368  
     420A      5.200469   421A      5.258805   422A      5.276710  
     423A      5.282011   424A      5.295534   425A      5.322123  
     426A      5.335117   427A      5.362387   428A      5.370537  
     429A      5.402010   430A      5.408532   431A      5.417364  
     432A      5.435107   433A      5.482379   434A      5.517405  
     435A      5.530684   436A      5.536613   437A      5.561664  
     438A      5.579289   439A      5.597276   440A      5.622704  
     441A      5.667734   442A      5.678562   443A      5.697777  
     444A      5.711349   445A      5.756496   446A      5.761454  
     447A      5.799404   448A      5.803583   449A      5.845074  
     450A      5.847522   451A      5.882552   452A      5.903935  
     453A      5.909275   454A      5.947594   455A      5.957348  
     456A      5.977987   457A      5.993944   458A      6.031064  
     459A      6.112365   460A      6.125394   461A      6.134617  
     462A      6.146090   463A      6.238415   464A      6.252498  
     465A      6.261396   466A      6.322722   467A      6.362181  
     468A      6.397346   469A      6.407341   470A      6.506189  
     471A      6.524703   472A      6.576450   473A      6.604087  
     474A      6.621808   475A      6.727790   476A      6.761218  
     477A      6.800698   478A      6.843511   479A      6.980709  
     480A      7.093672   481A      7.251264   482A      7.291526  
     483A      7.305125   484A      7.392975   485A      7.430778  
     486A      7.437770   487A      7.588222   488A      7.603941  
     489A      7.641287   490A      7.662575   491A      7.723800  
     492A      7.819120   493A      7.918459   494A      7.978689  
     495A      8.114897   496A      8.290653   497A      8.749131  
     498A      9.378829   499A      9.941398   500A     10.198445  
     501A     12.611463   502A     13.938034   503A     14.316213  
     504A     14.485115   505A     14.544359   506A     40.748435  
     507A     46.077070   508A     47.191561  

    Final Occupation by Irrep:
              A 
    DOCC [    20 ]

  @DF-RHF Final Energy:  -231.07183817036054

   => Energetics <=

    Nuclear Repulsion Energy =            172.4157296421457488
    One-Electron Energy =                -654.6725189413775752
    Two-Electron Energy =                 251.1849511288713188
    Total Energy =                       -231.0718381703605360

Computation Completed


Properties will be evaluated at   0.000000,   0.000000,   0.000000 [a0]

Properties computed using the SCF density matrix

  Nuclear Dipole Moment: [e a0]
     X:   101.5248      Y:    28.7524      Z:    -3.1580

  Electronic Dipole Moment: [e a0]
     X:  -101.2372      Y:   -29.2398      Z:     2.0781

  Dipole Moment: [e a0]
     X:     0.2876      Y:    -0.4874      Z:    -1.0800     Total:     1.2193

  Dipole Moment: [D]
     X:     0.7309      Y:    -1.2389      Z:    -2.7450     Total:     3.0991


*** tstop() called on r282 at Fri Sep 10 14:36:11 2021
Module time:
	user time   =      43.04 seconds =       0.72 minutes
	system time =       0.71 seconds =       0.01 minutes
	total time  =         44 seconds =       0.73 minutes
Total time:
	user time   =     120.33 seconds =       2.01 minutes
	system time =       2.19 seconds =       0.04 minutes
	total time  =        123 seconds =       2.05 minutes

  //>>>>>>>>>>>>>>>>>>>>>>>>>>>>>>>>>>>//
  //            Monomer B HF           //
  //<<<<<<<<<<<<<<<<<<<<<<<<<<<<<<<<<<<//


*** tstart() called on r282
*** at Fri Sep 10 14:36:11 2021

   => Loading Basis Set <=

    Name: JUN-CC-PVTZ
    Role: ORBITAL
    Keyword: BASIS
    atoms 1, 5, 7-9, 11-13, 17-22 entry H          line    36 file /home/r08543048/miniconda3/share/psi4/basis/jun-cc-pvtz.gbs 
    atoms 2-3, 6, 10, 14-16       entry C          line   217 file /home/r08543048/miniconda3/share/psi4/basis/jun-cc-pvtz.gbs 
    atoms 4                       entry O          line   305 file /home/r08543048/miniconda3/share/psi4/basis/jun-cc-pvtz.gbs 


         ---------------------------------------------------------
                                   SCF
               by Justin Turney, Rob Parrish, Andy Simmonett
                          and Daniel G. A. Smith
                              RHF Reference
                        1 Threads,  20980 MiB Core
         ---------------------------------------------------------

  ==> Geometry <==

    Molecular point group: c1
    Full point group: C1

    Geometry (in Angstrom), charge = 0, multiplicity = 1:

       Center              X                  Y                   Z               Mass       
    ------------   -----------------  -----------------  -----------------  -----------------
      Gh(H)          -0.346712819931     2.054094956027    -1.032412391877     1.007825032230
      Gh(C)           1.149126180069     0.447482956027    -0.761168391877    12.000000000000
      Gh(C)           0.243682180069     1.532758956027    -0.257166391877    12.000000000000
      Gh(O)           0.128237180069     1.844373956027     0.913412608123    15.994914619570
      Gh(H)           1.753492180069     0.871520956027    -1.570714391877     1.007825032230
      Gh(C)           2.021549180069    -0.188486043973     0.306591608123    12.000000000000
      Gh(H)           2.675804180069     0.573297956027     0.733423608123     1.007825032230
      Gh(H)           1.389224180069    -0.535263043973     1.124148608123     1.007825032230
      Gh(H)           0.501277180069    -0.294918043973    -1.243048391877     1.007825032230
      Gh(C)           2.845376180069    -1.340861043973    -0.253152391877    12.000000000000
      Gh(H)           2.198377180069    -2.123361043973    -0.652755391877     1.007825032230
      Gh(H)           3.493589180069    -1.002711043973    -1.062622391877     1.007825032230
      Gh(H)           3.475253180069    -1.787898043973     0.514887608123     1.007825032230
         C           -2.811734819931     0.220253956027    -0.497402391877    12.000000000000
         C           -2.316629819931    -1.014981043973    -0.374760391877    12.000000000000
         C           -1.523981819931    -1.493935043973     0.799287608123    12.000000000000
         H           -3.390975819931     0.507488956027    -1.364050391877     1.007825032230
         H           -2.652022819931     0.964075956027     0.273207608123     1.007825032230
         H           -2.504044819931    -1.732411043973    -1.167727391877     1.007825032230
         H           -0.569019819931    -1.917313043973     0.481519608123     1.007825032230
         H           -1.326789819931    -0.681122043973     1.497501608123     1.007825032230
         H           -2.057895819931    -2.285054043973     1.328679608123     1.007825032230

  Running in c1 symmetry.

  Rotational constants: A =      0.07445  B =      0.03548  C =      0.02816 [cm^-1]
  Rotational constants: A =   2232.03189  B =   1063.73776  C =    844.24654 [MHz]
  Nuclear repulsion =   70.845171556124583

  Charge       = 0
  Multiplicity = 1
  Electrons    = 24
  Nalpha       = 12
  Nbeta        = 12

  ==> Algorithm <==

  SCF Algorithm Type is DF.
  DIIS enabled.
  MOM disabled.
  Fractional occupation disabled.
  Guess Type is SAD.
  Energy threshold   = 1.00e-08
  Density threshold  = 1.00e-08
  Integral threshold = 0.00e+00

  ==> Primary Basis <==

  Basis Set: JUN-CC-PVTZ
    Blend: JUN-CC-PVTZ
    Number of shells: 188
    Number of basis function: 508
    Number of Cartesian functions: 570
    Spherical Harmonics?: true
    Max angular momentum: 3

   => Loading Basis Set <=

    Name: (JUN-CC-PVTZ AUX)
    Role: JKFIT
    Keyword: DF_BASIS_SCF
    atoms 1, 5, 7-9, 11-13, 17-22 entry H          line    70 file /home/r08543048/miniconda3/share/psi4/basis/jun-cc-pvtz-jkfit.gbs 
    atoms 2-3, 6, 10, 14-16       entry C          line   152 file /home/r08543048/miniconda3/share/psi4/basis/jun-cc-pvtz-jkfit.gbs 
    atoms 4                       entry O          line   272 file /home/r08543048/miniconda3/share/psi4/basis/jun-cc-pvtz-jkfit.gbs 

  ==> Pre-Iterations <==

   -------------------------------------------------------
    Irrep   Nso     Nmo     Nalpha   Nbeta   Ndocc  Nsocc
   -------------------------------------------------------
     A        508     508       0       0       0       0
   -------------------------------------------------------
    Total     508     508      12      12      12       0
   -------------------------------------------------------

  ==> Integral Setup <==

  ==> DiskDFJK: Density-Fitted J/K Matrices <==

    J tasked:                  Yes
    K tasked:                  Yes
    wK tasked:                  No
    OpenMP threads:              1
    Integrals threads:           1
    Memory [MiB]:            15735
    Algorithm:                Core
    Integral Cache:           LOAD
    Schwarz Cutoff:          1E-12
    Fitting Condition:       1E-10

   => Auxiliary Basis Set <=

  Basis Set: (JUN-CC-PVTZ AUX)
    Blend: JUN-CC-PVTZ-JKFIT
    Number of shells: 372
    Number of basis function: 1180
    Number of Cartesian functions: 1418
    Spherical Harmonics?: true
    Max angular momentum: 4

  Minimum eigenvalue in the overlap matrix is 2.9974167706E-05.
  Using Symmetric Orthogonalization.

  SCF Guess: Superposition of Atomic Densities via on-the-fly atomic UHF.

  ==> Iterations <==

                           Total Energy        Delta E     RMS |[F,P]|

   @DF-RHF iter SAD:  -116.33077150927340   -1.16331e+02   0.00000e+00 
   @DF-RHF iter   1:  -116.98779831139311   -6.57027e-01   9.02002e-04 DIIS
   @DF-RHF iter   2:  -117.09535634316751   -1.07558e-01   3.87386e-04 DIIS
   @DF-RHF iter   3:  -117.11544243532457   -2.00861e-02   6.96208e-05 DIIS
   @DF-RHF iter   4:  -117.11673716243112   -1.29473e-03   2.09453e-05 DIIS
   @DF-RHF iter   5:  -117.11681100370065   -7.38413e-05   5.65314e-06 DIIS
   @DF-RHF iter   6:  -117.11681724631038   -6.24261e-06   1.01846e-06 DIIS
   @DF-RHF iter   7:  -117.11681755772611   -3.11416e-07   3.75269e-07 DIIS
   @DF-RHF iter   8:  -117.11681759904404   -4.13179e-08   1.30212e-07 DIIS
   @DF-RHF iter   9:  -117.11681760497839   -5.93435e-09   4.73715e-08 DIIS
   @DF-RHF iter  10:  -117.11681760593504   -9.56646e-10   1.07198e-08 DIIS
   @DF-RHF iter  11:  -117.11681760597889   -4.38547e-11   1.88978e-09 DIIS
  Energy and wave function converged.


  ==> Post-Iterations <==

    Orbital Energies [Eh]
    ---------------------

    Doubly Occupied:                                                      

       1A    -11.234571     2A    -11.220976     3A    -11.217622  
       4A     -1.064660     5A     -0.932765     6A     -0.757980  
       7A     -0.639848     8A     -0.582783     9A     -0.567970  
      10A     -0.523423    11A     -0.493180    12A     -0.357773  

    Virtual:                                                              

      13A      0.030542    14A      0.044135    15A      0.051201  
      16A      0.055699    17A      0.065158    18A      0.071221  
      19A      0.075913    20A      0.081523    21A      0.086003  
      22A      0.099485    23A      0.105126    24A      0.109865  
      25A      0.111660    26A      0.117685    27A      0.122742  
      28A      0.123422    29A      0.130150    30A      0.138610  
      31A      0.144501    32A      0.150890    33A      0.153919  
      34A      0.161223    35A      0.165920    36A      0.173807  
      37A      0.178986    38A      0.183733    39A      0.188798  
      40A      0.205743    41A      0.208035    42A      0.215777  
      43A      0.221844    44A      0.231672    45A      0.245606  
      46A      0.252696    47A      0.268038    48A      0.277118  
      49A      0.284196    50A      0.294435    51A      0.297871  
      52A      0.305762    53A      0.313202    54A      0.318760  
      55A      0.322502    56A      0.330392    57A      0.335691  
      58A      0.343291    59A      0.351742    60A      0.352572  
      61A      0.359443    62A      0.363865    63A      0.373604  
      64A      0.374654    65A      0.378769    66A      0.386083  
      67A      0.389711    68A      0.392050    69A      0.402118  
      70A      0.407892    71A      0.419606    72A      0.422453  
      73A      0.427552    74A      0.434823    75A      0.447941  
      76A      0.451466    77A      0.463746    78A      0.476502  
      79A      0.481218    80A      0.490403    81A      0.495371  
      82A      0.507108    83A      0.521600    84A      0.524691  
      85A      0.526892    86A      0.535254    87A      0.538750  
      88A      0.545048    89A      0.550163    90A      0.555267  
      91A      0.559623    92A      0.562797    93A      0.583890  
      94A      0.586140    95A      0.607215    96A      0.610618  
      97A      0.621884    98A      0.632101    99A      0.638523  
     100A      0.642906   101A      0.650805   102A      0.657841  
     103A      0.663693   104A      0.675974   105A      0.682672  
     106A      0.708236   107A      0.711571   108A      0.722294  
     109A      0.728380   110A      0.742155   111A      0.744084  
     112A      0.755173   113A      0.766763   114A      0.772933  
     115A      0.793721   116A      0.797317   117A      0.804801  
     118A      0.816688   119A      0.825295   120A      0.834625  
     121A      0.844465   122A      0.851351   123A      0.893232  
     124A      0.900632   125A      0.907203   126A      0.921668  
     127A      0.932031   128A      0.946745   129A      0.963930  
     130A      0.970448   131A      0.973514   132A      1.000996  
     133A      1.023185   134A      1.024699   135A      1.029807  
     136A      1.055366   137A      1.071666   138A      1.079248  
     139A      1.085441   140A      1.103618   141A      1.106216  
     142A      1.116103   143A      1.126540   144A      1.134659  
     145A      1.142819   146A      1.154922   147A      1.160819  
     148A      1.171026   149A      1.188048   150A      1.207589  
     151A      1.211146   152A      1.218974   153A      1.225161  
     154A      1.244870   155A      1.249401   156A      1.266730  
     157A      1.276367   158A      1.281991   159A      1.302412  
     160A      1.305431   161A      1.316499   162A      1.329724  
     163A      1.335336   164A      1.346592   165A      1.355360  
     166A      1.361305   167A      1.378772   168A      1.388521  
     169A      1.391399   170A      1.398388   171A      1.403534  
     172A      1.415098   173A      1.421849   174A      1.434165  
     175A      1.453561   176A      1.457564   177A      1.473441  
     178A      1.481238   179A      1.504123   180A      1.506451  
     181A      1.522072   182A      1.529126   183A      1.536667  
     184A      1.543488   185A      1.545311   186A      1.563150  
     187A      1.575778   188A      1.583570   189A      1.589875  
     190A      1.599083   191A      1.603473   192A      1.619569  
     193A      1.637615   194A      1.639834   195A      1.646271  
     196A      1.657434   197A      1.669867   198A      1.681220  
     199A      1.686631   200A      1.698153   201A      1.711963  
     202A      1.737752   203A      1.740360   204A      1.755776  
     205A      1.769356   206A      1.779224   207A      1.805513  
     208A      1.827175   209A      1.845777   210A      1.871441  
     211A      1.878851   212A      1.910318   213A      1.923296  
     214A      1.940358   215A      1.948031   216A      1.968595  
     217A      1.973169   218A      1.983145   219A      2.022411  
     220A      2.041784   221A      2.065782   222A      2.077194  
     223A      2.134259   224A      2.164497   225A      2.177355  
     226A      2.201111   227A      2.220228   228A      2.242578  
     229A      2.265029   230A      2.312576   231A      2.327838  
     232A      2.392389   233A      2.442640   234A      2.448716  
     235A      2.460294   236A      2.505129   237A      2.592007  
     238A      2.637143   239A      2.646794   240A      2.672535  
     241A      2.699494   242A      2.717260   243A      2.747256  
     244A      2.778017   245A      2.817278   246A      2.827655  
     247A      2.832990   248A      2.842915   249A      2.865516  
     250A      2.877155   251A      2.903987   252A      2.923439  
     253A      2.936195   254A      2.990982   255A      3.021809  
     256A      3.029387   257A      3.041735   258A      3.087415  
     259A      3.103841   260A      3.113923   261A      3.117786  
     262A      3.178302   263A      3.202629   264A      3.214761  
     265A      3.225782   266A      3.241187   267A      3.260316  
     268A      3.274034   269A      3.291048   270A      3.311462  
     271A      3.339401   272A      3.363084   273A      3.368891  
     274A      3.398666   275A      3.412390   276A      3.442894  
     277A      3.453623   278A      3.488080   279A      3.504266  
     280A      3.515696   281A      3.520248   282A      3.531809  
     283A      3.543082   284A      3.562994   285A      3.576562  
     286A      3.580059   287A      3.590620   288A      3.603630  
     289A      3.614984   290A      3.618862   291A      3.647080  
     292A      3.655101   293A      3.671137   294A      3.675385  
     295A      3.697879   296A      3.719996   297A      3.754223  
     298A      3.759724   299A      3.777182   300A      3.791143  
     301A      3.799561   302A      3.806154   303A      3.815992  
     304A      3.831917   305A      3.846629   306A      3.853252  
     307A      3.856760   308A      3.875438   309A      3.884568  
     310A      3.897577   311A      3.904605   312A      3.909927  
     313A      3.937519   314A      3.941514   315A      3.946442  
     316A      3.965745   317A      3.982580   318A      3.999794  
     319A      4.006032   320A      4.024032   321A      4.041387  
     322A      4.055903   323A      4.073908   324A      4.091044  
     325A      4.100879   326A      4.116255   327A      4.126190  
     328A      4.156333   329A      4.174080   330A      4.187259  
     331A      4.196131   332A      4.213869   333A      4.216710  
     334A      4.273839   335A      4.291858   336A      4.306607  
     337A      4.318992   338A      4.328474   339A      4.339431  
     340A      4.356204   341A      4.373759   342A      4.393138  
     343A      4.399239   344A      4.406097   345A      4.417683  
     346A      4.430054   347A      4.449696   348A      4.467211  
     349A      4.476913   350A      4.491794   351A      4.500230  
     352A      4.512093   353A      4.519747   354A      4.529283  
     355A      4.543472   356A      4.551069   357A      4.560226  
     358A      4.586279   359A      4.594146   360A      4.597800  
     361A      4.612916   362A      4.617528   363A      4.623269  
     364A      4.644500   365A      4.645775   366A      4.671953  
     367A      4.678203   368A      4.689182   369A      4.698326  
     370A      4.721579   371A      4.730053   372A      4.748333  
     373A      4.755621   374A      4.766057   375A      4.768171  
     376A      4.777642   377A      4.790417   378A      4.813971  
     379A      4.818960   380A      4.836953   381A      4.847940  
     382A      4.856041   383A      4.862526   384A      4.874369  
     385A      4.892337   386A      4.899165   387A      4.911190  
     388A      4.918226   389A      4.927492   390A      4.940676  
     391A      4.957978   392A      4.964401   393A      4.983731  
     394A      4.988211   395A      4.999549   396A      5.013670  
     397A      5.025888   398A      5.037399   399A      5.043480  
     400A      5.069031   401A      5.084607   402A      5.087499  
     403A      5.111309   404A      5.129715   405A      5.145774  
     406A      5.182451   407A      5.189596   408A      5.210226  
     409A      5.223972   410A      5.236788   411A      5.250573  
     412A      5.309649   413A      5.327013   414A      5.348527  
     415A      5.351493   416A      5.364447   417A      5.392988  
     418A      5.408430   419A      5.438710   420A      5.451463  
     421A      5.453835   422A      5.491353   423A      5.528372  
     424A      5.564364   425A      5.588240   426A      5.620600  
     427A      5.636824   428A      5.655841   429A      5.659550  
     430A      5.693213   431A      5.699824   432A      5.726729  
     433A      5.794781   434A      5.802563   435A      5.804817  
     436A      5.810204   437A      5.868756   438A      5.874665  
     439A      5.896559   440A      5.970204   441A      6.014798  
     442A      6.037490   443A      6.048244   444A      6.105695  
     445A      6.144046   446A      6.174365   447A      6.237481  
     448A      6.248200   449A      6.298504   450A      6.351205  
     451A      6.390537   452A      6.406887   453A      6.430259  
     454A      6.440159   455A      6.471600   456A      6.498985  
     457A      6.507715   458A      6.510545   459A      6.520452  
     460A      6.549501   461A      6.648667   462A      6.662039  
     463A      6.677399   464A      6.707553   465A      6.792967  
     466A      6.904859   467A      6.981161   468A      7.010198  
     469A      7.033890   470A      7.312055   471A      7.344178  
     472A      7.539745   473A      7.559075   474A      7.649683  
     475A      7.664640   476A      7.695392   477A      7.712517  
     478A      7.800563   479A      7.834124   480A      7.880491  
     481A      7.919318   482A      8.115189   483A      8.228470  
     484A      8.286539   485A      8.388965   486A      8.529559  
     487A      8.664119   488A      9.487655   489A      9.511581  
     490A      9.660850   491A      9.743377   492A      9.834916  
     493A      9.871260   494A      9.908657   495A      9.912999  
     496A     10.093954   497A     11.040300   498A     11.713961  
     499A     11.992900   500A     12.196590   501A     13.757436  
     502A     14.780612   503A     15.341296   504A     43.950993  
     505A     44.409445   506A     45.542161   507A     45.750695  
     508A     60.919281  

    Final Occupation by Irrep:
              A 
    DOCC [    12 ]

  @DF-RHF Final Energy:  -117.11681760597889

   => Energetics <=

    Nuclear Repulsion Energy =             70.8451715561245834
    One-Electron Energy =                -296.7368754456093143
    Two-Electron Energy =                 108.7748862835058503
    Total Energy =                       -117.1168176059788948

Computation Completed


Properties will be evaluated at   0.000000,   0.000000,   0.000000 [a0]

Properties computed using the SCF density matrix

  Nuclear Dipole Moment: [e a0]
     X:   -99.0497      Y:   -35.6711      Z:     1.1563

  Electronic Dipole Moment: [e a0]
     X:    99.1228      Y:    35.5382      Z:    -1.0848

  Dipole Moment: [e a0]
     X:     0.0731      Y:    -0.1328      Z:     0.0715     Total:     0.1677

  Dipole Moment: [D]
     X:     0.1859      Y:    -0.3376      Z:     0.1817     Total:     0.4261


*** tstop() called on r282 at Fri Sep 10 14:36:49 2021
Module time:
	user time   =      37.84 seconds =       0.63 minutes
	system time =       0.62 seconds =       0.01 minutes
	total time  =         38 seconds =       0.63 minutes
Total time:
	user time   =     158.17 seconds =       2.64 minutes
	system time =       2.81 seconds =       0.05 minutes
	total time  =        161 seconds =       2.68 minutes
  Constructing Basis Sets for SAPT...

   => Loading Basis Set <=

    Name: (JUN-CC-PVTZ AUX)
    Role: RIFIT
    Keyword: DF_BASIS_SAPT
    atoms 1, 5, 7-9, 11-13, 17-22 entry H          line    30 file /home/r08543048/miniconda3/share/psi4/basis/jun-cc-pvtz-ri.gbs 
    atoms 2-3, 6, 10, 14-16       entry C          line   132 file /home/r08543048/miniconda3/share/psi4/basis/jun-cc-pvtz-ri.gbs 
    atoms 4                       entry O          line   244 file /home/r08543048/miniconda3/share/psi4/basis/jun-cc-pvtz-ri.gbs 


  //>>>>>>>>>>>>>>>>>>>>>>>>>>>>>>>>>>>//
  //               SAPT0               //
  //<<<<<<<<<<<<<<<<<<<<<<<<<<<<<<<<<<<//


*** tstart() called on r282
*** at Fri Sep 10 14:36:49 2021

        SAPT0  
    Ed Hohenstein
     6 June 2009

      Orbital Information
  --------------------------
    NSO        =       508
    NMO        =       508
    NRI        =      1196
    NOCC A     =        20
    NOCC B     =        12
    FOCC A     =         0
    FOCC B     =         0
    NVIR A     =       488
    NVIR B     =       496

    Elst10,r            =    -0.004931394031 [Eh]
    Exch10              =     0.008210716984 [Eh]
    Exch10 (S^2)        =     0.008187337309 [Eh]

    Iter     Energy [mEh]          dE [mEh]         Residual      Time [s]
       1      -0.49975476       0.499754756       3.965473949             1
       2      -0.55308473       0.053329977       1.845663817             2
       3      -0.58884952       0.035764783       0.400754027             3
       4      -0.58879521      -0.000054302       0.175393870             4
       5      -0.58720691      -0.001588302       0.055817941             5
       6      -0.58744283       0.000235914       0.024091556             6
       7      -0.58756067       0.000117847       0.008110288             7
       8      -0.58752417      -0.000036506       0.004003562             8
       9      -0.58751096      -0.000013206       0.001773554             9
      10      -0.58752112       0.000010163       0.000553348            10
      11      -0.58752107      -0.000000050       0.000148368            11
      12      -0.58752050      -0.000000577       0.000048922            12
      13      -0.58752049      -0.000000010       0.000012876            13
      14      -0.58752054       0.000000050       0.000003467            15
      15      -0.58752053      -0.000000003       0.000000969            16

    CHF Iterations converged


    Iter     Energy [mEh]          dE [mEh]         Residual      Time [s]
       1      -1.93802910       1.938029099       6.762829971             1
       2      -2.41675113       0.478722032       2.416080207             1
       3      -2.45808635       0.041335214       0.623141552             2
       4      -2.45003248      -0.008053861       0.248162176             3
       5      -2.44601612      -0.004016369       0.040237823             4
       6      -2.44674667       0.000730550       0.011644315             5
       7      -2.44675524       0.000008570       0.004600901             6
       8      -2.44670611      -0.000049127       0.001243343             7
       9      -2.44671257       0.000006463       0.000342833             8
      10      -2.44671428       0.000001713       0.000087851             9
      11      -2.44671372      -0.000000562       0.000023006            10
      12      -2.44671368      -0.000000046       0.000006443            11
      13      -2.44671371       0.000000033       0.000001468            12
      14      -2.44671371       0.000000000       0.000000381            13

    CHF Iterations converged

    Ind20,r (A<-B)      =    -0.000587520534 [Eh]
    Ind20,r (B<-A)      =    -0.002446713710 [Eh]
    Ind20,r             =    -0.003034234244 [Eh]
    Exch-Ind20,r (A<-B) =     0.000455313628 [Eh]
    Exch-Ind20,r (B<-A) =     0.002006667254 [Eh]
    Exch-Ind20,r        =     0.002461980882 [Eh]
    Disp20              =    -0.009229444946 [Eh]
    Disp20 (SS)         =    -0.004614722473 [Eh]
    Disp20 (OS)         =    -0.004614722473 [Eh]
    Exch-Disp20         =     0.000949091637 [Eh]
    Exch-Disp20 (SS)    =     0.000619529012 [Eh]
    Exch-Disp20 (OS)    =     0.000329562625 [Eh]

    SAPT Results 
  --------------------------------------------------------------------------------------------------------
    Electrostatics                 -4.93139403 [mEh]      -3.09449647 [kcal/mol]     -12.94737324 [kJ/mol]
      Elst10,r                     -4.93139403 [mEh]      -3.09449647 [kcal/mol]     -12.94737324 [kJ/mol]

    Exchange                        8.21071698 [mEh]       5.15230269 [kcal/mol]      21.55723447 [kJ/mol]
      Exch10                        8.21071698 [mEh]       5.15230269 [kcal/mol]      21.55723447 [kJ/mol]
      Exch10(S^2)                   8.18733731 [mEh]       5.13763173 [kcal/mol]      21.49585114 [kJ/mol]

    Induction                      -1.21660384 [mEh]      -0.76343043 [kcal/mol]      -3.19419293 [kJ/mol]
      Ind20,r                      -3.03423424 [mEh]      -1.90401073 [kcal/mol]      -7.96638091 [kJ/mol]
      Exch-Ind20,r                  2.46198088 [mEh]       1.54491633 [kcal/mol]       6.46392992 [kJ/mol]
      delta HF,r (2)               -0.64435048 [mEh]      -0.40433603 [kcal/mol]      -1.69174194 [kJ/mol]

    Dispersion                     -8.28035331 [mEh]      -5.19600015 [kcal/mol]     -21.74006462 [kJ/mol]
      Disp20                       -9.22944495 [mEh]      -5.79156414 [kcal/mol]     -24.23190437 [kJ/mol]
      Exch-Disp20                   0.94909164 [mEh]       0.59556399 [kcal/mol]       2.49183975 [kJ/mol]
      Disp20 (SS)                  -4.61472247 [mEh]      -2.89578207 [kcal/mol]     -12.11595218 [kJ/mol]
      Disp20 (OS)                  -4.61472247 [mEh]      -2.89578207 [kcal/mol]     -12.11595218 [kJ/mol]
      Exch-Disp20 (SS)              0.61952901 [mEh]       0.38876032 [kcal/mol]       1.62657320 [kJ/mol]
      Exch-Disp20 (OS)              0.32956263 [mEh]       0.20680367 [kcal/mol]       0.86526655 [kJ/mol]

  Total HF                          2.06271912 [mEh]       1.29437579 [kcal/mol]       5.41566829 [kJ/mol]
  Total SAPT0                      -6.21763419 [mEh]      -3.90162436 [kcal/mol]     -16.32439632 [kJ/mol]

  Special recipe for scaled SAPT0 (see Manual):
    Electrostatics sSAPT0          -4.93139403 [mEh]      -3.09449647 [kcal/mol]     -12.94737324 [kJ/mol]
    Exchange sSAPT0                 8.21071698 [mEh]       5.15230269 [kcal/mol]      21.55723447 [kJ/mol]
    Induction sSAPT0               -1.19545233 [mEh]      -0.75015766 [kcal/mol]      -3.13865966 [kJ/mol]
    Dispersion sSAPT0              -8.27219942 [mEh]      -5.19088351 [kcal/mol]     -21.71865659 [kJ/mol]
  Total sSAPT0                     -6.18832880 [mEh]      -3.88323495 [kcal/mol]     -16.24745502 [kJ/mol]
  --------------------------------------------------------------------------------------------------------

*** tstop() called on r282 at Fri Sep 10 14:38:54 2021
Module time:
	user time   =     105.22 seconds =       1.75 minutes
	system time =      18.91 seconds =       0.32 minutes
	total time  =        125 seconds =       2.08 minutes
Total time:
	user time   =     263.53 seconds =       4.39 minutes
	system time =      21.72 seconds =       0.36 minutes
	total time  =        286 seconds =       4.77 minutes

    Psi4 stopped on: Friday, 10 September 2021 02:38PM
    Psi4 wall time for execution: 0:04:45.90

*** Psi4 exiting successfully. Buy a developer a beer!
