
    -----------------------------------------------------------------------
          Psi4: An Open-Source Ab Initio Electronic Structure Package
                               Psi4 1.3.2 release

                         Git: Rev {HEAD} ecbda83 


    R. M. Parrish, L. A. Burns, D. G. A. Smith, A. C. Simmonett,
    A. E. DePrince III, E. G. Hohenstein, U. Bozkaya, A. Yu. Sokolov,
    R. Di Remigio, R. M. Richard, J. F. Gonthier, A. M. James,
    H. R. McAlexander, A. Kumar, M. Saitow, X. Wang, B. P. Pritchard,
    P. Verma, H. F. Schaefer III, K. Patkowski, R. A. King, E. F. Valeev,
    F. A. Evangelista, J. M. Turney, T. D. Crawford, and C. D. Sherrill,
    J. Chem. Theory Comput. 13(7) pp 3185--3197 (2017).
    (doi: 10.1021/acs.jctc.7b00174)


                         Additional Contributions by
    P. Kraus, H. Kruse, M. H. Lechner, M. C. Schieber, R. A. Shaw,
    A. Alenaizan, R. Galvelis, Z. L. Glick, S. Lehtola, and J. P. Misiewicz

    -----------------------------------------------------------------------


    Psi4 started on: Thursday, 09 September 2021 11:59AM

    Process ID: 53949
    Host:       r282
    PSIDATADIR: /home/r08543048/miniconda3/share/psi4
    Memory:     500.0 MiB
    Threads:    1
    
  ==> Input File <==

--------------------------------------------------------------------------
# Any line starting with the # character is a comment line
#! Sample  computation

memory 22 gb

molecule Dimer {
 
0 1                               
 C   -1.93137600    0.06074300   -0.00100200
 O   -1.24308200    1.07715800   -0.00103700
 O   -1.43596600   -1.16692500   -0.00137900
 H   -0.44000500   -1.11891300   -0.00070600
 C   -3.42819600    0.08196000    0.00135100
 H   -3.78305400    1.10584400   -0.01596700
 H   -3.79750000   -0.46337100   -0.86486000
 H   -3.79192300   -0.42946400    0.89057900











 --
0 1
 C    1.93140100   -0.06075400    0.00034800
 O    1.24304100   -1.07711300    0.00040000
 O    1.43596400    1.16692600   -0.00011900
 H    0.43994500    1.11913800   -0.00052600
 C    3.42822400   -0.08202800    0.00053000
 H    3.78304600   -1.10606900    0.00313500
 H    3.79469100    0.44406900   -0.87884500
 H    3.79483600    0.44887000    0.87691700













 
 
 
units angstrom

no_reorient
symmetry c1
}

set globals{
  basis jun-cc-pVTZ
  scf_type DF 
  freeze_core True
}

energy('sapt0')


--------------------------------------------------------------------------

  Memory set to  20.489 GiB by Python driver.

  //>>>>>>>>>>>>>>>>>>>>>>>>>>>>>>>>>>>//
  //              Dimer HF             //
  //<<<<<<<<<<<<<<<<<<<<<<<<<<<<<<<<<<<//


*** tstart() called on r282
*** at Thu Sep  9 11:59:18 2021

   => Loading Basis Set <=

    Name: JUN-CC-PVTZ
    Role: ORBITAL
    Keyword: BASIS
    atoms 1, 5, 9, 13       entry C          line   217 file /home/r08543048/miniconda3/share/psi4/basis/jun-cc-pvtz.gbs 
    atoms 2-3, 10-11        entry O          line   305 file /home/r08543048/miniconda3/share/psi4/basis/jun-cc-pvtz.gbs 
    atoms 4, 6-8, 12, 14-16 entry H          line    36 file /home/r08543048/miniconda3/share/psi4/basis/jun-cc-pvtz.gbs 


         ---------------------------------------------------------
                                   SCF
               by Justin Turney, Rob Parrish, Andy Simmonett
                          and Daniel G. A. Smith
                              RHF Reference
                        1 Threads,  20980 MiB Core
         ---------------------------------------------------------

  ==> Geometry <==

    Molecular point group: c1
    Full point group: C1

    Geometry (in Angstrom), charge = 0, multiplicity = 1:

       Center              X                  Y                   Z               Mass       
    ------------   -----------------  -----------------  -----------------  -----------------
         C           -1.931375870882     0.060743894853    -0.000921844655    12.000000000000
         O           -1.243081870882     1.077158894853    -0.000956844655    15.994914619570
         O           -1.435965870882    -1.166924105147    -0.001298844655    15.994914619570
         H           -0.440004870882    -1.118912105147    -0.000625844655     1.007825032230
         C           -3.428195870882     0.081960894853     0.001431155345    12.000000000000
         H           -3.783053870882     1.105844894853    -0.015886844655     1.007825032230
         H           -3.797499870882    -0.463370105147    -0.864779844655     1.007825032230
         H           -3.791922870882    -0.429463105147     0.890659155345     1.007825032230
         C            1.931401129118    -0.060753105147     0.000428155345    12.000000000000
         O            1.243041129118    -1.077112105147     0.000480155345    15.994914619570
         O            1.435964129118     1.166926894853    -0.000038844655    15.994914619570
         H            0.439945129118     1.119138894853    -0.000445844655     1.007825032230
         C            3.428224129118    -0.082027105147     0.000610155345    12.000000000000
         H            3.783046129118    -1.106068105147     0.003215155345     1.007825032230
         H            3.794691129118     0.444069894853    -0.878764844655     1.007825032230
         H            3.794836129118     0.448870894853     0.876997155345     1.007825032230

  Running in c1 symmetry.

  Rotational constants: A =      0.18767  B =      0.02920  C =      0.02550 [cm^-1]
  Rotational constants: A =   5626.20199  B =    875.29929  C =    764.57821 [MHz]
  Nuclear repulsion =  381.023975976559257

  Charge       = 0
  Multiplicity = 1
  Electrons    = 64
  Nalpha       = 32
  Nbeta        = 32

  ==> Algorithm <==

  SCF Algorithm Type is DF.
  DIIS enabled.
  MOM disabled.
  Fractional occupation disabled.
  Guess Type is SAD.
  Energy threshold   = 1.00e-08
  Density threshold  = 1.00e-08
  Integral threshold = 0.00e+00

  ==> Primary Basis <==

  Basis Set: JUN-CC-PVTZ
    Blend: JUN-CC-PVTZ
    Number of shells: 152
    Number of basis function: 424
    Number of Cartesian functions: 480
    Spherical Harmonics?: true
    Max angular momentum: 3

   => Loading Basis Set <=

    Name: (JUN-CC-PVTZ AUX)
    Role: JKFIT
    Keyword: DF_BASIS_SCF
    atoms 1, 5, 9, 13       entry C          line   152 file /home/r08543048/miniconda3/share/psi4/basis/jun-cc-pvtz-jkfit.gbs 
    atoms 2-3, 10-11        entry O          line   272 file /home/r08543048/miniconda3/share/psi4/basis/jun-cc-pvtz-jkfit.gbs 
    atoms 4, 6-8, 12, 14-16 entry H          line    70 file /home/r08543048/miniconda3/share/psi4/basis/jun-cc-pvtz-jkfit.gbs 

  ==> Pre-Iterations <==

   -------------------------------------------------------
    Irrep   Nso     Nmo     Nalpha   Nbeta   Ndocc  Nsocc
   -------------------------------------------------------
     A        424     424       0       0       0       0
   -------------------------------------------------------
    Total     424     424      32      32      32       0
   -------------------------------------------------------

  ==> Integral Setup <==

  ==> DiskDFJK: Density-Fitted J/K Matrices <==

    J tasked:                  Yes
    K tasked:                  Yes
    wK tasked:                  No
    OpenMP threads:              1
    Integrals threads:           1
    Memory [MiB]:            15735
    Algorithm:                Core
    Integral Cache:           SAVE
    Schwarz Cutoff:          1E-12
    Fitting Condition:       1E-10

   => Auxiliary Basis Set <=

  Basis Set: (JUN-CC-PVTZ AUX)
    Blend: JUN-CC-PVTZ-JKFIT
    Number of shells: 312
    Number of basis function: 1000
    Number of Cartesian functions: 1208
    Spherical Harmonics?: true
    Max angular momentum: 4

  Minimum eigenvalue in the overlap matrix is 4.5567720514E-05.
  Using Symmetric Orthogonalization.

  SCF Guess: Superposition of Atomic Densities via on-the-fly atomic UHF.

  ==> Iterations <==

                           Total Energy        Delta E     RMS |[F,P]|

   @DF-RHF iter SAD:  -454.31693924384882   -4.54317e+02   0.00000e+00 
   @DF-RHF iter   1:  -455.54761661809994   -1.23068e+00   1.89584e-03 DIIS
   @DF-RHF iter   2:  -455.75969803700974   -2.12081e-01   1.06083e-03 DIIS
   @DF-RHF iter   3:  -455.82370313459722   -6.40051e-02   1.78122e-04 DIIS
   @DF-RHF iter   4:  -455.82749849160444   -3.79536e-03   7.70823e-05 DIIS
   @DF-RHF iter   5:  -455.82818827531196   -6.89784e-04   1.88968e-05 DIIS
   @DF-RHF iter   6:  -455.82824595552415   -5.76802e-05   9.77725e-06 DIIS
   @DF-RHF iter   7:  -455.82825997622012   -1.40207e-05   2.79750e-06 DIIS
   @DF-RHF iter   8:  -455.82826241457536   -2.43836e-06   8.05045e-07 DIIS
   @DF-RHF iter   9:  -455.82826262880855   -2.14233e-07   1.93500e-07 DIIS
   @DF-RHF iter  10:  -455.82826263784852   -9.03998e-09   6.59171e-08 DIIS
   @DF-RHF iter  11:  -455.82826263857413   -7.25606e-10   1.66425e-08 DIIS
   @DF-RHF iter  12:  -455.82826263862961   -5.54792e-11   3.81697e-09 DIIS
  Energy and wave function converged.


  ==> Post-Iterations <==

    Orbital Energies [Eh]
    ---------------------

    Doubly Occupied:                                                      

       1A    -20.599505     2A    -20.599489     3A    -20.557993  
       4A    -20.557987     5A    -11.397568     6A    -11.397565  
       7A    -11.244532     8A    -11.244525     9A     -1.470426  
      10A     -1.458197    11A     -1.368262    12A     -1.354485  
      13A     -1.034260    14A     -1.026304    15A     -0.838326  
      16A     -0.815969    17A     -0.745306    18A     -0.695160  
      19A     -0.686224    20A     -0.675031    21A     -0.655149  
      22A     -0.648901    23A     -0.589323    24A     -0.582038  
      25A     -0.574764    26A     -0.561388    27A     -0.558120  
      28A     -0.557313    29A     -0.492094    30A     -0.481098  
      31A     -0.473707    32A     -0.455589  

    Virtual:                                                              

      33A      0.044317    34A      0.047222    35A      0.072326  
      36A      0.075067    37A      0.077639    38A      0.080428  
      39A      0.082534    40A      0.096542    41A      0.106485  
      42A      0.108171    43A      0.140720    44A      0.141499  
      45A      0.148291    46A      0.151097    47A      0.161443  
      48A      0.173347    49A      0.178919    50A      0.179866  
      51A      0.193763    52A      0.198204    53A      0.198924  
      54A      0.200438    55A      0.223268    56A      0.240724  
      57A      0.252412    58A      0.254304    59A      0.258641  
      60A      0.266770    61A      0.272727    62A      0.273523  
      63A      0.289118    64A      0.289418    65A      0.289763  
      66A      0.296558    67A      0.297268    68A      0.308245  
      69A      0.329232    70A      0.331153    71A      0.332169  
      72A      0.350690    73A      0.356491    74A      0.356737  
      75A      0.365550    76A      0.383971    77A      0.391628  
      78A      0.395974    79A      0.419215    80A      0.422792  
      81A      0.427956    82A      0.439300    83A      0.452284  
      84A      0.472734    85A      0.489102    86A      0.497114  
      87A      0.502127    88A      0.513377    89A      0.514302  
      90A      0.516196    91A      0.532393    92A      0.538917  
      93A      0.540408    94A      0.585359    95A      0.585376  
      96A      0.595566    97A      0.628037    98A      0.629223  
      99A      0.631103   100A      0.649690   101A      0.652907  
     102A      0.654519   103A      0.657378   104A      0.671383  
     105A      0.675465   106A      0.684265   107A      0.696725  
     108A      0.707126   109A      0.723560   110A      0.724478  
     111A      0.737619   112A      0.764270   113A      0.776164  
     114A      0.784832   115A      0.790509   116A      0.792844  
     117A      0.811601   118A      0.814293   119A      0.817446  
     120A      0.837383   121A      0.842020   122A      0.842976  
     123A      0.855360   124A      0.856171   125A      0.865004  
     126A      0.883602   127A      0.889247   128A      0.922558  
     129A      0.925605   130A      0.931778   131A      0.980581  
     132A      0.987051   133A      0.987167   134A      0.988700  
     135A      1.000245   136A      1.008519   137A      1.015980  
     138A      1.040747   139A      1.047516   140A      1.068840  
     141A      1.074581   142A      1.076627   143A      1.138349  
     144A      1.143074   145A      1.162589   146A      1.176291  
     147A      1.204898   148A      1.218028   149A      1.223398  
     150A      1.237146   151A      1.241807   152A      1.260372  
     153A      1.261159   154A      1.282225   155A      1.285993  
     156A      1.291995   157A      1.321744   158A      1.345671  
     159A      1.346894   160A      1.349968   161A      1.355110  
     162A      1.364549   163A      1.382378   164A      1.387094  
     165A      1.395545   166A      1.421325   167A      1.425266  
     168A      1.444204   169A      1.453889   170A      1.465649  
     171A      1.487883   172A      1.495894   173A      1.507079  
     174A      1.535647   175A      1.536064   176A      1.549939  
     177A      1.561287   178A      1.581791   179A      1.586242  
     180A      1.598817   181A      1.611474   182A      1.626165  
     183A      1.637941   184A      1.659523   185A      1.667662  
     186A      1.700848   187A      1.735826   188A      1.750872  
     189A      1.756292   190A      1.775109   191A      1.801691  
     192A      1.840721   193A      1.860282   194A      1.891337  
     195A      1.917404   196A      1.923512   197A      1.985642  
     198A      1.990510   199A      2.068570   200A      2.167160  
     201A      2.182541   202A      2.210977   203A      2.221715  
     204A      2.258375   205A      2.259610   206A      2.292656  
     207A      2.307757   208A      2.356498   209A      2.364330  
     210A      2.393310   211A      2.407719   212A      2.412057  
     213A      2.441238   214A      2.451777   215A      2.557643  
     216A      2.565188   217A      2.608857   218A      2.616014  
     219A      2.632731   220A      2.680795   221A      2.691077  
     222A      2.746838   223A      2.767681   224A      2.779019  
     225A      2.782482   226A      2.819275   227A      2.822717  
     228A      2.833426   229A      2.888642   230A      2.931851  
     231A      2.952866   232A      2.965587   233A      3.001459  
     234A      3.018997   235A      3.077511   236A      3.094292  
     237A      3.094826   238A      3.097117   239A      3.106040  
     240A      3.159461   241A      3.195195   242A      3.201478  
     243A      3.211816   244A      3.215931   245A      3.256958  
     246A      3.268809   247A      3.290890   248A      3.322231  
     249A      3.330786   250A      3.339415   251A      3.375086  
     252A      3.376077   253A      3.409745   254A      3.424977  
     255A      3.429605   256A      3.435016   257A      3.436050  
     258A      3.464755   259A      3.486103   260A      3.492508  
     261A      3.534915   262A      3.535608   263A      3.537554  
     264A      3.559182   265A      3.607338   266A      3.615871  
     267A      3.633453   268A      3.645612   269A      3.654010  
     270A      3.678945   271A      3.700442   272A      3.707337  
     273A      3.717310   274A      3.719342   275A      3.746607  
     276A      3.767223   277A      3.767789   278A      3.771479  
     279A      3.776563   280A      3.787862   281A      3.791896  
     282A      3.813609   283A      3.830561   284A      3.845958  
     285A      3.858417   286A      3.863555   287A      3.906717  
     288A      3.911779   289A      3.983315   290A      4.038326  
     291A      4.055175   292A      4.086260   293A      4.132192  
     294A      4.136509   295A      4.143394   296A      4.160489  
     297A      4.172195   298A      4.194391   299A      4.206503  
     300A      4.260315   301A      4.285410   302A      4.293694  
     303A      4.306224   304A      4.317517   305A      4.330028  
     306A      4.335660   307A      4.335929   308A      4.356372  
     309A      4.393748   310A      4.400538   311A      4.404769  
     312A      4.418971   313A      4.461239   314A      4.462663  
     315A      4.497202   316A      4.505725   317A      4.539151  
     318A      4.590368   319A      4.599472   320A      4.610123  
     321A      4.631216   322A      4.655660   323A      4.659472  
     324A      4.685559   325A      4.721406   326A      4.767935  
     327A      4.772606   328A      4.774650   329A      4.777258  
     330A      4.807202   331A      4.822359   332A      4.852157  
     333A      4.912222   334A      4.967980   335A      4.968654  
     336A      5.044847   337A      5.116980   338A      5.139852  
     339A      5.148329   340A      5.148701   341A      5.170979  
     342A      5.224144   343A      5.294761   344A      5.305294  
     345A      5.431982   346A      5.438013   347A      5.440126  
     348A      5.443440   349A      5.511662   350A      5.513770  
     351A      5.564161   352A      5.567954   353A      5.574452  
     354A      5.574802   355A      5.637704   356A      5.654362  
     357A      5.670234   358A      5.674345   359A      5.676288  
     360A      5.679480   361A      5.728027   362A      5.732609  
     363A      5.787720   364A      5.790721   365A      5.863131  
     366A      5.870120   367A      5.875612   368A      5.894536  
     369A      5.932045   370A      5.967030   371A      6.041946  
     372A      6.055909   373A      6.264708   374A      6.276160  
     375A      6.287297   376A      6.393779   377A      6.411238  
     378A      6.417756   379A      6.435799   380A      6.439451  
     381A      6.533281   382A      6.540238   383A      6.699848  
     384A      6.700578   385A      6.732434   386A      6.769393  
     387A      6.878004   388A      6.924467   389A      6.965598  
     390A      6.996159   391A      7.088655   392A      7.099553  
     393A      7.138212   394A      7.227703   395A      7.234806  
     396A      7.282691   397A      7.287123   398A      7.306477  
     399A      7.332420   400A      7.372909   401A      7.373858  
     402A      7.397506   403A      7.446817   404A      7.450809  
     405A      7.489014   406A      7.510312   407A      7.694092  
     408A      7.709244   409A      7.739463   410A      7.830323  
     411A      7.910833   412A      7.931538   413A      8.026344  
     414A      8.040623   415A      8.374774   416A      8.375863  
     417A     12.109800   418A     12.281327   419A     13.805099  
     420A     13.865489   421A     14.364692   422A     14.544599  
     423A     14.786620   424A     14.808107  

    Final Occupation by Irrep:
              A 
    DOCC [    32 ]

  @DF-RHF Final Energy:  -455.82826263862961

   => Energetics <=

    Nuclear Repulsion Energy =            381.0239759765592567
    One-Electron Energy =               -1380.9112800846141909
    Two-Electron Energy =                 544.0590414694252104
    Total Energy =                       -455.8282626386296670

Computation Completed


Properties will be evaluated at   0.000000,   0.000000,   0.000000 [a0]

Properties computed using the SCF density matrix

  Nuclear Dipole Moment: [e a0]
     X:     0.0000      Y:     0.0001      Z:     0.0097

  Electronic Dipole Moment: [e a0]
     X:    -0.0000      Y:    -0.0001      Z:    -0.0080

  Dipole Moment: [e a0]
     X:     0.0000      Y:     0.0000      Z:     0.0018     Total:     0.0018

  Dipole Moment: [D]
     X:     0.0001      Y:     0.0000      Z:     0.0045     Total:     0.0045


*** tstop() called on r282 at Thu Sep  9 11:59:53 2021
Module time:
	user time   =      33.94 seconds =       0.57 minutes
	system time =       0.95 seconds =       0.02 minutes
	total time  =         35 seconds =       0.58 minutes
Total time:
	user time   =      33.94 seconds =       0.57 minutes
	system time =       0.95 seconds =       0.02 minutes
	total time  =         35 seconds =       0.58 minutes

  //>>>>>>>>>>>>>>>>>>>>>>>>>>>>>>>>>>>//
  //            Monomer A HF           //
  //<<<<<<<<<<<<<<<<<<<<<<<<<<<<<<<<<<<//


*** tstart() called on r282
*** at Thu Sep  9 11:59:53 2021

   => Loading Basis Set <=

    Name: JUN-CC-PVTZ
    Role: ORBITAL
    Keyword: BASIS
    atoms 1, 5, 9, 13       entry C          line   217 file /home/r08543048/miniconda3/share/psi4/basis/jun-cc-pvtz.gbs 
    atoms 2-3, 10-11        entry O          line   305 file /home/r08543048/miniconda3/share/psi4/basis/jun-cc-pvtz.gbs 
    atoms 4, 6-8, 12, 14-16 entry H          line    36 file /home/r08543048/miniconda3/share/psi4/basis/jun-cc-pvtz.gbs 


         ---------------------------------------------------------
                                   SCF
               by Justin Turney, Rob Parrish, Andy Simmonett
                          and Daniel G. A. Smith
                              RHF Reference
                        1 Threads,  20980 MiB Core
         ---------------------------------------------------------

  ==> Geometry <==

    Molecular point group: c1
    Full point group: C1

    Geometry (in Angstrom), charge = 0, multiplicity = 1:

       Center              X                  Y                   Z               Mass       
    ------------   -----------------  -----------------  -----------------  -----------------
         C           -1.931375870882     0.060743894853    -0.000921844655    12.000000000000
         O           -1.243081870882     1.077158894853    -0.000956844655    15.994914619570
         O           -1.435965870882    -1.166924105147    -0.001298844655    15.994914619570
         H           -0.440004870882    -1.118912105147    -0.000625844655     1.007825032230
         C           -3.428195870882     0.081960894853     0.001431155345    12.000000000000
         H           -3.783053870882     1.105844894853    -0.015886844655     1.007825032230
         H           -3.797499870882    -0.463370105147    -0.864779844655     1.007825032230
         H           -3.791922870882    -0.429463105147     0.890659155345     1.007825032230
      Gh(C)           1.931401129118    -0.060753105147     0.000428155345    12.000000000000
      Gh(O)           1.243041129118    -1.077112105147     0.000480155345    15.994914619570
      Gh(O)           1.435964129118     1.166926894853    -0.000038844655    15.994914619570
      Gh(H)           0.439945129118     1.119138894853    -0.000445844655     1.007825032230
      Gh(C)           3.428224129118    -0.082027105147     0.000610155345    12.000000000000
      Gh(H)           3.783046129118    -1.106068105147     0.003215155345     1.007825032230
      Gh(H)           3.794691129118     0.444069894853    -0.878764844655     1.007825032230
      Gh(H)           3.794836129118     0.448870894853     0.876997155345     1.007825032230

  Running in c1 symmetry.

  Rotational constants: A =      0.18767  B =      0.02920  C =      0.02550 [cm^-1]
  Rotational constants: A =   5626.20199  B =    875.29929  C =    764.57821 [MHz]
  Nuclear repulsion =  121.240865563135571

  Charge       = 0
  Multiplicity = 1
  Electrons    = 32
  Nalpha       = 16
  Nbeta        = 16

  ==> Algorithm <==

  SCF Algorithm Type is DF.
  DIIS enabled.
  MOM disabled.
  Fractional occupation disabled.
  Guess Type is SAD.
  Energy threshold   = 1.00e-08
  Density threshold  = 1.00e-08
  Integral threshold = 0.00e+00

  ==> Primary Basis <==

  Basis Set: JUN-CC-PVTZ
    Blend: JUN-CC-PVTZ
    Number of shells: 152
    Number of basis function: 424
    Number of Cartesian functions: 480
    Spherical Harmonics?: true
    Max angular momentum: 3

   => Loading Basis Set <=

    Name: (JUN-CC-PVTZ AUX)
    Role: JKFIT
    Keyword: DF_BASIS_SCF
    atoms 1, 5, 9, 13       entry C          line   152 file /home/r08543048/miniconda3/share/psi4/basis/jun-cc-pvtz-jkfit.gbs 
    atoms 2-3, 10-11        entry O          line   272 file /home/r08543048/miniconda3/share/psi4/basis/jun-cc-pvtz-jkfit.gbs 
    atoms 4, 6-8, 12, 14-16 entry H          line    70 file /home/r08543048/miniconda3/share/psi4/basis/jun-cc-pvtz-jkfit.gbs 

  ==> Pre-Iterations <==

   -------------------------------------------------------
    Irrep   Nso     Nmo     Nalpha   Nbeta   Ndocc  Nsocc
   -------------------------------------------------------
     A        424     424       0       0       0       0
   -------------------------------------------------------
    Total     424     424      16      16      16       0
   -------------------------------------------------------

  ==> Integral Setup <==

  ==> DiskDFJK: Density-Fitted J/K Matrices <==

    J tasked:                  Yes
    K tasked:                  Yes
    wK tasked:                  No
    OpenMP threads:              1
    Integrals threads:           1
    Memory [MiB]:            15735
    Algorithm:                Core
    Integral Cache:           LOAD
    Schwarz Cutoff:          1E-12
    Fitting Condition:       1E-10

   => Auxiliary Basis Set <=

  Basis Set: (JUN-CC-PVTZ AUX)
    Blend: JUN-CC-PVTZ-JKFIT
    Number of shells: 312
    Number of basis function: 1000
    Number of Cartesian functions: 1208
    Spherical Harmonics?: true
    Max angular momentum: 4

  Minimum eigenvalue in the overlap matrix is 4.5567720514E-05.
  Using Symmetric Orthogonalization.

  SCF Guess: Superposition of Atomic Densities via on-the-fly atomic UHF.

  ==> Iterations <==

                           Total Energy        Delta E     RMS |[F,P]|

   @DF-RHF iter SAD:  -227.00853630177704   -2.27009e+02   0.00000e+00 
   @DF-RHF iter   1:  -227.74026571587302   -7.31729e-01   1.41756e-03 DIIS
   @DF-RHF iter   2:  -227.85442464063581   -1.14159e-01   8.81855e-04 DIIS
   @DF-RHF iter   3:  -227.89856862876456   -4.41440e-02   1.46976e-04 DIIS
   @DF-RHF iter   4:  -227.90087690100410   -2.30827e-03   6.60144e-05 DIIS
   @DF-RHF iter   5:  -227.90138700270063   -5.10102e-04   1.58055e-05 DIIS
   @DF-RHF iter   6:  -227.90142857923669   -4.15765e-05   7.42537e-06 DIIS
   @DF-RHF iter   7:  -227.90143882309169   -1.02439e-05   2.52209e-06 DIIS
   @DF-RHF iter   8:  -227.90144060265368   -1.77956e-06   7.05895e-07 DIIS
   @DF-RHF iter   9:  -227.90144076326462   -1.60611e-07   1.50607e-07 DIIS
   @DF-RHF iter  10:  -227.90144076942698   -6.16237e-09   3.57007e-08 DIIS
   @DF-RHF iter  11:  -227.90144076967056   -2.43574e-10   7.91673e-09 DIIS
  Energy and wave function converged.


  ==> Post-Iterations <==

    Orbital Energies [Eh]
    ---------------------

    Doubly Occupied:                                                      

       1A    -20.625525     2A    -20.545053     3A    -11.389998  
       4A    -11.244233     5A     -1.470808     6A     -1.352998  
       7A     -1.028924     8A     -0.833701     9A     -0.704538  
      10A     -0.681879    11A     -0.655958    12A     -0.579813  
      13A     -0.572472    14A     -0.565093    15A     -0.476867  
      16A     -0.452152  

    Virtual:                                                              

      17A      0.032926    18A      0.044087    19A      0.057884  
      20A      0.066590    21A      0.070132    22A      0.079264  
      23A      0.080115    24A      0.093524    25A      0.102327  
      26A      0.106504    27A      0.132642    28A      0.140536  
      29A      0.140719    30A      0.145640    31A      0.152605  
      32A      0.161054    33A      0.168610    34A      0.170539  
      35A      0.183200    36A      0.194599    37A      0.196568  
      38A      0.199954    39A      0.208966    40A      0.218483  
      41A      0.222360    42A      0.234882    43A      0.253571  
      44A      0.261998    45A      0.263209    46A      0.264373  
      47A      0.282265    48A      0.284738    49A      0.288277  
      50A      0.292930    51A      0.311975    52A      0.327627  
      53A      0.329459    54A      0.343746    55A      0.350101  
      56A      0.353180    57A      0.366930    58A      0.374810  
      59A      0.378524    60A      0.382370    61A      0.384491  
      62A      0.399540    63A      0.408381    64A      0.420672  
      65A      0.433419    66A      0.436492    67A      0.458277  
      68A      0.458673    69A      0.476280    70A      0.491250  
      71A      0.498599    72A      0.499449    73A      0.502762  
      74A      0.515399    75A      0.519551    76A      0.521827  
      77A      0.534376    78A      0.567745    79A      0.576042  
      80A      0.576661    81A      0.610545    82A      0.621706  
      83A      0.630858    84A      0.643285    85A      0.644540  
      86A      0.656426    87A      0.675232    88A      0.679426  
      89A      0.686111    90A      0.699446    91A      0.717184  
      92A      0.720580    93A      0.753596    94A      0.761021  
      95A      0.769902    96A      0.791943    97A      0.806657  
      98A      0.813816    99A      0.824074   100A      0.825213  
     101A      0.836580   102A      0.837911   103A      0.848708  
     104A      0.855610   105A      0.864607   106A      0.878850  
     107A      0.896318   108A      0.917712   109A      0.935132  
     110A      0.937523   111A      0.953759   112A      0.978746  
     113A      0.983257   114A      0.990913   115A      0.996389  
     116A      1.018743   117A      1.033256   118A      1.033576  
     119A      1.045555   120A      1.047608   121A      1.056517  
     122A      1.074635   123A      1.083927   124A      1.094285  
     125A      1.101028   126A      1.110493   127A      1.122781  
     128A      1.150314   129A      1.189831   130A      1.191830  
     131A      1.201873   132A      1.215329   133A      1.222460  
     134A      1.229932   135A      1.245909   136A      1.255383  
     137A      1.270954   138A      1.280384   139A      1.286626  
     140A      1.310842   141A      1.313272   142A      1.341197  
     143A      1.345471   144A      1.354736   145A      1.366364  
     146A      1.386981   147A      1.392810   148A      1.423628  
     149A      1.442949   150A      1.459762   151A      1.469667  
     152A      1.474152   153A      1.486442   154A      1.507105  
     155A      1.534253   156A      1.545527   157A      1.566389  
     158A      1.566852   159A      1.577897   160A      1.582251  
     161A      1.595048   162A      1.613323   163A      1.643462  
     164A      1.655692   165A      1.690752   166A      1.705737  
     167A      1.717600   168A      1.741543   169A      1.775281  
     170A      1.781786   171A      1.793040   172A      1.827427  
     173A      1.842061   174A      1.889055   175A      1.896298  
     176A      1.920663   177A      1.923207   178A      1.944590  
     179A      1.972461   180A      1.981330   181A      2.027275  
     182A      2.044695   183A      2.085412   184A      2.138920  
     185A      2.165647   186A      2.199426   187A      2.210187  
     188A      2.249948   189A      2.278294   190A      2.334672  
     191A      2.346812   192A      2.377335   193A      2.413598  
     194A      2.423382   195A      2.445381   196A      2.454958  
     197A      2.494887   198A      2.522515   199A      2.579114  
     200A      2.589846   201A      2.622897   202A      2.627876  
     203A      2.680423   204A      2.728604   205A      2.751709  
     206A      2.764861   207A      2.778606   208A      2.795610  
     209A      2.822448   210A      2.870716   211A      2.887894  
     212A      2.915214   213A      2.947740   214A      2.959602  
     215A      2.989505   216A      2.998152   217A      3.012361  
     218A      3.034157   219A      3.049095   220A      3.069522  
     221A      3.097044   222A      3.127750   223A      3.151881  
     224A      3.199192   225A      3.212313   226A      3.279941  
     227A      3.294663   228A      3.343201   229A      3.368724  
     230A      3.401593   231A      3.411648   232A      3.431180  
     233A      3.440793   234A      3.449051   235A      3.485989  
     236A      3.514243   237A      3.544906   238A      3.562774  
     239A      3.589651   240A      3.595264   241A      3.613159  
     242A      3.614736   243A      3.638706   244A      3.646429  
     245A      3.682721   246A      3.684233   247A      3.703703  
     248A      3.713605   249A      3.747031   250A      3.766399  
     251A      3.771783   252A      3.785120   253A      3.790564  
     254A      3.818163   255A      3.833088   256A      3.858679  
     257A      3.868453   258A      3.872871   259A      3.903075  
     260A      3.952725   261A      3.971144   262A      3.972709  
     263A      3.992470   264A      4.006431   265A      4.088060  
     266A      4.138355   267A      4.144560   268A      4.152078  
     269A      4.164946   270A      4.185519   271A      4.210627  
     272A      4.255539   273A      4.263336   274A      4.286970  
     275A      4.311252   276A      4.312949   277A      4.334623  
     278A      4.348154   279A      4.353204   280A      4.365560  
     281A      4.398332   282A      4.406728   283A      4.424805  
     284A      4.452843   285A      4.456630   286A      4.501523  
     287A      4.517470   288A      4.530982   289A      4.561317  
     290A      4.585699   291A      4.597444   292A      4.644873  
     293A      4.647781   294A      4.662202   295A      4.674195  
     296A      4.707730   297A      4.743407   298A      4.747292  
     299A      4.762059   300A      4.772422   301A      4.778662  
     302A      4.787942   303A      4.791274   304A      4.809483  
     305A      4.833603   306A      4.852648   307A      4.864599  
     308A      4.882310   309A      4.902609   310A      4.939748  
     311A      4.970703   312A      5.000112   313A      5.015063  
     314A      5.056836   315A      5.057549   316A      5.083243  
     317A      5.114649   318A      5.116583   319A      5.150123  
     320A      5.156479   321A      5.178484   322A      5.266981  
     323A      5.310068   324A      5.326020   325A      5.394523  
     326A      5.408209   327A      5.443562   328A      5.512998  
     329A      5.531999   330A      5.560979   331A      5.575050  
     332A      5.587353   333A      5.673893   334A      5.676620  
     335A      5.681561   336A      5.686243   337A      5.702499  
     338A      5.710838   339A      5.773488   340A      5.883439  
     341A      5.900798   342A      5.921783   343A      5.979145  
     344A      5.983080   345A      6.050294   346A      6.073454  
     347A      6.113388   348A      6.161580   349A      6.231331  
     350A      6.260813   351A      6.270306   352A      6.330837  
     353A      6.414415   354A      6.426706   355A      6.434531  
     356A      6.495592   357A      6.520482   358A      6.536730  
     359A      6.618194   360A      6.702241   361A      6.726138  
     362A      6.774768   363A      6.808454   364A      6.826686  
     365A      6.943414   366A      6.967574   367A      7.034050  
     368A      7.080556   369A      7.167324   370A      7.172813  
     371A      7.196166   372A      7.222162   373A      7.258572  
     374A      7.290922   375A      7.381623   376A      7.398905  
     377A      7.440018   378A      7.440342   379A      7.526977  
     380A      7.532337   381A      7.572287   382A      7.671012  
     383A      7.734535   384A      7.781974   385A      7.794720  
     386A      7.836360   387A      7.870785   388A      7.922663  
     389A      7.954513   390A      8.034320   391A      8.034996  
     392A      8.116158   393A      8.244218   394A      8.335395  
     395A      8.679501   396A      8.882827   397A      9.119345  
     398A      9.474094   399A      9.705906   400A      9.753881  
     401A      9.858200   402A      9.885491   403A      9.888532  
     404A      9.956367   405A      9.959367   406A     10.221806  
     407A     10.428755   408A     10.536524   409A     11.010952  
     410A     11.385872   411A     11.526276   412A     11.598236  
     413A     11.939778   414A     12.216025   415A     13.142958  
     416A     13.728393   417A     13.853186   418A     14.017387  
     419A     14.452374   420A     14.793384   421A     43.119354  
     422A     46.177280   423A     60.940380   424A     61.837268  

    Final Occupation by Irrep:
              A 
    DOCC [    16 ]

  @DF-RHF Final Energy:  -227.90144076967056

   => Energetics <=

    Nuclear Repulsion Energy =            121.2408655631355714
    One-Electron Energy =                -551.9245884231352193
    Two-Electron Energy =                 202.7822820903290904
    Total Energy =                       -227.9014407696705575

Computation Completed


Properties will be evaluated at   0.000000,   0.000000,   0.000000 [a0]

Properties computed using the SCF density matrix

  Nuclear Dipole Moment: [e a0]
     X:  -123.5924      Y:    -1.4509      Z:    -0.0106

  Electronic Dipole Moment: [e a0]
     X:   123.1638      Y:     0.6752      Z:     0.0127

  Dipole Moment: [e a0]
     X:    -0.4287      Y:    -0.7757      Z:     0.0020     Total:     0.8863

  Dipole Moment: [D]
     X:    -1.0895      Y:    -1.9716      Z:     0.0052     Total:     2.2527


*** tstop() called on r282 at Thu Sep  9 12:00:11 2021
Module time:
	user time   =      18.35 seconds =       0.31 minutes
	system time =       0.46 seconds =       0.01 minutes
	total time  =         18 seconds =       0.30 minutes
Total time:
	user time   =      52.30 seconds =       0.87 minutes
	system time =       1.41 seconds =       0.02 minutes
	total time  =         53 seconds =       0.88 minutes

  //>>>>>>>>>>>>>>>>>>>>>>>>>>>>>>>>>>>//
  //            Monomer B HF           //
  //<<<<<<<<<<<<<<<<<<<<<<<<<<<<<<<<<<<//


*** tstart() called on r282
*** at Thu Sep  9 12:00:11 2021

   => Loading Basis Set <=

    Name: JUN-CC-PVTZ
    Role: ORBITAL
    Keyword: BASIS
    atoms 1, 5, 9, 13       entry C          line   217 file /home/r08543048/miniconda3/share/psi4/basis/jun-cc-pvtz.gbs 
    atoms 2-3, 10-11        entry O          line   305 file /home/r08543048/miniconda3/share/psi4/basis/jun-cc-pvtz.gbs 
    atoms 4, 6-8, 12, 14-16 entry H          line    36 file /home/r08543048/miniconda3/share/psi4/basis/jun-cc-pvtz.gbs 


         ---------------------------------------------------------
                                   SCF
               by Justin Turney, Rob Parrish, Andy Simmonett
                          and Daniel G. A. Smith
                              RHF Reference
                        1 Threads,  20980 MiB Core
         ---------------------------------------------------------

  ==> Geometry <==

    Molecular point group: c1
    Full point group: C1

    Geometry (in Angstrom), charge = 0, multiplicity = 1:

       Center              X                  Y                   Z               Mass       
    ------------   -----------------  -----------------  -----------------  -----------------
      Gh(C)          -1.931375870882     0.060743894853    -0.000921844655    12.000000000000
      Gh(O)          -1.243081870882     1.077158894853    -0.000956844655    15.994914619570
      Gh(O)          -1.435965870882    -1.166924105147    -0.001298844655    15.994914619570
      Gh(H)          -0.440004870882    -1.118912105147    -0.000625844655     1.007825032230
      Gh(C)          -3.428195870882     0.081960894853     0.001431155345    12.000000000000
      Gh(H)          -3.783053870882     1.105844894853    -0.015886844655     1.007825032230
      Gh(H)          -3.797499870882    -0.463370105147    -0.864779844655     1.007825032230
      Gh(H)          -3.791922870882    -0.429463105147     0.890659155345     1.007825032230
         C            1.931401129118    -0.060753105147     0.000428155345    12.000000000000
         O            1.243041129118    -1.077112105147     0.000480155345    15.994914619570
         O            1.435964129118     1.166926894853    -0.000038844655    15.994914619570
         H            0.439945129118     1.119138894853    -0.000445844655     1.007825032230
         C            3.428224129118    -0.082027105147     0.000610155345    12.000000000000
         H            3.783046129118    -1.106068105147     0.003215155345     1.007825032230
         H            3.794691129118     0.444069894853    -0.878764844655     1.007825032230
         H            3.794836129118     0.448870894853     0.876997155345     1.007825032230

  Running in c1 symmetry.

  Rotational constants: A =      0.18767  B =      0.02920  C =      0.02550 [cm^-1]
  Rotational constants: A =   5626.20199  B =    875.29929  C =    764.57821 [MHz]
  Nuclear repulsion =  121.239856997658393

  Charge       = 0
  Multiplicity = 1
  Electrons    = 32
  Nalpha       = 16
  Nbeta        = 16

  ==> Algorithm <==

  SCF Algorithm Type is DF.
  DIIS enabled.
  MOM disabled.
  Fractional occupation disabled.
  Guess Type is SAD.
  Energy threshold   = 1.00e-08
  Density threshold  = 1.00e-08
  Integral threshold = 0.00e+00

  ==> Primary Basis <==

  Basis Set: JUN-CC-PVTZ
    Blend: JUN-CC-PVTZ
    Number of shells: 152
    Number of basis function: 424
    Number of Cartesian functions: 480
    Spherical Harmonics?: true
    Max angular momentum: 3

   => Loading Basis Set <=

    Name: (JUN-CC-PVTZ AUX)
    Role: JKFIT
    Keyword: DF_BASIS_SCF
    atoms 1, 5, 9, 13       entry C          line   152 file /home/r08543048/miniconda3/share/psi4/basis/jun-cc-pvtz-jkfit.gbs 
    atoms 2-3, 10-11        entry O          line   272 file /home/r08543048/miniconda3/share/psi4/basis/jun-cc-pvtz-jkfit.gbs 
    atoms 4, 6-8, 12, 14-16 entry H          line    70 file /home/r08543048/miniconda3/share/psi4/basis/jun-cc-pvtz-jkfit.gbs 

  ==> Pre-Iterations <==

   -------------------------------------------------------
    Irrep   Nso     Nmo     Nalpha   Nbeta   Ndocc  Nsocc
   -------------------------------------------------------
     A        424     424       0       0       0       0
   -------------------------------------------------------
    Total     424     424      16      16      16       0
   -------------------------------------------------------

  ==> Integral Setup <==

  ==> DiskDFJK: Density-Fitted J/K Matrices <==

    J tasked:                  Yes
    K tasked:                  Yes
    wK tasked:                  No
    OpenMP threads:              1
    Integrals threads:           1
    Memory [MiB]:            15735
    Algorithm:                Core
    Integral Cache:           LOAD
    Schwarz Cutoff:          1E-12
    Fitting Condition:       1E-10

   => Auxiliary Basis Set <=

  Basis Set: (JUN-CC-PVTZ AUX)
    Blend: JUN-CC-PVTZ-JKFIT
    Number of shells: 312
    Number of basis function: 1000
    Number of Cartesian functions: 1208
    Spherical Harmonics?: true
    Max angular momentum: 4

  Minimum eigenvalue in the overlap matrix is 4.5567720514E-05.
  Using Symmetric Orthogonalization.

  SCF Guess: Superposition of Atomic Densities via on-the-fly atomic UHF.

  ==> Iterations <==

                           Total Energy        Delta E     RMS |[F,P]|

   @DF-RHF iter SAD:  -227.00842897900466   -2.27008e+02   0.00000e+00 
   @DF-RHF iter   1:  -227.74026025982013   -7.31831e-01   1.41757e-03 DIIS
   @DF-RHF iter   2:  -227.85442102486090   -1.14161e-01   8.81867e-04 DIIS
   @DF-RHF iter   3:  -227.89856592579116   -4.41449e-02   1.46973e-04 DIIS
   @DF-RHF iter   4:  -227.90087425695268   -2.30833e-03   6.60159e-05 DIIS
   @DF-RHF iter   5:  -227.90138438574019   -5.10129e-04   1.58065e-05 DIIS
   @DF-RHF iter   6:  -227.90142596906412   -4.15833e-05   7.42600e-06 DIIS
   @DF-RHF iter   7:  -227.90143621491939   -1.02459e-05   2.52240e-06 DIIS
   @DF-RHF iter   8:  -227.90143799485509   -1.77994e-06   7.05929e-07 DIIS
   @DF-RHF iter   9:  -227.90143815547719   -1.60622e-07   1.50605e-07 DIIS
   @DF-RHF iter  10:  -227.90143816164016   -6.16296e-09   3.56967e-08 DIIS
   @DF-RHF iter  11:  -227.90143816188129   -2.41130e-10   7.91234e-09 DIIS
  Energy and wave function converged.


  ==> Post-Iterations <==

    Orbital Energies [Eh]
    ---------------------

    Doubly Occupied:                                                      

       1A    -20.625510     2A    -20.545048     3A    -11.389996  
       4A    -11.244240     5A     -1.470780     6A     -1.352988  
       7A     -1.028923     8A     -0.833699     9A     -0.704513  
      10A     -0.681874    11A     -0.655948    12A     -0.579809  
      13A     -0.572469    14A     -0.565088    15A     -0.476862  
      16A     -0.452148  

    Virtual:                                                              

      17A      0.032926    18A      0.044087    19A      0.057883  
      20A      0.066590    21A      0.070135    22A      0.079266  
      23A      0.080113    24A      0.093525    25A      0.102327  
      26A      0.106504    27A      0.132643    28A      0.140537  
      29A      0.140717    30A      0.145642    31A      0.152605  
      32A      0.161053    33A      0.168622    34A      0.170535  
      35A      0.183187    36A      0.194597    37A      0.196577  
      38A      0.199953    39A      0.208971    40A      0.218485  
      41A      0.222358    42A      0.234878    43A      0.253567  
      44A      0.261990    45A      0.263211    46A      0.264379  
      47A      0.282337    48A      0.284665    49A      0.288277  
      50A      0.292934    51A      0.311975    52A      0.327740  
      53A      0.329356    54A      0.343740    55A      0.350098  
      56A      0.353183    57A      0.366938    58A      0.374814  
      59A      0.378513    60A      0.382374    61A      0.384497  
      62A      0.399560    63A      0.408372    64A      0.420678  
      65A      0.433413    66A      0.436484    67A      0.458276  
      68A      0.458663    69A      0.476278    70A      0.491279  
      71A      0.498526    72A      0.499473    73A      0.502815  
      74A      0.515442    75A      0.519476    76A      0.521838  
      77A      0.534375    78A      0.567732    79A      0.576033  
      80A      0.576672    81A      0.610515    82A      0.621737  
      83A      0.630894    84A      0.643264    85A      0.644592  
      86A      0.656418    87A      0.675502    88A      0.679089  
      89A      0.686114    90A      0.699456    91A      0.717167  
      92A      0.720575    93A      0.753611    94A      0.761033  
      95A      0.769896    96A      0.791936    97A      0.806676  
      98A      0.813835    99A      0.824105   100A      0.825193  
     101A      0.836548   102A      0.837939   103A      0.848700  
     104A      0.855620   105A      0.864629   106A      0.878828  
     107A      0.896328   108A      0.917708   109A      0.935101  
     110A      0.937576   111A      0.953767   112A      0.978823  
     113A      0.983253   114A      0.990870   115A      0.996422  
     116A      1.018710   117A      1.033132   118A      1.033994  
     119A      1.045305   120A      1.047594   121A      1.056525  
     122A      1.074544   123A      1.083968   124A      1.094250  
     125A      1.101060   126A      1.110415   127A      1.122761  
     128A      1.150275   129A      1.190185   130A      1.191633  
     131A      1.201950   132A      1.215291   133A      1.222256  
     134A      1.230106   135A      1.245992   136A      1.255250  
     137A      1.271001   138A      1.280523   139A      1.286540  
     140A      1.311858   141A      1.312191   142A      1.341228  
     143A      1.345365   144A      1.354760   145A      1.366347  
     146A      1.387016   147A      1.392829   148A      1.423618  
     149A      1.442969   150A      1.459758   151A      1.469417  
     152A      1.474389   153A      1.486458   154A      1.507166  
     155A      1.534282   156A      1.545470   157A      1.566635  
     158A      1.566637   159A      1.577817   160A      1.582323  
     161A      1.595068   162A      1.613299   163A      1.643465  
     164A      1.655715   165A      1.690767   166A      1.705783  
     167A      1.717566   168A      1.741530   169A      1.775360  
     170A      1.781745   171A      1.792970   172A      1.827385  
     173A      1.842046   174A      1.889078   175A      1.896239  
     176A      1.920703   177A      1.923259   178A      1.944592  
     179A      1.972429   180A      1.981367   181A      2.027208  
     182A      2.044744   183A      2.085452   184A      2.138907  
     185A      2.165635   186A      2.199412   187A      2.210177  
     188A      2.249957   189A      2.278258   190A      2.334674  
     191A      2.346799   192A      2.377317   193A      2.413610  
     194A      2.423331   195A      2.445368   196A      2.454946  
     197A      2.494925   198A      2.522535   199A      2.579164  
     200A      2.589899   201A      2.622973   202A      2.627864  
     203A      2.680441   204A      2.728630   205A      2.751723  
     206A      2.764917   207A      2.778578   208A      2.795582  
     209A      2.822533   210A      2.870633   211A      2.888004  
     212A      2.915236   213A      2.947741   214A      2.959637  
     215A      2.989597   216A      2.998158   217A      3.012396  
     218A      3.034162   219A      3.049034   220A      3.069485  
     221A      3.097066   222A      3.127717   223A      3.151856  
     224A      3.199304   225A      3.212115   226A      3.279983  
     227A      3.294659   228A      3.343182   229A      3.368552  
     230A      3.401597   231A      3.411665   232A      3.431276  
     233A      3.440784   234A      3.448997   235A      3.485971  
     236A      3.514427   237A      3.544847   238A      3.562819  
     239A      3.589674   240A      3.595375   241A      3.613063  
     242A      3.614545   243A      3.638654   244A      3.646391  
     245A      3.682886   246A      3.684160   247A      3.703651  
     248A      3.713649   249A      3.747034   250A      3.766406  
     251A      3.771772   252A      3.785070   253A      3.790557  
     254A      3.818204   255A      3.832971   256A      3.858534  
     257A      3.867783   258A      3.873702   259A      3.903080  
     260A      3.952681   261A      3.970821   262A      3.973127  
     263A      3.992371   264A      4.006510   265A      4.088086  
     266A      4.138924   267A      4.144151   268A      4.152241  
     269A      4.164763   270A      4.185529   271A      4.210573  
     272A      4.255368   273A      4.263519   274A      4.286963  
     275A      4.311533   276A      4.312805   277A      4.334562  
     278A      4.348181   279A      4.353162   280A      4.365660  
     281A      4.398329   282A      4.406732   283A      4.424769  
     284A      4.452928   285A      4.456530   286A      4.501528  
     287A      4.517534   288A      4.530957   289A      4.561299  
     290A      4.585629   291A      4.597595   292A      4.645714  
     293A      4.646715   294A      4.662107   295A      4.674240  
     296A      4.707763   297A      4.743414   298A      4.747355  
     299A      4.762119   300A      4.772409   301A      4.778633  
     302A      4.787917   303A      4.791217   304A      4.809509  
     305A      4.833584   306A      4.852706   307A      4.864662  
     308A      4.882352   309A      4.902601   310A      4.939731  
     311A      4.970711   312A      5.000069   313A      5.015086  
     314A      5.056700   315A      5.057764   316A      5.083193  
     317A      5.114241   318A      5.117015   319A      5.150018  
     320A      5.156418   321A      5.178384   322A      5.267017  
     323A      5.310066   324A      5.326021   325A      5.394470  
     326A      5.408241   327A      5.443489   328A      5.513020  
     329A      5.531915   330A      5.560969   331A      5.575126  
     332A      5.587277   333A      5.674152   334A      5.676337  
     335A      5.681501   336A      5.686306   337A      5.702578  
     338A      5.710849   339A      5.773527   340A      5.883469  
     341A      5.900705   342A      5.921862   343A      5.979091  
     344A      5.983306   345A      6.050304   346A      6.073308  
     347A      6.113526   348A      6.161474   349A      6.231330  
     350A      6.260855   351A      6.270214   352A      6.330823  
     353A      6.414405   354A      6.426715   355A      6.434546  
     356A      6.495563   357A      6.520531   358A      6.536737  
     359A      6.618120   360A      6.702165   361A      6.726120  
     362A      6.774797   363A      6.808558   364A      6.826652  
     365A      6.943215   366A      6.967569   367A      7.034052  
     368A      7.080450   369A      7.167262   370A      7.172808  
     371A      7.196539   372A      7.222122   373A      7.258563  
     374A      7.290941   375A      7.381620   376A      7.398877  
     377A      7.440131   378A      7.440285   379A      7.526974  
     380A      7.532382   381A      7.572274   382A      7.671051  
     383A      7.734531   384A      7.782042   385A      7.794798  
     386A      7.836424   387A      7.870868   388A      7.922743  
     389A      7.954481   390A      8.034370   391A      8.034999  
     392A      8.116151   393A      8.244218   394A      8.335374  
     395A      8.679468   396A      8.883028   397A      9.119441  
     398A      9.474038   399A      9.705897   400A      9.753887  
     401A      9.858159   402A      9.885408   403A      9.888596  
     404A      9.956313   405A      9.959373   406A     10.221836  
     407A     10.428674   408A     10.536594   409A     11.010856  
     410A     11.386206   411A     11.526403   412A     11.598325  
     413A     11.939759   414A     12.215849   415A     13.143311  
     416A     13.728353   417A     13.852922   418A     14.017217  
     419A     14.452323   420A     14.793802   421A     43.119687  
     422A     46.176922   423A     60.939516   424A     61.838372  

    Final Occupation by Irrep:
              A 
    DOCC [    16 ]

  @DF-RHF Final Energy:  -227.90143816188129

   => Energetics <=

    Nuclear Repulsion Energy =            121.2398569976583929
    One-Electron Energy =                -551.9228021730001501
    Two-Electron Energy =                 202.7815070134604412
    Total Energy =                       -227.9014381618812877

Computation Completed


Properties will be evaluated at   0.000000,   0.000000,   0.000000 [a0]

Properties computed using the SCF density matrix

  Nuclear Dipole Moment: [e a0]
     X:   123.5925      Y:     1.4510      Z:     0.0203

  Electronic Dipole Moment: [e a0]
     X:  -123.1638      Y:    -0.6753      Z:    -0.0207

  Dipole Moment: [e a0]
     X:     0.4287      Y:     0.7757      Z:    -0.0003     Total:     0.8863

  Dipole Moment: [D]
     X:     1.0897      Y:     1.9717      Z:    -0.0009     Total:     2.2528


*** tstop() called on r282 at Thu Sep  9 12:00:30 2021
Module time:
	user time   =      18.04 seconds =       0.30 minutes
	system time =       0.44 seconds =       0.01 minutes
	total time  =         19 seconds =       0.32 minutes
Total time:
	user time   =      70.34 seconds =       1.17 minutes
	system time =       1.85 seconds =       0.03 minutes
	total time  =         72 seconds =       1.20 minutes
  Constructing Basis Sets for SAPT...

   => Loading Basis Set <=

    Name: (JUN-CC-PVTZ AUX)
    Role: RIFIT
    Keyword: DF_BASIS_SAPT
    atoms 1, 5, 9, 13       entry C          line   132 file /home/r08543048/miniconda3/share/psi4/basis/jun-cc-pvtz-ri.gbs 
    atoms 2-3, 10-11        entry O          line   244 file /home/r08543048/miniconda3/share/psi4/basis/jun-cc-pvtz-ri.gbs 
    atoms 4, 6-8, 12, 14-16 entry H          line    30 file /home/r08543048/miniconda3/share/psi4/basis/jun-cc-pvtz-ri.gbs 


  //>>>>>>>>>>>>>>>>>>>>>>>>>>>>>>>>>>>//
  //               SAPT0               //
  //<<<<<<<<<<<<<<<<<<<<<<<<<<<<<<<<<<<//


*** tstart() called on r282
*** at Thu Sep  9 12:00:30 2021

        SAPT0  
    Ed Hohenstein
     6 June 2009

      Orbital Information
  --------------------------
    NSO        =       424
    NMO        =       424
    NRI        =      1016
    NOCC A     =        16
    NOCC B     =        16
    FOCC A     =         4
    FOCC B     =         4
    NVIR A     =       408
    NVIR B     =       408

    Elst10,r            =    -0.053752362479 [Eh]
    Exch10              =     0.054821102414 [Eh]
    Exch10 (S^2)        =     0.053871506108 [Eh]

    Iter     Energy [mEh]          dE [mEh]         Residual      Time [s]
       1     -12.74164154      12.741641544      25.403413781             1
       2     -14.72407068       1.982429141      13.822571517             1
       3     -15.98970392       1.265633235       3.293611259             2
       4     -15.88136688      -0.108337043       1.311246220             3
       5     -15.85865988      -0.022706999       0.395102720             3
       6     -15.87080736       0.012147483       0.167527823             4
       7     -15.87320589       0.002398529       0.043961633             4
       8     -15.87248555      -0.000720339       0.014955186             5
       9     -15.87218008      -0.000305470       0.003784858             5
      10     -15.87225704       0.000076961       0.000868258             6
      11     -15.87226246       0.000005420       0.000175445             7
      12     -15.87225904      -0.000003427       0.000048546             7
      13     -15.87225881      -0.000000225       0.000012804             8
      14     -15.87225909       0.000000275       0.000002290             8
      15     -15.87225906      -0.000000028       0.000000516             9

    CHF Iterations converged


    Iter     Energy [mEh]          dE [mEh]         Residual      Time [s]
       1     -12.74165305      12.741653054      25.401838684             1
       2     -14.72444843       1.982795380      13.822390591             1
       3     -15.98987782       1.265429383       3.293581273             2
       4     -15.88152788      -0.108349935       1.311182563             2
       5     -15.85882835      -0.022699537       0.395063620             3
       6     -15.87097552       0.012147175       0.167522819             3
       7     -15.87337381       0.002398287       0.043958805             4
       8     -15.87265328      -0.000720524       0.014953231             5
       9     -15.87234791      -0.000305372       0.003784754             5
      10     -15.87242487       0.000076961       0.000868265             6
      11     -15.87243029       0.000005419       0.000175455             6
      12     -15.87242686      -0.000003427       0.000048550             7
      13     -15.87242664      -0.000000225       0.000012807             8
      14     -15.87242691       0.000000275       0.000002294             8
      15     -15.87242689      -0.000000028       0.000000522             9

    CHF Iterations converged

    Ind20,r (A<-B)      =    -0.015872259058 [Eh]
    Ind20,r (B<-A)      =    -0.015872426887 [Eh]
    Ind20,r             =    -0.031744685945 [Eh]
    Exch-Ind20,r (A<-B) =     0.008344427228 [Eh]
    Exch-Ind20,r (B<-A) =     0.008345159114 [Eh]
    Exch-Ind20,r        =     0.016689586342 [Eh]
    Disp20              =    -0.016779669815 [Eh]
    Disp20 (SS)         =    -0.008389834907 [Eh]
    Disp20 (OS)         =    -0.008389834907 [Eh]
    Exch-Disp20         =     0.003429363034 [Eh]
    Exch-Disp20 (SS)    =     0.002155390115 [Eh]
    Exch-Disp20 (OS)    =     0.001273972920 [Eh]

    SAPT Results 
  --------------------------------------------------------------------------------------------------------
    Electrostatics                -53.75236248 [mEh]     -33.73011669 [kcal/mol]    -141.12680825 [kJ/mol]
      Elst10,r                    -53.75236248 [mEh]     -33.73011669 [kcal/mol]    -141.12680825 [kJ/mol]

    Exchange                       54.82110241 [mEh]      34.40076113 [kcal/mol]     143.93278456 [kJ/mol]
      Exch10                       54.82110241 [mEh]      34.40076113 [kcal/mol]     143.93278456 [kJ/mol]
      Exch10(S^2)                  53.87150611 [mEh]      33.80488045 [kcal/mol]     141.43961980 [kJ/mol]

    Induction                     -26.45244701 [mEh]     -16.59916111 [kcal/mol]     -69.45089006 [kJ/mol]
      Ind20,r                     -31.74468594 [mEh]     -19.92009117 [kcal/mol]     -83.34566147 [kJ/mol]
      Exch-Ind20,r                 16.68958634 [mEh]      10.47287354 [kcal/mol]      43.81850290 [kJ/mol]
      delta HF,r (2)              -11.39734741 [mEh]      -7.15194348 [kcal/mol]     -29.92373150 [kJ/mol]

    Dispersion                    -13.35030678 [mEh]      -8.37744398 [kcal/mol]     -35.05122562 [kJ/mol]
      Disp20                      -16.77966981 [mEh]     -10.52940178 [kcal/mol]     -44.05501703 [kJ/mol]
      Exch-Disp20                   3.42936303 [mEh]       2.15195779 [kcal/mol]       9.00379141 [kJ/mol]
      Disp20 (SS)                  -8.38983491 [mEh]      -5.26470089 [kcal/mol]     -22.02750851 [kJ/mol]
      Disp20 (OS)                  -8.38983491 [mEh]      -5.26470089 [kcal/mol]     -22.02750851 [kJ/mol]
      Exch-Disp20 (SS)              2.15539011 [mEh]       1.35252772 [kcal/mol]       5.65897597 [kJ/mol]
      Exch-Disp20 (OS)              1.27397292 [mEh]       0.79943008 [kcal/mol]       3.34481544 [kJ/mol]

  Total HF                        -25.38370708 [mEh]     -15.92851667 [kcal/mol]     -66.64491375 [kJ/mol]
  Total SAPT0                     -38.73401386 [mEh]     -24.30596065 [kcal/mol]    -101.69613937 [kJ/mol]

  Special recipe for scaled SAPT0 (see Manual):
    Electrostatics sSAPT0         -53.75236248 [mEh]     -33.73011669 [kcal/mol]    -141.12680825 [kJ/mol]
    Exchange sSAPT0                54.82110241 [mEh]      34.40076113 [kcal/mol]     143.93278456 [kJ/mol]
    Induction sSAPT0              -25.55423352 [mEh]     -16.03552363 [kcal/mol]     -67.09263087 [kJ/mol]
    Dispersion sSAPT0             -13.16574258 [mEh]      -8.26162820 [kcal/mol]     -34.56665239 [kJ/mol]
  Total sSAPT0                    -37.65123617 [mEh]     -23.62650740 [kcal/mol]     -98.85330695 [kJ/mol]
  --------------------------------------------------------------------------------------------------------

*** tstop() called on r282 at Thu Sep  9 12:01:35 2021
Module time:
	user time   =      52.24 seconds =       0.87 minutes
	system time =      11.64 seconds =       0.19 minutes
	total time  =         65 seconds =       1.08 minutes
Total time:
	user time   =     122.69 seconds =       2.04 minutes
	system time =      13.49 seconds =       0.22 minutes
	total time  =        137 seconds =       2.28 minutes

    Psi4 stopped on: Thursday, 09 September 2021 12:01PM
    Psi4 wall time for execution: 0:02:17.52

*** Psi4 exiting successfully. Buy a developer a beer!
