
    -----------------------------------------------------------------------
          Psi4: An Open-Source Ab Initio Electronic Structure Package
                               Psi4 1.3.2 release

                         Git: Rev {HEAD} ecbda83 


    R. M. Parrish, L. A. Burns, D. G. A. Smith, A. C. Simmonett,
    A. E. DePrince III, E. G. Hohenstein, U. Bozkaya, A. Yu. Sokolov,
    R. Di Remigio, R. M. Richard, J. F. Gonthier, A. M. James,
    H. R. McAlexander, A. Kumar, M. Saitow, X. Wang, B. P. Pritchard,
    P. Verma, H. F. Schaefer III, K. Patkowski, R. A. King, E. F. Valeev,
    F. A. Evangelista, J. M. Turney, T. D. Crawford, and C. D. Sherrill,
    J. Chem. Theory Comput. 13(7) pp 3185--3197 (2017).
    (doi: 10.1021/acs.jctc.7b00174)


                         Additional Contributions by
    P. Kraus, H. Kruse, M. H. Lechner, M. C. Schieber, R. A. Shaw,
    A. Alenaizan, R. Galvelis, Z. L. Glick, S. Lehtola, and J. P. Misiewicz

    -----------------------------------------------------------------------


    Psi4 started on: Friday, 10 September 2021 10:08PM

    Process ID: 57237
    Host:       r282
    PSIDATADIR: /home/r08543048/miniconda3/share/psi4
    Memory:     500.0 MiB
    Threads:    1
    
  ==> Input File <==

--------------------------------------------------------------------------
# Any line starting with the # character is a comment line
#! Sample  computation

memory 22 gb

molecule Dimer {
0 1
 C -3.685195   -0.863058   -0.000194
 C -2.944734    0.462163   -0.000285
 C -1.450883    0.302881   -0.000056
 O -0.889650   -0.789322    0.000032
 O -0.811129    1.461772   -0.000196
 H -3.427508   -1.450946    0.878080 
 H -4.760282   -0.693591   -0.000356
 H -3.427283   -1.451197   -0.878234
 H -3.200713    1.069189    0.869759
 H -3.200499    1.068938   -0.870572
 H  0.171607    1.294349   -0.000137

    
    
 --
0 1
 C  2.396752   -0.047148    0.000166
 O  1.838188    1.046084   -0.000084
 O  1.754602   -1.204509    0.000316
 H  0.771622   -1.034655    0.000219
 C  3.885019   -0.208653    0.000306
 H  4.362031    0.764421   -0.000017
 H  4.184526   -0.777581    0.878306
 H  4.184649   -0.778247   -0.877216
 
   
 
 
 
 
 
 
 
 
units angstrom

no_reorient
symmetry c1
}

set globals{
  basis jun-cc-pvtz
}

energy('sapt0')


--------------------------------------------------------------------------

  Memory set to  20.489 GiB by Python driver.

  //>>>>>>>>>>>>>>>>>>>>>>>>>>>>>>>>>>>//
  //              Dimer HF             //
  //<<<<<<<<<<<<<<<<<<<<<<<<<<<<<<<<<<<//


*** tstart() called on r282
*** at Fri Sep 10 22:08:26 2021

   => Loading Basis Set <=

    Name: JUN-CC-PVTZ
    Role: ORBITAL
    Keyword: BASIS
    atoms 1-3, 12, 16     entry C          line   217 file /home/r08543048/miniconda3/share/psi4/basis/jun-cc-pvtz.gbs 
    atoms 4-5, 13-14      entry O          line   305 file /home/r08543048/miniconda3/share/psi4/basis/jun-cc-pvtz.gbs 
    atoms 6-11, 15, 17-19 entry H          line    36 file /home/r08543048/miniconda3/share/psi4/basis/jun-cc-pvtz.gbs 


         ---------------------------------------------------------
                                   SCF
               by Justin Turney, Rob Parrish, Andy Simmonett
                          and Daniel G. A. Smith
                              RHF Reference
                        1 Threads,  20980 MiB Core
         ---------------------------------------------------------

  ==> Geometry <==

    Molecular point group: c1
    Full point group: C1

    Geometry (in Angstrom), charge = 0, multiplicity = 1:

       Center              X                  Y                   Z               Mass       
    ------------   -----------------  -----------------  -----------------  -----------------
         C           -3.717257541677    -0.877761492780    -0.000195210966    12.000000000000
         C           -2.976796541677     0.447459507220    -0.000286210966    12.000000000000
         C           -1.482945541677     0.288177507220    -0.000057210966    12.000000000000
         O           -0.921712541677    -0.804025492780     0.000030789034    15.994914619570
         O           -0.843191541677     1.447068507220    -0.000197210966    15.994914619570
         H           -3.459570541677    -1.465649492780     0.878078789034     1.007825032230
         H           -4.792344541677    -0.708294492780    -0.000357210966     1.007825032230
         H           -3.459345541677    -1.465900492780    -0.878235210966     1.007825032230
         H           -3.232775541677     1.054485507220     0.869757789034     1.007825032230
         H           -3.232561541677     1.054234507220    -0.870573210966     1.007825032230
         H            0.139544458323     1.279645507220    -0.000138210966     1.007825032230
         C            2.364689458323    -0.061851492780     0.000164789034    12.000000000000
         O            1.806125458323     1.031380507220    -0.000085210966    15.994914619570
         O            1.722539458323    -1.219212492780     0.000314789034    15.994914619570
         H            0.739559458323    -1.049358492780     0.000217789034     1.007825032230
         C            3.852956458323    -0.223356492780     0.000304789034    12.000000000000
         H            4.329968458323     0.749717507220    -0.000018210966     1.007825032230
         H            4.152463458323    -0.792284492780     0.878304789034     1.007825032230
         H            4.152586458323    -0.792950492780    -0.877217210966     1.007825032230

  Running in c1 symmetry.

  Rotational constants: A =      0.14761  B =      0.02119  C =      0.01872 [cm^-1]
  Rotational constants: A =   4425.14237  B =    635.23137  C =    561.20695 [MHz]
  Nuclear repulsion =  460.219252592021121

  Charge       = 0
  Multiplicity = 1
  Electrons    = 72
  Nalpha       = 36
  Nbeta        = 36

  ==> Algorithm <==

  SCF Algorithm Type is DF.
  DIIS enabled.
  MOM disabled.
  Fractional occupation disabled.
  Guess Type is SAD.
  Energy threshold   = 1.00e-08
  Density threshold  = 1.00e-08
  Integral threshold = 0.00e+00

  ==> Primary Basis <==

  Basis Set: JUN-CC-PVTZ
    Blend: JUN-CC-PVTZ
    Number of shells: 177
    Number of basis function: 491
    Number of Cartesian functions: 555
    Spherical Harmonics?: true
    Max angular momentum: 3

   => Loading Basis Set <=

    Name: (JUN-CC-PVTZ AUX)
    Role: JKFIT
    Keyword: DF_BASIS_SCF
    atoms 1-3, 12, 16     entry C          line   152 file /home/r08543048/miniconda3/share/psi4/basis/jun-cc-pvtz-jkfit.gbs 
    atoms 4-5, 13-14      entry O          line   272 file /home/r08543048/miniconda3/share/psi4/basis/jun-cc-pvtz-jkfit.gbs 
    atoms 6-11, 15, 17-19 entry H          line    70 file /home/r08543048/miniconda3/share/psi4/basis/jun-cc-pvtz-jkfit.gbs 

  ==> Pre-Iterations <==

   -------------------------------------------------------
    Irrep   Nso     Nmo     Nalpha   Nbeta   Ndocc  Nsocc
   -------------------------------------------------------
     A        491     491       0       0       0       0
   -------------------------------------------------------
    Total     491     491      36      36      36       0
   -------------------------------------------------------

  ==> Integral Setup <==

  ==> DiskDFJK: Density-Fitted J/K Matrices <==

    J tasked:                  Yes
    K tasked:                  Yes
    wK tasked:                  No
    OpenMP threads:              1
    Integrals threads:           1
    Memory [MiB]:            15735
    Algorithm:                Core
    Integral Cache:           SAVE
    Schwarz Cutoff:          1E-12
    Fitting Condition:       1E-10

   => Auxiliary Basis Set <=

  Basis Set: (JUN-CC-PVTZ AUX)
    Blend: JUN-CC-PVTZ-JKFIT
    Number of shells: 361
    Number of basis function: 1155
    Number of Cartesian functions: 1394
    Spherical Harmonics?: true
    Max angular momentum: 4

  Minimum eigenvalue in the overlap matrix is 3.2897093137E-05.
  Using Symmetric Orthogonalization.

  SCF Guess: Superposition of Atomic Densities via on-the-fly atomic UHF.

  ==> Iterations <==

                           Total Energy        Delta E     RMS |[F,P]|

   @DF-RHF iter SAD:  -493.37669835667026   -4.93377e+02   0.00000e+00 
   @DF-RHF iter   1:  -494.55427585014263   -1.17758e+00   1.71596e-03 DIIS
   @DF-RHF iter   2:  -494.80010998235070   -2.45834e-01   9.41093e-04 DIIS
   @DF-RHF iter   3:  -494.87119583767600   -7.10859e-02   1.63157e-04 DIIS
   @DF-RHF iter   4:  -494.87548370329921   -4.28787e-03   7.36619e-05 DIIS
   @DF-RHF iter   5:  -494.87626595416259   -7.82251e-04   1.63372e-05 DIIS
   @DF-RHF iter   6:  -494.87632781822998   -6.18641e-05   8.34427e-06 DIIS
   @DF-RHF iter   7:  -494.87634095629869   -1.31381e-05   2.48378e-06 DIIS
   @DF-RHF iter   8:  -494.87634341596259   -2.45966e-06   9.41213e-07 DIIS
   @DF-RHF iter   9:  -494.87634374516944   -3.29207e-07   2.69013e-07 DIIS
   @DF-RHF iter  10:  -494.87634377049034   -2.53209e-08   6.87412e-08 DIIS
   @DF-RHF iter  11:  -494.87634377187129   -1.38095e-09   1.74253e-08 DIIS
   @DF-RHF iter  12:  -494.87634377194820   -7.69091e-11   4.96560e-09 DIIS
  Energy and wave function converged.


  ==> Post-Iterations <==

    Orbital Energies [Eh]
    ---------------------

    Doubly Occupied:                                                      

       1A    -20.598855     2A    -20.597495     3A    -20.557234  
       4A    -20.556652     5A    -11.396932     6A    -11.393088  
       7A    -11.247272     8A    -11.244116     9A    -11.222382  
      10A     -1.469350    11A     -1.457019    12A     -1.367323  
      13A     -1.353472    14A     -1.068794    15A     -1.029705  
      16A     -0.916972    17A     -0.829275    18A     -0.795822  
      19A     -0.745269    20A     -0.695411    21A     -0.687954  
      22A     -0.676994    23A     -0.662725    24A     -0.650978  
      25A     -0.599982    26A     -0.591326    27A     -0.580289  
      28A     -0.562939    29A     -0.558790    30A     -0.534534  
      31A     -0.526407    32A     -0.505083    33A     -0.491342  
      34A     -0.480173    35A     -0.472642    36A     -0.452738  

    Virtual:                                                              

      37A      0.044887    38A      0.049939    39A      0.061159  
      40A      0.069941    41A      0.073527    42A      0.079058  
      43A      0.080196    44A      0.095941    45A      0.102233  
      46A      0.104464    47A      0.107346    48A      0.109889  
      49A      0.129105    50A      0.139470    51A      0.142153  
      52A      0.152827    53A      0.164498    54A      0.173220  
      55A      0.180141    56A      0.181782    57A      0.189816  
      58A      0.192515    59A      0.198318    60A      0.211247  
      61A      0.217922    62A      0.222676    63A      0.223399  
      64A      0.249108    65A      0.252091    66A      0.259228  
      67A      0.266724    68A      0.268285    69A      0.279295  
      70A      0.284698    71A      0.290263    72A      0.294442  
      73A      0.294575    74A      0.303052    75A      0.306993  
      76A      0.308928    77A      0.312753    78A      0.324261  
      79A      0.328970    80A      0.330249    81A      0.341462  
      82A      0.343212    83A      0.352523    84A      0.368529  
      85A      0.382072    86A      0.387314    87A      0.388030  
      88A      0.403413    89A      0.407862    90A      0.414229  
      91A      0.421146    92A      0.432538    93A      0.434711  
      94A      0.440598    95A      0.457861    96A      0.467901  
      97A      0.478456    98A      0.490460    99A      0.499095  
     100A      0.505319   101A      0.509159   102A      0.516638  
     103A      0.530349   104A      0.534969   105A      0.542567  
     106A      0.555278   107A      0.560181   108A      0.564116  
     109A      0.567871   110A      0.595769   111A      0.601065  
     112A      0.625662   113A      0.629749   114A      0.635248  
     115A      0.644218   116A      0.646549   117A      0.657484  
     118A      0.662384   119A      0.683786   120A      0.691512  
     121A      0.697217   122A      0.705581   123A      0.713395  
     124A      0.717236   125A      0.728005   126A      0.730870  
     127A      0.748272   128A      0.751599   129A      0.771105  
     130A      0.773968   131A      0.790496   132A      0.791645  
     133A      0.800147   134A      0.803153   135A      0.804509  
     136A      0.809902   137A      0.823494   138A      0.836640  
     139A      0.844277   140A      0.848894   141A      0.853683  
     142A      0.865040   143A      0.867419   144A      0.869010  
     145A      0.893155   146A      0.900721   147A      0.911796  
     148A      0.930340   149A      0.940066   150A      0.945797  
     151A      0.961630   152A      0.981800   153A      0.994891  
     154A      1.004877   155A      1.007672   156A      1.012505  
     157A      1.021109   158A      1.025194   159A      1.029758  
     160A      1.054751   161A      1.071028   162A      1.085475  
     163A      1.101365   164A      1.125974   165A      1.127774  
     166A      1.132418   167A      1.152041   168A      1.179970  
     169A      1.181601   170A      1.220675   171A      1.230792  
     172A      1.234144   173A      1.248391   174A      1.258463  
     175A      1.267713   176A      1.269937   177A      1.284287  
     178A      1.287721   179A      1.314136   180A      1.315397  
     181A      1.353232   182A      1.353264   183A      1.355663  
     184A      1.367024   185A      1.370435   186A      1.374208  
     187A      1.411311   188A      1.412018   189A      1.416393  
     190A      1.420503   191A      1.425168   192A      1.442670  
     193A      1.448702   194A      1.454695   195A      1.473746  
     196A      1.488106   197A      1.500509   198A      1.510044  
     199A      1.516948   200A      1.542468   201A      1.543336  
     202A      1.554933   203A      1.565950   204A      1.571897  
     205A      1.574322   206A      1.588639   207A      1.601529  
     208A      1.619457   209A      1.621923   210A      1.646015  
     211A      1.657545   212A      1.663237   213A      1.683823  
     214A      1.702587   215A      1.708632   216A      1.748889  
     217A      1.765964   218A      1.767121   219A      1.790912  
     220A      1.792181   221A      1.811501   222A      1.834391  
     223A      1.871102   224A      1.872722   225A      1.902678  
     226A      1.910116   227A      1.923427   228A      1.958173  
     229A      1.980955   230A      1.993411   231A      2.099739  
     232A      2.110228   233A      2.185701   234A      2.185896  
     235A      2.231565   236A      2.236176   237A      2.267925  
     238A      2.278322   239A      2.312590   240A      2.352630  
     241A      2.383625   242A      2.386332   243A      2.398758  
     244A      2.420199   245A      2.443123   246A      2.458739  
     247A      2.467763   248A      2.563216   249A      2.580756  
     250A      2.613559   251A      2.638147   252A      2.640689  
     253A      2.690440   254A      2.712752   255A      2.760135  
     256A      2.780469   257A      2.788367   258A      2.790979  
     259A      2.823145   260A      2.828474   261A      2.857383  
     262A      2.879475   263A      2.888628   264A      2.928548  
     265A      2.947350   266A      2.960256   267A      2.990413  
     268A      3.022330   269A      3.026406   270A      3.034494  
     271A      3.066511   272A      3.080817   273A      3.095772  
     274A      3.096197   275A      3.112088   276A      3.125087  
     277A      3.128523   278A      3.165312   279A      3.199199  
     280A      3.212484   281A      3.223144   282A      3.237220  
     283A      3.260523   284A      3.274422   285A      3.295127  
     286A      3.299198   287A      3.334795   288A      3.347125  
     289A      3.354210   290A      3.363466   291A      3.379789  
     292A      3.384826   293A      3.412350   294A      3.427868  
     295A      3.434294   296A      3.434789   297A      3.458227  
     298A      3.480615   299A      3.488208   300A      3.489923  
     301A      3.494910   302A      3.511172   303A      3.518431  
     304A      3.533064   305A      3.534225   306A      3.550136  
     307A      3.582178   308A      3.608492   309A      3.613672  
     310A      3.616188   311A      3.636172   312A      3.655545  
     313A      3.661402   314A      3.674753   315A      3.686987  
     316A      3.714047   317A      3.715893   318A      3.729268  
     319A      3.736542   320A      3.759062   321A      3.771657  
     322A      3.775777   323A      3.785151   324A      3.793475  
     325A      3.800164   326A      3.819550   327A      3.830783  
     328A      3.855231   329A      3.862524   330A      3.880378  
     331A      3.880656   332A      3.913494   333A      3.915401  
     334A      3.916981   335A      3.981692   336A      3.993699  
     337A      4.018750   338A      4.060215   339A      4.078275  
     340A      4.089052   341A      4.126257   342A      4.144950  
     343A      4.148332   344A      4.180699   345A      4.203944  
     346A      4.215913   347A      4.216386   348A      4.238541  
     349A      4.261533   350A      4.265770   351A      4.291061  
     352A      4.307296   353A      4.315367   354A      4.329431  
     355A      4.341151   356A      4.347619   357A      4.353970  
     358A      4.365042   359A      4.399434   360A      4.401968  
     361A      4.406200   362A      4.417457   363A      4.420476  
     364A      4.440204   365A      4.464115   366A      4.472626  
     367A      4.480702   368A      4.506207   369A      4.550100  
     370A      4.560344   371A      4.593343   372A      4.597836  
     373A      4.613154   374A      4.632867   375A      4.644891  
     376A      4.668926   377A      4.682495   378A      4.704075  
     379A      4.708261   380A      4.710672   381A      4.743306  
     382A      4.777085   383A      4.779901   384A      4.781084  
     385A      4.813936   386A      4.820099   387A      4.848781  
     388A      4.886712   389A      4.925750   390A      4.931611  
     391A      4.950090   392A      4.990023   393A      5.002214  
     394A      5.092896   395A      5.132887   396A      5.137005  
     397A      5.148978   398A      5.192783   399A      5.228238  
     400A      5.273019   401A      5.275676   402A      5.284109  
     403A      5.302096   404A      5.316827   405A      5.336271  
     406A      5.350176   407A      5.439610   408A      5.441214  
     409A      5.454709   410A      5.498507   411A      5.512864  
     412A      5.568613   413A      5.576125   414A      5.592483  
     415A      5.617970   416A      5.642348   417A      5.642918  
     418A      5.659378   419A      5.678230   420A      5.678526  
     421A      5.730527   422A      5.737116   423A      5.737349  
     424A      5.770370   425A      5.788519   426A      5.809735  
     427A      5.844119   428A      5.877807   429A      5.880918  
     430A      5.881857   431A      5.896105   432A      5.907568  
     433A      5.949954   434A      6.006468   435A      6.034384  
     436A      6.043714   437A      6.057763   438A      6.276506  
     439A      6.287827   440A      6.296010   441A      6.415210  
     442A      6.416133   443A      6.440083   444A      6.477535  
     445A      6.502803   446A      6.507691   447A      6.537475  
     448A      6.567132   449A      6.705134   450A      6.707857  
     451A      6.736763   452A      6.785128   453A      6.888853  
     454A      6.928645   455A      6.967179   456A      6.995246  
     457A      7.097464   458A      7.111007   459A      7.143558  
     460A      7.232383   461A      7.249005   462A      7.287380  
     463A      7.313739   464A      7.326667   465A      7.343915  
     466A      7.376407   467A      7.380594   468A      7.405092  
     469A      7.451503   470A      7.483063   471A      7.501088  
     472A      7.514578   473A      7.707058   474A      7.717771  
     475A      7.759977   476A      7.835298   477A      7.919001  
     478A      7.939336   479A      8.043355   480A      8.063146  
     481A      8.382081   482A      8.384701   483A     12.152220  
     484A     12.318577   485A     13.845624   486A     13.951698  
     487A     14.157789   488A     14.416024   489A     14.614345  
     490A     14.730603   491A     14.807311  

    Final Occupation by Irrep:
              A 
    DOCC [    36 ]

  @DF-RHF Final Energy:  -494.87634377194820

   => Energetics <=

    Nuclear Repulsion Energy =            460.2192525920211210
    One-Electron Energy =               -1591.0365272576516418
    Two-Electron Energy =                 635.9409308936823209
    Total Energy =                       -494.8763437719481999

Computation Completed


Properties will be evaluated at   0.000000,   0.000000,   0.000000 [a0]

Properties computed using the SCF density matrix

  Nuclear Dipole Moment: [e a0]
     X:    -4.3625      Y:    -2.0006      Z:    -0.0002

  Electronic Dipole Moment: [e a0]
     X:     4.3426      Y:     1.9310      Z:     0.0003

  Dipole Moment: [e a0]
     X:    -0.0198      Y:    -0.0696      Z:     0.0001     Total:     0.0724

  Dipole Moment: [D]
     X:    -0.0504      Y:    -0.1769      Z:     0.0002     Total:     0.1839


*** tstop() called on r282 at Fri Sep 10 22:09:31 2021
Module time:
	user time   =      63.88 seconds =       1.06 minutes
	system time =       1.40 seconds =       0.02 minutes
	total time  =         65 seconds =       1.08 minutes
Total time:
	user time   =      63.88 seconds =       1.06 minutes
	system time =       1.40 seconds =       0.02 minutes
	total time  =         65 seconds =       1.08 minutes

  //>>>>>>>>>>>>>>>>>>>>>>>>>>>>>>>>>>>//
  //            Monomer A HF           //
  //<<<<<<<<<<<<<<<<<<<<<<<<<<<<<<<<<<<//


*** tstart() called on r282
*** at Fri Sep 10 22:09:31 2021

   => Loading Basis Set <=

    Name: JUN-CC-PVTZ
    Role: ORBITAL
    Keyword: BASIS
    atoms 1-3, 12, 16     entry C          line   217 file /home/r08543048/miniconda3/share/psi4/basis/jun-cc-pvtz.gbs 
    atoms 4-5, 13-14      entry O          line   305 file /home/r08543048/miniconda3/share/psi4/basis/jun-cc-pvtz.gbs 
    atoms 6-11, 15, 17-19 entry H          line    36 file /home/r08543048/miniconda3/share/psi4/basis/jun-cc-pvtz.gbs 


         ---------------------------------------------------------
                                   SCF
               by Justin Turney, Rob Parrish, Andy Simmonett
                          and Daniel G. A. Smith
                              RHF Reference
                        1 Threads,  20980 MiB Core
         ---------------------------------------------------------

  ==> Geometry <==

    Molecular point group: c1
    Full point group: C1

    Geometry (in Angstrom), charge = 0, multiplicity = 1:

       Center              X                  Y                   Z               Mass       
    ------------   -----------------  -----------------  -----------------  -----------------
         C           -3.717257541677    -0.877761492780    -0.000195210966    12.000000000000
         C           -2.976796541677     0.447459507220    -0.000286210966    12.000000000000
         C           -1.482945541677     0.288177507220    -0.000057210966    12.000000000000
         O           -0.921712541677    -0.804025492780     0.000030789034    15.994914619570
         O           -0.843191541677     1.447068507220    -0.000197210966    15.994914619570
         H           -3.459570541677    -1.465649492780     0.878078789034     1.007825032230
         H           -4.792344541677    -0.708294492780    -0.000357210966     1.007825032230
         H           -3.459345541677    -1.465900492780    -0.878235210966     1.007825032230
         H           -3.232775541677     1.054485507220     0.869757789034     1.007825032230
         H           -3.232561541677     1.054234507220    -0.870573210966     1.007825032230
         H            0.139544458323     1.279645507220    -0.000138210966     1.007825032230
      Gh(C)           2.364689458323    -0.061851492780     0.000164789034    12.000000000000
      Gh(O)           1.806125458323     1.031380507220    -0.000085210966    15.994914619570
      Gh(O)           1.722539458323    -1.219212492780     0.000314789034    15.994914619570
      Gh(H)           0.739559458323    -1.049358492780     0.000217789034     1.007825032230
      Gh(C)           3.852956458323    -0.223356492780     0.000304789034    12.000000000000
      Gh(H)           4.329968458323     0.749717507220    -0.000018210966     1.007825032230
      Gh(H)           4.152463458323    -0.792284492780     0.878304789034     1.007825032230
      Gh(H)           4.152586458323    -0.792950492780    -0.877217210966     1.007825032230

  Running in c1 symmetry.

  Rotational constants: A =      0.14761  B =      0.02119  C =      0.01872 [cm^-1]
  Rotational constants: A =   4425.14237  B =    635.23137  C =    561.20695 [MHz]
  Nuclear repulsion =  178.810013809789496

  Charge       = 0
  Multiplicity = 1
  Electrons    = 40
  Nalpha       = 20
  Nbeta        = 20

  ==> Algorithm <==

  SCF Algorithm Type is DF.
  DIIS enabled.
  MOM disabled.
  Fractional occupation disabled.
  Guess Type is SAD.
  Energy threshold   = 1.00e-08
  Density threshold  = 1.00e-08
  Integral threshold = 0.00e+00

  ==> Primary Basis <==

  Basis Set: JUN-CC-PVTZ
    Blend: JUN-CC-PVTZ
    Number of shells: 177
    Number of basis function: 491
    Number of Cartesian functions: 555
    Spherical Harmonics?: true
    Max angular momentum: 3

   => Loading Basis Set <=

    Name: (JUN-CC-PVTZ AUX)
    Role: JKFIT
    Keyword: DF_BASIS_SCF
    atoms 1-3, 12, 16     entry C          line   152 file /home/r08543048/miniconda3/share/psi4/basis/jun-cc-pvtz-jkfit.gbs 
    atoms 4-5, 13-14      entry O          line   272 file /home/r08543048/miniconda3/share/psi4/basis/jun-cc-pvtz-jkfit.gbs 
    atoms 6-11, 15, 17-19 entry H          line    70 file /home/r08543048/miniconda3/share/psi4/basis/jun-cc-pvtz-jkfit.gbs 

  ==> Pre-Iterations <==

   -------------------------------------------------------
    Irrep   Nso     Nmo     Nalpha   Nbeta   Ndocc  Nsocc
   -------------------------------------------------------
     A        491     491       0       0       0       0
   -------------------------------------------------------
    Total     491     491      20      20      20       0
   -------------------------------------------------------

  ==> Integral Setup <==

  ==> DiskDFJK: Density-Fitted J/K Matrices <==

    J tasked:                  Yes
    K tasked:                  Yes
    wK tasked:                  No
    OpenMP threads:              1
    Integrals threads:           1
    Memory [MiB]:            15735
    Algorithm:                Core
    Integral Cache:           LOAD
    Schwarz Cutoff:          1E-12
    Fitting Condition:       1E-10

   => Auxiliary Basis Set <=

  Basis Set: (JUN-CC-PVTZ AUX)
    Blend: JUN-CC-PVTZ-JKFIT
    Number of shells: 361
    Number of basis function: 1155
    Number of Cartesian functions: 1394
    Spherical Harmonics?: true
    Max angular momentum: 4

  Minimum eigenvalue in the overlap matrix is 3.2897093137E-05.
  Using Symmetric Orthogonalization.

  SCF Guess: Superposition of Atomic Densities via on-the-fly atomic UHF.

  ==> Iterations <==

                           Total Energy        Delta E     RMS |[F,P]|

   @DF-RHF iter SAD:  -266.06693811345173   -2.66067e+02   0.00000e+00 
   @DF-RHF iter   1:  -266.74631842473627   -6.79380e-01   1.32852e-03 DIIS
   @DF-RHF iter   2:  -266.89440794610334   -1.48090e-01   7.93081e-04 DIIS
   @DF-RHF iter   3:  -266.94608503158213   -5.16771e-02   1.43133e-04 DIIS
   @DF-RHF iter   4:  -266.94897723422503   -2.89220e-03   6.69882e-05 DIIS
   @DF-RHF iter   5:  -266.94962401717464   -6.46783e-04   1.30480e-05 DIIS
   @DF-RHF iter   6:  -266.94966834546278   -4.43283e-05   6.26066e-06 DIIS
   @DF-RHF iter   7:  -266.94967704201065   -8.69655e-06   2.29775e-06 DIIS
   @DF-RHF iter   8:  -266.94967888745288   -1.84544e-06   8.34496e-07 DIIS
   @DF-RHF iter   9:  -266.94967915764619   -2.70193e-07   1.97009e-07 DIIS
   @DF-RHF iter  10:  -266.94967917158368   -1.39375e-08   6.05049e-08 DIIS
   @DF-RHF iter  11:  -266.94967917241559   -8.31903e-10   1.58168e-08 DIIS
   @DF-RHF iter  12:  -266.94967917247732   -6.17320e-11   3.65422e-09 DIIS
  Energy and wave function converged.


  ==> Post-Iterations <==

    Orbital Energies [Eh]
    ---------------------

    Doubly Occupied:                                                      

       1A    -20.623378     2A    -20.543440     3A    -11.385389  
       4A    -11.246928     5A    -11.220435     6A     -1.468840  
       7A     -1.351715     8A     -1.066402     9A     -0.917169  
      10A     -0.802767    11A     -0.702619    12A     -0.689900  
      13A     -0.663874    14A     -0.596316    15A     -0.590619  
      16A     -0.534396    17A     -0.523059    18A     -0.504673  
      19A     -0.476106    20A     -0.449533  

    Virtual:                                                              

      21A      0.032606    22A      0.048411    23A      0.055107  
      24A      0.064162    25A      0.065661    26A      0.070170  
      27A      0.076953    28A      0.092373    29A      0.098610  
      30A      0.102692    31A      0.107296    32A      0.109659  
      33A      0.124714    34A      0.132736    35A      0.139277  
      36A      0.141870    37A      0.157284    38A      0.166192  
      39A      0.166198    40A      0.173660    41A      0.174068  
      42A      0.191771    43A      0.195025    44A      0.205270  
      45A      0.212471    46A      0.218622    47A      0.219240  
      48A      0.223106    49A      0.229787    50A      0.240985  
      51A      0.257778    52A      0.260388    53A      0.270325  
      54A      0.271235    55A      0.284450    56A      0.293581  
      57A      0.294304    58A      0.308783    59A      0.314818  
      60A      0.315616    61A      0.322773    62A      0.333705  
      63A      0.336239    64A      0.345057    65A      0.352317  
      66A      0.354765    67A      0.360474    68A      0.372370  
      69A      0.380053    70A      0.380330    71A      0.394041  
      72A      0.406094    73A      0.412678    74A      0.421037  
      75A      0.422380    76A      0.430829    77A      0.437188  
      78A      0.443852    79A      0.450617    80A      0.459786  
      81A      0.468242    82A      0.476856    83A      0.497307  
      84A      0.500213    85A      0.506536    86A      0.510137  
      87A      0.514627    88A      0.524011    89A      0.535121  
      90A      0.545722    91A      0.553103    92A      0.557168  
      93A      0.563935    94A      0.581029    95A      0.594843  
      96A      0.608512    97A      0.622952    98A      0.628407  
      99A      0.632333   100A      0.653919   101A      0.668018  
     102A      0.679977   103A      0.684351   104A      0.692334  
     105A      0.702326   106A      0.717750   107A      0.732093  
     108A      0.733371   109A      0.750750   110A      0.761313  
     111A      0.761452   112A      0.771612   113A      0.789558  
     114A      0.789904   115A      0.808334   116A      0.817793  
     117A      0.824968   118A      0.837632   119A      0.848884  
     120A      0.848893   121A      0.854450   122A      0.858651  
     123A      0.868631   124A      0.880781   125A      0.892335  
     126A      0.896756   127A      0.918307   128A      0.928087  
     129A      0.936069   130A      0.945011   131A      0.963997  
     132A      0.977582   133A      0.985083   134A      0.992568  
     135A      1.009176   136A      1.012190   137A      1.015913  
     138A      1.039803   139A      1.046030   140A      1.053567  
     141A      1.060998   142A      1.067952   143A      1.077939  
     144A      1.086461   145A      1.094300   146A      1.103016  
     147A      1.103462   148A      1.123653   149A      1.132411  
     150A      1.139184   151A      1.160462   152A      1.187895  
     153A      1.200356   154A      1.216782   155A      1.226351  
     156A      1.233854   157A      1.250384   158A      1.258532  
     159A      1.261754   160A      1.277401   161A      1.286917  
     162A      1.295392   163A      1.303077   164A      1.310571  
     165A      1.351394   166A      1.360065   167A      1.360157  
     168A      1.367888   169A      1.411455   170A      1.419075  
     171A      1.427010   172A      1.433158   173A      1.441011  
     174A      1.450292   175A      1.461478   176A      1.471077  
     177A      1.475258   178A      1.490993   179A      1.493410  
     180A      1.501923   181A      1.535416   182A      1.551372  
     183A      1.560171   184A      1.563207   185A      1.576981  
     186A      1.580992   187A      1.598155   188A      1.611195  
     189A      1.622139   190A      1.636637   191A      1.661642  
     192A      1.662598   193A      1.677376   194A      1.700203  
     195A      1.705710   196A      1.741267   197A      1.778092  
     198A      1.782343   199A      1.796193   200A      1.812419  
     201A      1.824184   202A      1.835934   203A      1.837332  
     204A      1.868997   205A      1.902736   206A      1.907437  
     207A      1.907975   208A      1.923696   209A      1.933981  
     210A      1.954280   211A      1.967441   212A      1.995185  
     213A      2.029057   214A      2.080938   215A      2.095854  
     216A      2.110907   217A      2.154049   218A      2.185665  
     219A      2.223222   220A      2.229619   221A      2.266377  
     222A      2.298913   223A      2.350119   224A      2.350843  
     225A      2.413870   226A      2.436843   227A      2.441215  
     228A      2.445836   229A      2.474265   230A      2.498648  
     231A      2.541532   232A      2.593505   233A      2.594286  
     234A      2.638685   235A      2.664813   236A      2.693841  
     237A      2.732000   238A      2.755081   239A      2.779591  
     240A      2.793298   241A      2.800286   242A      2.843654  
     243A      2.884786   244A      2.889689   245A      2.891927  
     246A      2.894946   247A      2.942309   248A      2.955987  
     249A      2.979157   250A      2.986689   251A      3.008975  
     252A      3.029718   253A      3.033897   254A      3.038225  
     255A      3.042192   256A      3.075643   257A      3.103295  
     258A      3.113854   259A      3.131138   260A      3.134499  
     261A      3.169385   262A      3.236415   263A      3.239758  
     264A      3.264342   265A      3.302413   266A      3.337023  
     267A      3.354086   268A      3.368043   269A      3.373485  
     270A      3.408344   271A      3.416482   272A      3.430933  
     273A      3.456166   274A      3.478661   275A      3.488822  
     276A      3.489246   277A      3.515138   278A      3.520236  
     279A      3.525627   280A      3.556637   281A      3.571178  
     282A      3.589926   283A      3.598634   284A      3.605718  
     285A      3.614868   286A      3.616229   287A      3.646624  
     288A      3.653579   289A      3.677954   290A      3.687917  
     291A      3.691127   292A      3.731507   293A      3.739131  
     294A      3.769678   295A      3.781730   296A      3.783640  
     297A      3.785283   298A      3.821770   299A      3.837325  
     300A      3.867899   301A      3.870596   302A      3.881707  
     303A      3.882345   304A      3.910818   305A      3.924675  
     306A      3.946567   307A      3.973164   308A      3.973708  
     309A      3.990416   310A      4.006659   311A      4.044581  
     312A      4.064744   313A      4.072241   314A      4.129361  
     315A      4.146636   316A      4.154552   317A      4.197472  
     318A      4.215862   319A      4.219699   320A      4.236736  
     321A      4.239774   322A      4.265325   323A      4.278098  
     324A      4.296636   325A      4.331689   326A      4.350497  
     327A      4.354546   328A      4.354834   329A      4.362542  
     330A      4.368986   331A      4.385145   332A      4.406337  
     333A      4.421801   334A      4.428571   335A      4.442525  
     336A      4.459788   337A      4.481486   338A      4.493765  
     339A      4.502865   340A      4.532001   341A      4.549285  
     342A      4.569164   343A      4.581635   344A      4.613959  
     345A      4.633627   346A      4.659503   347A      4.661767  
     348A      4.669332   349A      4.700071   350A      4.710997  
     351A      4.711406   352A      4.717059   353A      4.748130  
     354A      4.760599   355A      4.762611   356A      4.782319  
     357A      4.795073   358A      4.802875   359A      4.811629  
     360A      4.835382   361A      4.853404   362A      4.864521  
     363A      4.866018   364A      4.895223   365A      4.923507  
     366A      4.927295   367A      4.946435   368A      4.955521  
     369A      4.997685   370A      5.001712   371A      5.060299  
     372A      5.065466   373A      5.086735   374A      5.107443  
     375A      5.111199   376A      5.147125   377A      5.153107  
     378A      5.192691   379A      5.254586   380A      5.274540  
     381A      5.276242   382A      5.291699   383A      5.309464  
     384A      5.318391   385A      5.339980   386A      5.365067  
     387A      5.405909   388A      5.456409   389A      5.483025  
     390A      5.542300   391A      5.582823   392A      5.584738  
     393A      5.625414   394A      5.650801   395A      5.683760  
     396A      5.695067   397A      5.703497   398A      5.734135  
     399A      5.739792   400A      5.754551   401A      5.809670  
     402A      5.823367   403A      5.890700   404A      5.896942  
     405A      5.918787   406A      5.975583   407A      5.983494  
     408A      6.002685   409A      6.044233   410A      6.053583  
     411A      6.073331   412A      6.119813   413A      6.165579  
     414A      6.236957   415A      6.261556   416A      6.282924  
     417A      6.332363   418A      6.427932   419A      6.480047  
     420A      6.492683   421A      6.500615   422A      6.506266  
     423A      6.523435   424A      6.567673   425A      6.664021  
     426A      6.709166   427A      6.731101   428A      6.792731  
     429A      6.811263   430A      6.831689   431A      6.945598  
     432A      6.970566   433A      7.035243   434A      7.090546  
     435A      7.170022   436A      7.186491   437A      7.198667  
     438A      7.230095   439A      7.275446   440A      7.324871  
     441A      7.397572   442A      7.415901   443A      7.442775  
     444A      7.476995   445A      7.527553   446A      7.535289  
     447A      7.574000   448A      7.677182   449A      7.736886  
     450A      7.783072   451A      7.808928   452A      7.837201  
     453A      7.879390   454A      7.932205   455A      7.978399  
     456A      8.035624   457A      8.047656   458A      8.123435  
     459A      8.253002   460A      8.349044   461A      8.685600  
     462A      8.893090   463A      9.123737   464A      9.483422  
     465A      9.708882   466A      9.755201   467A      9.860067  
     468A      9.888679   469A      9.889794   470A      9.959354  
     471A      9.963151   472A     10.224042   473A     10.431429  
     474A     10.541444   475A     11.014007   476A     11.397243  
     477A     11.527284   478A     11.600180   479A     11.942950  
     480A     12.265413   481A     13.146967   482A     13.742795  
     483A     13.925688   484A     14.040322   485A     14.162205  
     486A     14.565503   487A     14.727057   488A     43.160492  
     489A     46.188373   490A     60.964704   491A     61.908218  

    Final Occupation by Irrep:
              A 
    DOCC [    20 ]

  @DF-RHF Final Energy:  -266.94967917247732

   => Energetics <=

    Nuclear Repulsion Energy =            178.8100138097894956
    One-Electron Energy =                -718.8042721357528535
    Two-Electron Energy =                 273.0445791534859836
    Total Energy =                       -266.9496791724773175

Computation Completed


Properties will be evaluated at   0.000000,   0.000000,   0.000000 [a0]

Properties computed using the SCF density matrix

  Nuclear Dipole Moment: [e a0]
     X:  -153.4803      Y:     7.6347      Z:    -0.0114

  Electronic Dipole Moment: [e a0]
     X:   153.1465      Y:    -6.8910      Z:     0.0113

  Dipole Moment: [e a0]
     X:    -0.3338      Y:     0.7437      Z:    -0.0001     Total:     0.8152

  Dipole Moment: [D]
     X:    -0.8485      Y:     1.8903      Z:    -0.0002     Total:     2.0721


*** tstop() called on r282 at Fri Sep 10 22:10:11 2021
Module time:
	user time   =      39.42 seconds =       0.66 minutes
	system time =       0.67 seconds =       0.01 minutes
	total time  =         40 seconds =       0.67 minutes
Total time:
	user time   =     103.30 seconds =       1.72 minutes
	system time =       2.07 seconds =       0.03 minutes
	total time  =        105 seconds =       1.75 minutes

  //>>>>>>>>>>>>>>>>>>>>>>>>>>>>>>>>>>>//
  //            Monomer B HF           //
  //<<<<<<<<<<<<<<<<<<<<<<<<<<<<<<<<<<<//


*** tstart() called on r282
*** at Fri Sep 10 22:10:11 2021

   => Loading Basis Set <=

    Name: JUN-CC-PVTZ
    Role: ORBITAL
    Keyword: BASIS
    atoms 1-3, 12, 16     entry C          line   217 file /home/r08543048/miniconda3/share/psi4/basis/jun-cc-pvtz.gbs 
    atoms 4-5, 13-14      entry O          line   305 file /home/r08543048/miniconda3/share/psi4/basis/jun-cc-pvtz.gbs 
    atoms 6-11, 15, 17-19 entry H          line    36 file /home/r08543048/miniconda3/share/psi4/basis/jun-cc-pvtz.gbs 


         ---------------------------------------------------------
                                   SCF
               by Justin Turney, Rob Parrish, Andy Simmonett
                          and Daniel G. A. Smith
                              RHF Reference
                        1 Threads,  20980 MiB Core
         ---------------------------------------------------------

  ==> Geometry <==

    Molecular point group: c1
    Full point group: C1

    Geometry (in Angstrom), charge = 0, multiplicity = 1:

       Center              X                  Y                   Z               Mass       
    ------------   -----------------  -----------------  -----------------  -----------------
      Gh(C)          -3.717257541677    -0.877761492780    -0.000195210966    12.000000000000
      Gh(C)          -2.976796541677     0.447459507220    -0.000286210966    12.000000000000
      Gh(C)          -1.482945541677     0.288177507220    -0.000057210966    12.000000000000
      Gh(O)          -0.921712541677    -0.804025492780     0.000030789034    15.994914619570
      Gh(O)          -0.843191541677     1.447068507220    -0.000197210966    15.994914619570
      Gh(H)          -3.459570541677    -1.465649492780     0.878078789034     1.007825032230
      Gh(H)          -4.792344541677    -0.708294492780    -0.000357210966     1.007825032230
      Gh(H)          -3.459345541677    -1.465900492780    -0.878235210966     1.007825032230
      Gh(H)          -3.232775541677     1.054485507220     0.869757789034     1.007825032230
      Gh(H)          -3.232561541677     1.054234507220    -0.870573210966     1.007825032230
      Gh(H)           0.139544458323     1.279645507220    -0.000138210966     1.007825032230
         C            2.364689458323    -0.061851492780     0.000164789034    12.000000000000
         O            1.806125458323     1.031380507220    -0.000085210966    15.994914619570
         O            1.722539458323    -1.219212492780     0.000314789034    15.994914619570
         H            0.739559458323    -1.049358492780     0.000217789034     1.007825032230
         C            3.852956458323    -0.223356492780     0.000304789034    12.000000000000
         H            4.329968458323     0.749717507220    -0.000018210966     1.007825032230
         H            4.152463458323    -0.792284492780     0.878304789034     1.007825032230
         H            4.152586458323    -0.792950492780    -0.877217210966     1.007825032230

  Running in c1 symmetry.

  Rotational constants: A =      0.14761  B =      0.02119  C =      0.01872 [cm^-1]
  Rotational constants: A =   4425.14237  B =    635.23137  C =    561.20695 [MHz]
  Nuclear repulsion =  121.241185007343375

  Charge       = 0
  Multiplicity = 1
  Electrons    = 32
  Nalpha       = 16
  Nbeta        = 16

  ==> Algorithm <==

  SCF Algorithm Type is DF.
  DIIS enabled.
  MOM disabled.
  Fractional occupation disabled.
  Guess Type is SAD.
  Energy threshold   = 1.00e-08
  Density threshold  = 1.00e-08
  Integral threshold = 0.00e+00

  ==> Primary Basis <==

  Basis Set: JUN-CC-PVTZ
    Blend: JUN-CC-PVTZ
    Number of shells: 177
    Number of basis function: 491
    Number of Cartesian functions: 555
    Spherical Harmonics?: true
    Max angular momentum: 3

   => Loading Basis Set <=

    Name: (JUN-CC-PVTZ AUX)
    Role: JKFIT
    Keyword: DF_BASIS_SCF
    atoms 1-3, 12, 16     entry C          line   152 file /home/r08543048/miniconda3/share/psi4/basis/jun-cc-pvtz-jkfit.gbs 
    atoms 4-5, 13-14      entry O          line   272 file /home/r08543048/miniconda3/share/psi4/basis/jun-cc-pvtz-jkfit.gbs 
    atoms 6-11, 15, 17-19 entry H          line    70 file /home/r08543048/miniconda3/share/psi4/basis/jun-cc-pvtz-jkfit.gbs 

  ==> Pre-Iterations <==

   -------------------------------------------------------
    Irrep   Nso     Nmo     Nalpha   Nbeta   Ndocc  Nsocc
   -------------------------------------------------------
     A        491     491       0       0       0       0
   -------------------------------------------------------
    Total     491     491      16      16      16       0
   -------------------------------------------------------

  ==> Integral Setup <==

  ==> DiskDFJK: Density-Fitted J/K Matrices <==

    J tasked:                  Yes
    K tasked:                  Yes
    wK tasked:                  No
    OpenMP threads:              1
    Integrals threads:           1
    Memory [MiB]:            15735
    Algorithm:                Core
    Integral Cache:           LOAD
    Schwarz Cutoff:          1E-12
    Fitting Condition:       1E-10

   => Auxiliary Basis Set <=

  Basis Set: (JUN-CC-PVTZ AUX)
    Blend: JUN-CC-PVTZ-JKFIT
    Number of shells: 361
    Number of basis function: 1155
    Number of Cartesian functions: 1394
    Spherical Harmonics?: true
    Max angular momentum: 4

  Minimum eigenvalue in the overlap matrix is 3.2897093137E-05.
  Using Symmetric Orthogonalization.

  SCF Guess: Superposition of Atomic Densities via on-the-fly atomic UHF.

  ==> Iterations <==

                           Total Energy        Delta E     RMS |[F,P]|

   @DF-RHF iter SAD:  -227.00851248063114   -2.27009e+02   0.00000e+00 
   @DF-RHF iter   1:  -227.74018089605573   -7.31668e-01   1.22421e-03 DIIS
   @DF-RHF iter   2:  -227.85435460614514   -1.14174e-01   7.61704e-04 DIIS
   @DF-RHF iter   3:  -227.89852290603554   -4.41683e-02   1.26971e-04 DIIS
   @DF-RHF iter   4:  -227.90083242063608   -2.30951e-03   5.70227e-05 DIIS
   @DF-RHF iter   5:  -227.90134287423535   -5.10454e-04   1.36510e-05 DIIS
   @DF-RHF iter   6:  -227.90138446908665   -4.15949e-05   6.41225e-06 DIIS
   @DF-RHF iter   7:  -227.90139471530475   -1.02462e-05   2.17821e-06 DIIS
   @DF-RHF iter   8:  -227.90139649548289   -1.78018e-06   6.09911e-07 DIIS
   @DF-RHF iter   9:  -227.90139665629434   -1.60811e-07   1.30189e-07 DIIS
   @DF-RHF iter  10:  -227.90139666246858   -6.17425e-09   3.08431e-08 DIIS
   @DF-RHF iter  11:  -227.90139666270949   -2.40902e-10   6.82018e-09 DIIS
  Energy and wave function converged.


  ==> Post-Iterations <==

    Orbital Energies [Eh]
    ---------------------

    Doubly Occupied:                                                      

       1A    -20.625605     2A    -20.544970     3A    -11.389974  
       4A    -11.244213     5A     -1.470855     6A     -1.352890  
       7A     -1.028888     8A     -0.833723     9A     -0.704500  
      10A     -0.681917    11A     -0.655975    12A     -0.579799  
      13A     -0.572414    14A     -0.565103    15A     -0.476780  
      16A     -0.452104  

    Virtual:                                                              

      17A      0.029857    18A      0.043471    19A      0.055108  
      20A      0.057524    21A      0.062582    22A      0.077831  
      23A      0.078985    24A      0.090144    25A      0.095502  
      26A      0.100858    27A      0.103343    28A      0.108866  
      29A      0.122070    30A      0.134894    31A      0.139902  
      32A      0.141764    33A      0.155639    34A      0.161207  
      35A      0.167745    36A      0.168198    37A      0.176387  
      38A      0.179038    39A      0.195287    40A      0.198416  
      41A      0.202780    42A      0.204707    43A      0.216207  
      44A      0.221041    45A      0.232710    46A      0.242497  
      47A      0.247481    48A      0.262051    49A      0.263044  
      50A      0.278422    51A      0.283232    52A      0.288577  
      53A      0.291714    54A      0.295145    55A      0.305845  
      56A      0.310320    57A      0.323114    58A      0.332737  
      59A      0.333424    60A      0.344921    61A      0.347531  
      62A      0.356793    63A      0.372320    64A      0.374361  
      65A      0.377289    66A      0.395109    67A      0.399302  
      68A      0.402003    69A      0.405465    70A      0.421195  
      71A      0.424464    72A      0.433613    73A      0.438078  
      74A      0.443928    75A      0.452770    76A      0.458557  
      77A      0.480553    78A      0.482880    79A      0.505908  
      80A      0.508427    81A      0.512152    82A      0.518205  
      83A      0.526425    84A      0.526578    85A      0.532743  
      86A      0.544912    87A      0.555304    88A      0.557810  
      89A      0.566247    90A      0.584185    91A      0.600275  
      92A      0.618727    93A      0.621920    94A      0.630893  
      95A      0.645614    96A      0.651733    97A      0.655856  
      98A      0.661404    99A      0.662119   100A      0.686719  
     101A      0.696292   102A      0.704650   103A      0.708235  
     104A      0.717585   105A      0.721490   106A      0.739059  
     107A      0.758789   108A      0.771741   109A      0.773566  
     110A      0.794924   111A      0.818279   112A      0.818999  
     113A      0.827364   114A      0.836022   115A      0.845260  
     116A      0.848414   117A      0.859237   118A      0.861219  
     119A      0.870703   120A      0.885805   121A      0.900546  
     122A      0.902413   123A      0.936617   124A      0.946651  
     125A      0.951068   126A      0.965201   127A      0.989157  
     128A      0.991209   129A      1.009468   130A      1.013463  
     131A      1.028724   132A      1.041503   133A      1.046018  
     134A      1.057904   135A      1.060467   136A      1.077022  
     137A      1.080529   138A      1.086000   139A      1.097852  
     140A      1.100693   141A      1.124000   142A      1.139662  
     143A      1.151654   144A      1.158915   145A      1.182240  
     146A      1.201457   147A      1.207950   148A      1.226296  
     149A      1.236328   150A      1.239335   151A      1.244225  
     152A      1.247488   153A      1.260616   154A      1.264530  
     155A      1.274926   156A      1.282985   157A      1.289426  
     158A      1.306328   159A      1.310555   160A      1.319222  
     161A      1.345753   162A      1.348833   163A      1.360122  
     164A      1.361450   165A      1.366040   166A      1.383838  
     167A      1.407509   168A      1.429664   169A      1.440331  
     170A      1.445561   171A      1.458774   172A      1.476554  
     173A      1.482746   174A      1.499184   175A      1.513538  
     176A      1.520461   177A      1.538087   178A      1.559336  
     179A      1.560396   180A      1.580654   181A      1.590475  
     182A      1.591360   183A      1.602127   184A      1.604431  
     185A      1.626313   186A      1.645651   187A      1.649385  
     188A      1.674334   189A      1.705859   190A      1.715484  
     191A      1.736500   192A      1.759115   193A      1.767733  
     194A      1.779256   195A      1.801557   196A      1.802597  
     197A      1.807768   198A      1.838612   199A      1.851520  
     200A      1.899828   201A      1.910810   202A      1.935318  
     203A      1.937977   204A      1.946124   205A      1.973892  
     206A      1.991999   207A      2.024369   208A      2.045172  
     209A      2.083866   210A      2.102348   211A      2.129968  
     212A      2.160694   213A      2.161736   214A      2.187497  
     215A      2.213808   216A      2.239130   217A      2.280804  
     218A      2.313276   219A      2.313978   220A      2.364181  
     221A      2.380271   222A      2.409747   223A      2.425554  
     224A      2.441806   225A      2.446661   226A      2.487574  
     227A      2.496017   228A      2.522219   229A      2.549327  
     230A      2.583052   231A      2.616697   232A      2.630429  
     233A      2.638997   234A      2.695008   235A      2.716322  
     236A      2.762976   237A      2.772733   238A      2.775907  
     239A      2.793554   240A      2.817619   241A      2.831299  
     242A      2.879688   243A      2.903121   244A      2.934033  
     245A      2.961794   246A      2.973262   247A      3.003971  
     248A      3.021948   249A      3.036836   250A      3.037776  
     251A      3.056213   252A      3.096255   253A      3.097244  
     254A      3.132710   255A      3.167710   256A      3.199924  
     257A      3.224417   258A      3.288608   259A      3.301963  
     260A      3.343365   261A      3.368777   262A      3.410213  
     263A      3.421652   264A      3.431651   265A      3.448579  
     266A      3.465039   267A      3.489220   268A      3.526618  
     269A      3.536284   270A      3.548983   271A      3.598610  
     272A      3.600376   273A      3.604895   274A      3.610246  
     275A      3.618262   276A      3.640749   277A      3.646449  
     278A      3.684682   279A      3.687377   280A      3.704577  
     281A      3.711463   282A      3.723232   283A      3.747336  
     284A      3.748557   285A      3.768233   286A      3.772115  
     287A      3.797744   288A      3.802575   289A      3.810442  
     290A      3.819778   291A      3.838817   292A      3.852674  
     293A      3.856856   294A      3.862930   295A      3.883537  
     296A      3.908206   297A      3.908312   298A      3.924464  
     299A      3.986626   300A      3.995754   301A      4.027839  
     302A      4.027925   303A      4.093778   304A      4.117364  
     305A      4.142797   306A      4.150134   307A      4.160359  
     308A      4.166888   309A      4.179813   310A      4.187644  
     311A      4.217592   312A      4.236286   313A      4.278416  
     314A      4.287206   315A      4.306345   316A      4.312819  
     317A      4.329856   318A      4.341347   319A      4.357427  
     320A      4.386367   321A      4.398477   322A      4.407776  
     323A      4.410687   324A      4.434649   325A      4.453850  
     326A      4.463400   327A      4.483801   328A      4.487548  
     329A      4.506946   330A      4.541149   331A      4.564097  
     332A      4.590086   333A      4.603411   334A      4.640517  
     335A      4.649535   336A      4.661100   337A      4.669492  
     338A      4.687332   339A      4.691949   340A      4.728228  
     341A      4.732499   342A      4.742610   343A      4.762190  
     344A      4.773680   345A      4.774486   346A      4.789431  
     347A      4.799678   348A      4.805272   349A      4.815718  
     350A      4.820600   351A      4.828765   352A      4.860675  
     353A      4.865477   354A      4.898876   355A      4.903219  
     356A      4.921443   357A      4.947931   358A      4.957529  
     359A      4.973446   360A      4.983458   361A      4.986475  
     362A      4.998274   363A      5.013306   364A      5.049661  
     365A      5.074071   366A      5.075239   367A      5.094045  
     368A      5.104294   369A      5.122048   370A      5.141821  
     371A      5.150249   372A      5.188304   373A      5.225737  
     374A      5.270613   375A      5.274864   376A      5.299530  
     377A      5.322328   378A      5.396664   379A      5.436654  
     380A      5.443645   381A      5.497333   382A      5.512792  
     383A      5.555379   384A      5.565792   385A      5.569082  
     386A      5.573785   387A      5.640691   388A      5.661454  
     389A      5.676941   390A      5.685172   391A      5.701509  
     392A      5.712991   393A      5.743874   394A      5.753976  
     395A      5.790405   396A      5.826325   397A      5.882205  
     398A      5.890862   399A      5.901863   400A      5.939257  
     401A      5.998272   402A      6.050374   403A      6.076084  
     404A      6.088833   405A      6.170005   406A      6.194385  
     407A      6.272834   408A      6.306221   409A      6.353713  
     410A      6.393641   411A      6.414982   412A      6.430611  
     413A      6.437662   414A      6.441248   415A      6.445081  
     416A      6.526900   417A      6.550171   418A      6.551088  
     419A      6.631346   420A      6.706410   421A      6.753477  
     422A      6.768436   423A      6.815124   424A      6.879492  
     425A      6.898325   426A      6.947414   427A      6.967898  
     428A      7.037582   429A      7.086108   430A      7.173629  
     431A      7.175574   432A      7.213425   433A      7.237513  
     434A      7.259309   435A      7.292659   436A      7.383630  
     437A      7.406470   438A      7.428802   439A      7.440696  
     440A      7.480804   441A      7.526859   442A      7.567287  
     443A      7.610160   444A      7.681222   445A      7.683355  
     446A      7.759913   447A      7.786256   448A      7.815744  
     449A      7.835644   450A      7.883168   451A      7.927464  
     452A      7.963633   453A      7.988848   454A      8.036214  
     455A      8.052937   456A      8.144356   457A      8.242046  
     458A      8.276479   459A      8.541071   460A      8.694561  
     461A      8.900645   462A      9.167324   463A      9.483570  
     464A      9.689127   465A      9.755210   466A      9.771218  
     467A      9.870822   468A      9.893927   469A      9.917073  
     470A      9.968831   471A      9.975677   472A     10.255108  
     473A     10.438723   474A     10.552926   475A     11.041035  
     476A     11.435823   477A     11.557773   478A     11.623236  
     479A     12.001782   480A     12.246598   481A     13.167236  
     482A     13.745348   483A     13.867401   484A     14.052043  
     485A     14.469397   486A     14.800785   487A     43.310916  
     488A     45.127262   489A     45.836705   490A     61.096169  
     491A     62.121741  

    Final Occupation by Irrep:
              A 
    DOCC [    16 ]

  @DF-RHF Final Energy:  -227.90139666270949

   => Energetics <=

    Nuclear Repulsion Energy =            121.2411850073433754
    One-Electron Energy =                -551.9257429282920384
    Two-Electron Energy =                 202.7831612582392040
    Total Energy =                       -227.9013966627094874

Computation Completed


Properties will be evaluated at   0.000000,   0.000000,   0.000000 [a0]

Properties computed using the SCF density matrix

  Nuclear Dipole Moment: [e a0]
     X:   149.1179      Y:    -9.6353      Z:     0.0112

  Electronic Dipole Moment: [e a0]
     X:  -148.7878      Y:     8.8122      Z:    -0.0110

  Dipole Moment: [e a0]
     X:     0.3301      Y:    -0.8231      Z:     0.0002     Total:     0.8868

  Dipole Moment: [D]
     X:     0.8389      Y:    -2.0920      Z:     0.0005     Total:     2.2539


*** tstop() called on r282 at Fri Sep 10 22:10:47 2021
Module time:
	user time   =      34.62 seconds =       0.58 minutes
	system time =       0.60 seconds =       0.01 minutes
	total time  =         36 seconds =       0.60 minutes
Total time:
	user time   =     137.93 seconds =       2.30 minutes
	system time =       2.67 seconds =       0.04 minutes
	total time  =        141 seconds =       2.35 minutes
  Constructing Basis Sets for SAPT...

   => Loading Basis Set <=

    Name: (JUN-CC-PVTZ AUX)
    Role: RIFIT
    Keyword: DF_BASIS_SAPT
    atoms 1-3, 12, 16     entry C          line   132 file /home/r08543048/miniconda3/share/psi4/basis/jun-cc-pvtz-ri.gbs 
    atoms 4-5, 13-14      entry O          line   244 file /home/r08543048/miniconda3/share/psi4/basis/jun-cc-pvtz-ri.gbs 
    atoms 6-11, 15, 17-19 entry H          line    30 file /home/r08543048/miniconda3/share/psi4/basis/jun-cc-pvtz-ri.gbs 


  //>>>>>>>>>>>>>>>>>>>>>>>>>>>>>>>>>>>//
  //               SAPT0               //
  //<<<<<<<<<<<<<<<<<<<<<<<<<<<<<<<<<<<//


*** tstart() called on r282
*** at Fri Sep 10 22:10:47 2021

        SAPT0  
    Ed Hohenstein
     6 June 2009

      Orbital Information
  --------------------------
    NSO        =       491
    NMO        =       491
    NRI        =      1173
    NOCC A     =        20
    NOCC B     =        16
    FOCC A     =         0
    FOCC B     =         0
    NVIR A     =       471
    NVIR B     =       475

    Elst10,r            =    -0.053907247434 [Eh]
    Exch10              =     0.055183916743 [Eh]
    Exch10 (S^2)        =     0.054221859706 [Eh]

    Iter     Energy [mEh]          dE [mEh]         Residual      Time [s]
       1     -12.91862846      12.918628456      25.541742213             1
       2     -14.92703231       2.008403857      13.919800056             2
       3     -16.21083938       1.283807069       3.302598943             3
       4     -16.10000092      -0.110838460       1.309538813             4
       5     -16.07824113      -0.021759796       0.402919493             5
       6     -16.08988799       0.011646866       0.170788729             5
       7     -16.09253122       0.002643232       0.044827248             6
       8     -16.09187530      -0.000655927       0.015257850             7
       9     -16.09152038      -0.000354919       0.003744162             8
      10     -16.09160160       0.000081221       0.000870515             9
      11     -16.09160762       0.000006021       0.000202826            10
      12     -16.09160400      -0.000003624       0.000057184            11
      13     -16.09160358      -0.000000416       0.000014958            12
      14     -16.09160386       0.000000277       0.000002869            13
      15     -16.09160385      -0.000000009       0.000000659            14

    CHF Iterations converged


    Iter     Energy [mEh]          dE [mEh]         Residual      Time [s]
       1     -12.71449200      12.714491996      25.244705703             1
       2     -14.70027549       1.985783490      13.742696960             2
       3     -15.94736259       1.247087105       3.277462515             3
       4     -15.83889362      -0.108468974       1.302540482             4
       5     -15.81651247      -0.022381150       0.393126114             5
       6     -15.82865321       0.012140743       0.166122516             5
       7     -15.83099039       0.002337178       0.043648062             6
       8     -15.83026568      -0.000724708       0.014901143             7
       9     -15.82996431      -0.000301373       0.003773014             8
      10     -15.83004139       0.000077080       0.000865693             9
      11     -15.83004661       0.000005222       0.000174237            10
      12     -15.83004320      -0.000003409       0.000048188            11
      13     -15.83004299      -0.000000208       0.000012723            12
      14     -15.83004326       0.000000272       0.000002269            13
      15     -15.83004324      -0.000000028       0.000000487            13

    CHF Iterations converged

    Ind20,r (A<-B)      =    -0.016091603847 [Eh]
    Ind20,r (B<-A)      =    -0.015830043236 [Eh]
    Ind20,r             =    -0.031921647083 [Eh]
    Exch-Ind20,r (A<-B) =     0.008469614561 [Eh]
    Exch-Ind20,r (B<-A) =     0.008364223213 [Eh]
    Exch-Ind20,r        =     0.016833837774 [Eh]
    Disp20              =    -0.016989833829 [Eh]
    Disp20 (SS)         =    -0.008494916915 [Eh]
    Disp20 (OS)         =    -0.008494916915 [Eh]
    Exch-Disp20         =     0.003474468752 [Eh]
    Exch-Disp20 (SS)    =     0.002182328625 [Eh]
    Exch-Disp20 (OS)    =     0.001292140127 [Eh]

    SAPT Results 
  --------------------------------------------------------------------------------------------------------
    Electrostatics                -53.90724743 [mEh]     -33.82730847 [kcal/mol]    -141.53345864 [kJ/mol]
      Elst10,r                    -53.90724743 [mEh]     -33.82730847 [kcal/mol]    -141.53345864 [kJ/mol]

    Exchange                       55.18391674 [mEh]      34.62843056 [kcal/mol]     144.88535345 [kJ/mol]
      Exch10                       55.18391674 [mEh]      34.62843056 [kcal/mol]     144.88535345 [kJ/mol]
      Exch10(S^2)                  54.22185971 [mEh]      34.02473065 [kcal/mol]     142.35947305 [kJ/mol]

    Induction                     -26.54460607 [mEh]     -16.65699179 [kcal/mol]     -69.69285363 [kJ/mol]
      Ind20,r                     -31.92164708 [mEh]     -20.03113596 [kcal/mol]     -83.81027287 [kJ/mol]
      Exch-Ind20,r                 16.83383777 [mEh]      10.56339268 [kcal/mol]      44.19723499 [kJ/mol]
      delta HF,r (2)              -11.45679676 [mEh]      -7.18924851 [kcal/mol]     -30.07981575 [kJ/mol]

    Dispersion                    -13.51536508 [mEh]      -8.48101963 [kcal/mol]     -35.48458612 [kJ/mol]
      Disp20                      -16.98983383 [mEh]     -10.66128169 [kcal/mol]     -44.60680257 [kJ/mol]
      Exch-Disp20                   3.47446875 [mEh]       2.18026206 [kcal/mol]       9.12221645 [kJ/mol]
      Disp20 (SS)                  -8.49491691 [mEh]      -5.33064084 [kcal/mol]     -22.30340129 [kJ/mol]
      Disp20 (OS)                  -8.49491691 [mEh]      -5.33064084 [kcal/mol]     -22.30340129 [kJ/mol]
      Exch-Disp20 (SS)              2.18232863 [mEh]       1.36943189 [kcal/mol]       5.72970302 [kJ/mol]
      Exch-Disp20 (OS)              1.29214013 [mEh]       0.81083017 [kcal/mol]       3.39251344 [kJ/mol]

  Total HF                        -25.26793676 [mEh]     -15.85586970 [kcal/mol]     -66.34095883 [kJ/mol]
  Total SAPT0                     -38.78330184 [mEh]     -24.33688933 [kcal/mol]    -101.82554495 [kJ/mol]

  Special recipe for scaled SAPT0 (see Manual):
    Electrostatics sSAPT0         -53.90724743 [mEh]     -33.82730847 [kcal/mol]    -141.53345864 [kJ/mol]
    Exchange sSAPT0                55.18391674 [mEh]      34.62843056 [kcal/mol]     144.88535345 [kJ/mol]
    Induction sSAPT0              -25.63256647 [mEh]     -16.08467830 [kcal/mol]     -67.29829401 [kJ/mol]
    Dispersion sSAPT0             -13.32712202 [mEh]      -8.36289533 [kcal/mol]     -34.99035404 [kJ/mol]
  Total sSAPT0                    -37.68301919 [mEh]     -23.64645154 [kcal/mol]     -98.93675324 [kJ/mol]
  --------------------------------------------------------------------------------------------------------

*** tstop() called on r282 at Fri Sep 10 22:12:51 2021
Module time:
	user time   =     105.08 seconds =       1.75 minutes
	system time =      17.41 seconds =       0.29 minutes
	total time  =        124 seconds =       2.07 minutes
Total time:
	user time   =     243.14 seconds =       4.05 minutes
	system time =      20.08 seconds =       0.33 minutes
	total time  =        265 seconds =       4.42 minutes

    Psi4 stopped on: Friday, 10 September 2021 10:12PM
    Psi4 wall time for execution: 0:04:25.46

*** Psi4 exiting successfully. Buy a developer a beer!
