
    -----------------------------------------------------------------------
          Psi4: An Open-Source Ab Initio Electronic Structure Package
                               Psi4 1.3.2 release

                         Git: Rev {HEAD} ecbda83 


    R. M. Parrish, L. A. Burns, D. G. A. Smith, A. C. Simmonett,
    A. E. DePrince III, E. G. Hohenstein, U. Bozkaya, A. Yu. Sokolov,
    R. Di Remigio, R. M. Richard, J. F. Gonthier, A. M. James,
    H. R. McAlexander, A. Kumar, M. Saitow, X. Wang, B. P. Pritchard,
    P. Verma, H. F. Schaefer III, K. Patkowski, R. A. King, E. F. Valeev,
    F. A. Evangelista, J. M. Turney, T. D. Crawford, and C. D. Sherrill,
    J. Chem. Theory Comput. 13(7) pp 3185--3197 (2017).
    (doi: 10.1021/acs.jctc.7b00174)


                         Additional Contributions by
    P. Kraus, H. Kruse, M. H. Lechner, M. C. Schieber, R. A. Shaw,
    A. Alenaizan, R. Galvelis, Z. L. Glick, S. Lehtola, and J. P. Misiewicz

    -----------------------------------------------------------------------


    Psi4 started on: Friday, 10 September 2021 10:27PM

    Process ID: 57258
    Host:       r282
    PSIDATADIR: /home/r08543048/miniconda3/share/psi4
    Memory:     500.0 MiB
    Threads:    1
    
  ==> Input File <==

--------------------------------------------------------------------------
# Any line starting with the # character is a comment line
#! Sample  computation

memory 22 gb

molecule Dimer {
0 1
 C -3.199278   -0.788116    0.000038
 C -2.418675    0.513841    0.000035
 C -0.930989    0.309213    0.000006
 O -0.403022   -0.799483   -0.000051
 O -0.256641    1.449050   -0.000043
 H -2.960007   -1.383701    0.878307 
 H -4.268478   -0.585262    0.000066
 H -2.960050   -1.383682   -0.878255
 H -2.655493    1.128482    0.870170
 H -2.655536    1.128500   -0.870077
 H  0.718357    1.255873   -0.000130

    
    
 --
0 1
 C  2.879893   -0.183539   -0.000004
 O  2.210925   -1.314878   -0.000052
 O  2.399646    0.940616    0.000065
 H  3.958325   -0.353680    0.000256
 H  1.229913   -1.117368   -0.000142
 
 
 
 
   
 
 
 
 
 
 
 
 
units angstrom

no_reorient
symmetry c1
}

set globals{
  basis jun-cc-pvtz
}

energy('sapt0')


--------------------------------------------------------------------------

  Memory set to  20.489 GiB by Python driver.

  //>>>>>>>>>>>>>>>>>>>>>>>>>>>>>>>>>>>//
  //              Dimer HF             //
  //<<<<<<<<<<<<<<<<<<<<<<<<<<<<<<<<<<<//


*** tstart() called on r282
*** at Fri Sep 10 22:27:24 2021

   => Loading Basis Set <=

    Name: JUN-CC-PVTZ
    Role: ORBITAL
    Keyword: BASIS
    atoms 1-3, 12     entry C          line   217 file /home/r08543048/miniconda3/share/psi4/basis/jun-cc-pvtz.gbs 
    atoms 4-5, 13-14  entry O          line   305 file /home/r08543048/miniconda3/share/psi4/basis/jun-cc-pvtz.gbs 
    atoms 6-11, 15-16 entry H          line    36 file /home/r08543048/miniconda3/share/psi4/basis/jun-cc-pvtz.gbs 


         ---------------------------------------------------------
                                   SCF
               by Justin Turney, Rob Parrish, Andy Simmonett
                          and Daniel G. A. Smith
                              RHF Reference
                        1 Threads,  20980 MiB Core
         ---------------------------------------------------------

  ==> Geometry <==

    Molecular point group: c1
    Full point group: C1

    Geometry (in Angstrom), charge = 0, multiplicity = 1:

       Center              X                  Y                   Z               Mass       
    ------------   -----------------  -----------------  -----------------  -----------------
         C           -3.278398585852    -0.798938627243     0.000039658268    12.000000000000
         C           -2.497795585852     0.503018372757     0.000036658268    12.000000000000
         C           -1.010109585852     0.298390372757     0.000007658268    12.000000000000
         O           -0.482142585852    -0.810305627243    -0.000049341732    15.994914619570
         O           -0.335761585852     1.438227372757    -0.000041341732    15.994914619570
         H           -3.039127585852    -1.394523627243     0.878308658268     1.007825032230
         H           -4.347598585852    -0.596084627243     0.000067658268     1.007825032230
         H           -3.039170585852    -1.394504627243    -0.878253341732     1.007825032230
         H           -2.734613585852     1.117659372757     0.870171658268     1.007825032230
         H           -2.734656585852     1.117677372757    -0.870075341732     1.007825032230
         H            0.639236414148     1.245050372757    -0.000128341732     1.007825032230
         C            2.800772414148    -0.194361627243    -0.000002341732    12.000000000000
         O            2.131804414148    -1.325700627243    -0.000050341732    15.994914619570
         O            2.320525414148     0.929793372757     0.000066658268    15.994914619570
         H            3.879204414148    -0.364502627243     0.000257658268     1.007825032230
         H            1.150792414148    -1.128190627243    -0.000140341732     1.007825032230

  Running in c1 symmetry.

  Rotational constants: A =      0.15245  B =      0.03080  C =      0.02587 [cm^-1]
  Rotational constants: A =   4570.24194  B =    923.38177  C =    775.44025 [MHz]
  Nuclear repulsion =  380.701942875321663

  Charge       = 0
  Multiplicity = 1
  Electrons    = 64
  Nalpha       = 32
  Nbeta        = 32

  ==> Algorithm <==

  SCF Algorithm Type is DF.
  DIIS enabled.
  MOM disabled.
  Fractional occupation disabled.
  Guess Type is SAD.
  Energy threshold   = 1.00e-08
  Density threshold  = 1.00e-08
  Integral threshold = 0.00e+00

  ==> Primary Basis <==

  Basis Set: JUN-CC-PVTZ
    Blend: JUN-CC-PVTZ
    Number of shells: 152
    Number of basis function: 424
    Number of Cartesian functions: 480
    Spherical Harmonics?: true
    Max angular momentum: 3

   => Loading Basis Set <=

    Name: (JUN-CC-PVTZ AUX)
    Role: JKFIT
    Keyword: DF_BASIS_SCF
    atoms 1-3, 12     entry C          line   152 file /home/r08543048/miniconda3/share/psi4/basis/jun-cc-pvtz-jkfit.gbs 
    atoms 4-5, 13-14  entry O          line   272 file /home/r08543048/miniconda3/share/psi4/basis/jun-cc-pvtz-jkfit.gbs 
    atoms 6-11, 15-16 entry H          line    70 file /home/r08543048/miniconda3/share/psi4/basis/jun-cc-pvtz-jkfit.gbs 

  ==> Pre-Iterations <==

   -------------------------------------------------------
    Irrep   Nso     Nmo     Nalpha   Nbeta   Ndocc  Nsocc
   -------------------------------------------------------
     A        424     424       0       0       0       0
   -------------------------------------------------------
    Total     424     424      32      32      32       0
   -------------------------------------------------------

  ==> Integral Setup <==

  ==> DiskDFJK: Density-Fitted J/K Matrices <==

    J tasked:                  Yes
    K tasked:                  Yes
    wK tasked:                  No
    OpenMP threads:              1
    Integrals threads:           1
    Memory [MiB]:            15735
    Algorithm:                Core
    Integral Cache:           SAVE
    Schwarz Cutoff:          1E-12
    Fitting Condition:       1E-10

   => Auxiliary Basis Set <=

  Basis Set: (JUN-CC-PVTZ AUX)
    Blend: JUN-CC-PVTZ-JKFIT
    Number of shells: 312
    Number of basis function: 1000
    Number of Cartesian functions: 1208
    Spherical Harmonics?: true
    Max angular momentum: 4

  Minimum eigenvalue in the overlap matrix is 3.5059792756E-05.
  Using Symmetric Orthogonalization.

  SCF Guess: Superposition of Atomic Densities via on-the-fly atomic UHF.

  ==> Iterations <==

                           Total Energy        Delta E     RMS |[F,P]|

   @DF-RHF iter SAD:  -454.36785017503968   -4.54368e+02   0.00000e+00 
   @DF-RHF iter   1:  -455.54408505499794   -1.17623e+00   1.86726e-03 DIIS
   @DF-RHF iter   2:  -455.74056533370356   -1.96480e-01   1.08769e-03 DIIS
   @DF-RHF iter   3:  -455.81070861553235   -7.01433e-02   1.70975e-04 DIIS
   @DF-RHF iter   4:  -455.81411715998155   -3.40854e-03   7.75101e-05 DIIS
   @DF-RHF iter   5:  -455.81473033703253   -6.13177e-04   1.82462e-05 DIIS
   @DF-RHF iter   6:  -455.81479093240870   -6.05954e-05   9.15272e-06 DIIS
   @DF-RHF iter   7:  -455.81480443145637   -1.34990e-05   2.81434e-06 DIIS
   @DF-RHF iter   8:  -455.81480686382304   -2.43237e-06   1.04952e-06 DIIS
   @DF-RHF iter   9:  -455.81480717351013   -3.09687e-07   2.88278e-07 DIIS
   @DF-RHF iter  10:  -455.81480719461075   -2.11006e-08   1.09909e-07 DIIS
   @DF-RHF iter  11:  -455.81480719625000   -1.63925e-09   4.24215e-08 DIIS
   @DF-RHF iter  12:  -455.81480719648994   -2.39936e-10   1.39986e-08 DIIS
   @DF-RHF iter  13:  -455.81480719651734   -2.73985e-11   3.28047e-09 DIIS
  Energy and wave function converged.


  ==> Post-Iterations <==

    Orbital Energies [Eh]
    ---------------------

    Doubly Occupied:                                                      

       1A    -20.610963     2A    -20.604084     3A    -20.570097  
       4A    -20.562609     5A    -11.401746     6A    -11.398851  
       7A    -11.251012     8A    -11.225351     9A     -1.476933  
      10A     -1.464150    11A     -1.377278    12A     -1.362170  
      13A     -1.072658    14A     -0.924061    15A     -0.893237  
      16A     -0.801840    17A     -0.757345    18A     -0.723270  
      19A     -0.694946    20A     -0.690367    21A     -0.667098  
      22A     -0.633730    23A     -0.613313    24A     -0.595408  
      25A     -0.577491    26A     -0.538941    27A     -0.530107  
      28A     -0.508500    29A     -0.498689    30A     -0.487238  
      31A     -0.485974    32A     -0.461067  

    Virtual:                                                              

      33A      0.048175    34A      0.059252    35A      0.059517  
      36A      0.068486    37A      0.075756    38A      0.081105  
      39A      0.082951    40A      0.103113    41A      0.105841  
      42A      0.110462    43A      0.112341    44A      0.116861  
      45A      0.146730    46A      0.148226    47A      0.163780  
      48A      0.171711    49A      0.173516    50A      0.188616  
      51A      0.191142    52A      0.207886    53A      0.217804  
      54A      0.221104    55A      0.230860    56A      0.245086  
      57A      0.246712    58A      0.249649    59A      0.254242  
      60A      0.257269    61A      0.265919    62A      0.271944  
      63A      0.279897    64A      0.288576    65A      0.295702  
      66A      0.299642    67A      0.303809    68A      0.305559  
      69A      0.327850    70A      0.332517    71A      0.334545  
      72A      0.340399    73A      0.360884    74A      0.370290  
      75A      0.374994    76A      0.385373    77A      0.390051  
      78A      0.408133    79A      0.414578    80A      0.428755  
      81A      0.444546    82A      0.444720    83A      0.456314  
      84A      0.461451    85A      0.478104    86A      0.479219  
      87A      0.498898    88A      0.505831    89A      0.513765  
      90A      0.523857    91A      0.537411    92A      0.547102  
      93A      0.548885    94A      0.564407    95A      0.572836  
      96A      0.580286    97A      0.587975    98A      0.604108  
      99A      0.616345   100A      0.628185   101A      0.633676  
     102A      0.646927   103A      0.670885   104A      0.676920  
     105A      0.686622   106A      0.699620   107A      0.705252  
     108A      0.713961   109A      0.735365   110A      0.742623  
     111A      0.748196   112A      0.752234   113A      0.764785  
     114A      0.778283   115A      0.789431   116A      0.795867  
     117A      0.811951   118A      0.812894   119A      0.818512  
     120A      0.832688   121A      0.840052   122A      0.844591  
     123A      0.854408   124A      0.870562   125A      0.875976  
     126A      0.892653   127A      0.905120   128A      0.921837  
     129A      0.927991   130A      0.938791   131A      0.961123  
     132A      0.965663   133A      0.991605   134A      1.001614  
     135A      1.005877   136A      1.006946   137A      1.033541  
     138A      1.053019   139A      1.056129   140A      1.061877  
     141A      1.089033   142A      1.095755   143A      1.102827  
     144A      1.122546   145A      1.132669   146A      1.167300  
     147A      1.168416   148A      1.208905   149A      1.217157  
     150A      1.227179   151A      1.227716   152A      1.246011  
     153A      1.251649   154A      1.268455   155A      1.299536  
     156A      1.311321   157A      1.324437   158A      1.341824  
     159A      1.344883   160A      1.353323   161A      1.379931  
     162A      1.389900   163A      1.389950   164A      1.410484  
     165A      1.416472   166A      1.431153   167A      1.435196  
     168A      1.442461   169A      1.461906   170A      1.468464  
     171A      1.483985   172A      1.499960   173A      1.503779  
     174A      1.541073   175A      1.543508   176A      1.548135  
     177A      1.560634   178A      1.582838   179A      1.587189  
     180A      1.610287   181A      1.614002   182A      1.639172  
     183A      1.670495   184A      1.675380   185A      1.685250  
     186A      1.746117   187A      1.759012   188A      1.781564  
     189A      1.786071   190A      1.811344   191A      1.840767  
     192A      1.864012   193A      1.880194   194A      1.897334  
     195A      1.919511   196A      1.932660   197A      1.962140  
     198A      2.058016   199A      2.088178   200A      2.131259  
     201A      2.164208   202A      2.200458   203A      2.213421  
     204A      2.239050   205A      2.243946   206A      2.295108  
     207A      2.301453   208A      2.307417   209A      2.349889  
     210A      2.354591   211A      2.395991   212A      2.415324  
     213A      2.431319   214A      2.441102   215A      2.532931  
     216A      2.550486   217A      2.553620   218A      2.608872  
     219A      2.626510   220A      2.665539   221A      2.690495  
     222A      2.710090   223A      2.749606   224A      2.781150  
     225A      2.802192   226A      2.822531   227A      2.853084  
     228A      2.883037   229A      2.893821   230A      2.929387  
     231A      2.953951   232A      3.004588   233A      3.015833  
     234A      3.021749   235A      3.067841   236A      3.077490  
     237A      3.099791   238A      3.114801   239A      3.125368  
     240A      3.132088   241A      3.185918   242A      3.219157  
     243A      3.233582   244A      3.254069   245A      3.277555  
     246A      3.294218   247A      3.317237   248A      3.325535  
     249A      3.352195   250A      3.359473   251A      3.368281  
     252A      3.385558   253A      3.405862   254A      3.443829  
     255A      3.455768   256A      3.470954   257A      3.481736  
     258A      3.485163   259A      3.506748   260A      3.507943  
     261A      3.509201   262A      3.534972   263A      3.540721  
     264A      3.561043   265A      3.590864   266A      3.603151  
     267A      3.608761   268A      3.616350   269A      3.650450  
     270A      3.662052   271A      3.670800   272A      3.690115  
     273A      3.701621   274A      3.729887   275A      3.737017  
     276A      3.779291   277A      3.786163   278A      3.786808  
     279A      3.817601   280A      3.843710   281A      3.852248  
     282A      3.875196   283A      3.876433   284A      3.889070  
     285A      3.906741   286A      3.920622   287A      3.934589  
     288A      3.962167   289A      3.991526   290A      4.003870  
     291A      4.058007   292A      4.069095   293A      4.079821  
     294A      4.117800   295A      4.177465   296A      4.205576  
     297A      4.207877   298A      4.209873   299A      4.235616  
     300A      4.257167   301A      4.277808   302A      4.303365  
     303A      4.319706   304A      4.326578   305A      4.336115  
     306A      4.346736   307A      4.359450   308A      4.383952  
     309A      4.399337   310A      4.407776   311A      4.427533  
     312A      4.443938   313A      4.455356   314A      4.475787  
     315A      4.541253   316A      4.565962   317A      4.590702  
     318A      4.601731   319A      4.617272   320A      4.630495  
     321A      4.662821   322A      4.694214   323A      4.696690  
     324A      4.705490   325A      4.715034   326A      4.732282  
     327A      4.734570   328A      4.798462   329A      4.801067  
     330A      4.830913   331A      4.878863   332A      4.907302  
     333A      4.921469   334A      4.926469   335A      4.956981  
     336A      5.030640   337A      5.035633   338A      5.092390  
     339A      5.129284   340A      5.189143   341A      5.212360  
     342A      5.265427   343A      5.269880   344A      5.277680  
     345A      5.301660   346A      5.314207   347A      5.330772  
     348A      5.361214   349A      5.379484   350A      5.451369  
     351A      5.496355   352A      5.581023   353A      5.610394  
     354A      5.613698   355A      5.640917   356A      5.648035  
     357A      5.657806   358A      5.732320   359A      5.734500  
     360A      5.756662   361A      5.791312   362A      5.804145  
     363A      5.826633   364A      5.857387   365A      5.857452  
     366A      5.887342   367A      5.890554   368A      5.902001  
     369A      5.915130   370A      5.996884   371A      6.030262  
     372A      6.037267   373A      6.049373   374A      6.211026  
     375A      6.284772   376A      6.329327   377A      6.446299  
     378A      6.473786   379A      6.496000   380A      6.506571  
     381A      6.536299   382A      6.560412   383A      6.682894  
     384A      6.725021   385A      6.745091   386A      6.863384  
     387A      6.883057   388A      6.907764   389A      6.954630  
     390A      7.000658   391A      7.085080   392A      7.123657  
     393A      7.129473   394A      7.206420   395A      7.231299  
     396A      7.245850   397A      7.293965   398A      7.314815  
     399A      7.334752   400A      7.360740   401A      7.378120  
     402A      7.405521   403A      7.441384   404A      7.456454  
     405A      7.499229   406A      7.523884   407A      7.654891  
     408A      7.708350   409A      7.719671   410A      7.795513  
     411A      7.879058   412A      7.981236   413A      8.022142  
     414A      8.037298   415A      8.335720   416A      8.364446  
     417A     12.203605   418A     12.726406   419A     13.776926  
     420A     13.913754   421A     14.157808   422A     14.524999  
     423A     14.706176   424A     14.807445  

    Final Occupation by Irrep:
              A 
    DOCC [    32 ]

  @DF-RHF Final Energy:  -455.81480719651734

   => Energetics <=

    Nuclear Repulsion Energy =            380.7019428753216630
    One-Electron Energy =               -1380.1124521467281738
    Two-Electron Energy =                 543.5957020748891182
    Total Energy =                       -455.8148071965173358

Computation Completed


Properties will be evaluated at   0.000000,   0.000000,   0.000000 [a0]

Properties computed using the SCF density matrix

  Nuclear Dipole Moment: [e a0]
     X:    -9.5690      Y:    -1.3089      Z:     0.0002

  Electronic Dipole Moment: [e a0]
     X:     9.1717      Y:     1.2780      Z:    -0.0002

  Dipole Moment: [e a0]
     X:    -0.3973      Y:    -0.0310      Z:    -0.0000     Total:     0.3985

  Dipole Moment: [D]
     X:    -1.0099      Y:    -0.0787      Z:    -0.0001     Total:     1.0129


*** tstop() called on r282 at Fri Sep 10 22:28:04 2021
Module time:
	user time   =      38.99 seconds =       0.65 minutes
	system time =       1.02 seconds =       0.02 minutes
	total time  =         40 seconds =       0.67 minutes
Total time:
	user time   =      38.99 seconds =       0.65 minutes
	system time =       1.02 seconds =       0.02 minutes
	total time  =         40 seconds =       0.67 minutes

  //>>>>>>>>>>>>>>>>>>>>>>>>>>>>>>>>>>>//
  //            Monomer A HF           //
  //<<<<<<<<<<<<<<<<<<<<<<<<<<<<<<<<<<<//


*** tstart() called on r282
*** at Fri Sep 10 22:28:04 2021

   => Loading Basis Set <=

    Name: JUN-CC-PVTZ
    Role: ORBITAL
    Keyword: BASIS
    atoms 1-3, 12     entry C          line   217 file /home/r08543048/miniconda3/share/psi4/basis/jun-cc-pvtz.gbs 
    atoms 4-5, 13-14  entry O          line   305 file /home/r08543048/miniconda3/share/psi4/basis/jun-cc-pvtz.gbs 
    atoms 6-11, 15-16 entry H          line    36 file /home/r08543048/miniconda3/share/psi4/basis/jun-cc-pvtz.gbs 


         ---------------------------------------------------------
                                   SCF
               by Justin Turney, Rob Parrish, Andy Simmonett
                          and Daniel G. A. Smith
                              RHF Reference
                        1 Threads,  20980 MiB Core
         ---------------------------------------------------------

  ==> Geometry <==

    Molecular point group: c1
    Full point group: C1

    Geometry (in Angstrom), charge = 0, multiplicity = 1:

       Center              X                  Y                   Z               Mass       
    ------------   -----------------  -----------------  -----------------  -----------------
         C           -3.278398585852    -0.798938627243     0.000039658268    12.000000000000
         C           -2.497795585852     0.503018372757     0.000036658268    12.000000000000
         C           -1.010109585852     0.298390372757     0.000007658268    12.000000000000
         O           -0.482142585852    -0.810305627243    -0.000049341732    15.994914619570
         O           -0.335761585852     1.438227372757    -0.000041341732    15.994914619570
         H           -3.039127585852    -1.394523627243     0.878308658268     1.007825032230
         H           -4.347598585852    -0.596084627243     0.000067658268     1.007825032230
         H           -3.039170585852    -1.394504627243    -0.878253341732     1.007825032230
         H           -2.734613585852     1.117659372757     0.870171658268     1.007825032230
         H           -2.734656585852     1.117677372757    -0.870075341732     1.007825032230
         H            0.639236414148     1.245050372757    -0.000128341732     1.007825032230
      Gh(C)           2.800772414148    -0.194361627243    -0.000002341732    12.000000000000
      Gh(O)           2.131804414148    -1.325700627243    -0.000050341732    15.994914619570
      Gh(O)           2.320525414148     0.929793372757     0.000066658268    15.994914619570
      Gh(H)           3.879204414148    -0.364502627243     0.000257658268     1.007825032230
      Gh(H)           1.150792414148    -1.128190627243    -0.000140341732     1.007825032230

  Running in c1 symmetry.

  Rotational constants: A =      0.15245  B =      0.03080  C =      0.02587 [cm^-1]
  Rotational constants: A =   4570.24194  B =    923.38177  C =    775.44025 [MHz]
  Nuclear repulsion =  178.821338662841072

  Charge       = 0
  Multiplicity = 1
  Electrons    = 40
  Nalpha       = 20
  Nbeta        = 20

  ==> Algorithm <==

  SCF Algorithm Type is DF.
  DIIS enabled.
  MOM disabled.
  Fractional occupation disabled.
  Guess Type is SAD.
  Energy threshold   = 1.00e-08
  Density threshold  = 1.00e-08
  Integral threshold = 0.00e+00

  ==> Primary Basis <==

  Basis Set: JUN-CC-PVTZ
    Blend: JUN-CC-PVTZ
    Number of shells: 152
    Number of basis function: 424
    Number of Cartesian functions: 480
    Spherical Harmonics?: true
    Max angular momentum: 3

   => Loading Basis Set <=

    Name: (JUN-CC-PVTZ AUX)
    Role: JKFIT
    Keyword: DF_BASIS_SCF
    atoms 1-3, 12     entry C          line   152 file /home/r08543048/miniconda3/share/psi4/basis/jun-cc-pvtz-jkfit.gbs 
    atoms 4-5, 13-14  entry O          line   272 file /home/r08543048/miniconda3/share/psi4/basis/jun-cc-pvtz-jkfit.gbs 
    atoms 6-11, 15-16 entry H          line    70 file /home/r08543048/miniconda3/share/psi4/basis/jun-cc-pvtz-jkfit.gbs 

  ==> Pre-Iterations <==

   -------------------------------------------------------
    Irrep   Nso     Nmo     Nalpha   Nbeta   Ndocc  Nsocc
   -------------------------------------------------------
     A        424     424       0       0       0       0
   -------------------------------------------------------
    Total     424     424      20      20      20       0
   -------------------------------------------------------

  ==> Integral Setup <==

  ==> DiskDFJK: Density-Fitted J/K Matrices <==

    J tasked:                  Yes
    K tasked:                  Yes
    wK tasked:                  No
    OpenMP threads:              1
    Integrals threads:           1
    Memory [MiB]:            15735
    Algorithm:                Core
    Integral Cache:           LOAD
    Schwarz Cutoff:          1E-12
    Fitting Condition:       1E-10

   => Auxiliary Basis Set <=

  Basis Set: (JUN-CC-PVTZ AUX)
    Blend: JUN-CC-PVTZ-JKFIT
    Number of shells: 312
    Number of basis function: 1000
    Number of Cartesian functions: 1208
    Spherical Harmonics?: true
    Max angular momentum: 4

  Minimum eigenvalue in the overlap matrix is 3.5059792756E-05.
  Using Symmetric Orthogonalization.

  SCF Guess: Superposition of Atomic Densities via on-the-fly atomic UHF.

  ==> Iterations <==

                           Total Energy        Delta E     RMS |[F,P]|

   @DF-RHF iter SAD:  -266.06828772417327   -2.66068e+02   0.00000e+00 
   @DF-RHF iter   1:  -266.74660335538641   -6.78316e-01   1.53862e-03 DIIS
   @DF-RHF iter   2:  -266.89464312510677   -1.48040e-01   9.18378e-04 DIIS
   @DF-RHF iter   3:  -266.94630891100394   -5.16658e-02   1.65841e-04 DIIS
   @DF-RHF iter   4:  -266.94920114350498   -2.89223e-03   7.75400e-05 DIIS
   @DF-RHF iter   5:  -266.94984729976477   -6.46156e-04   1.50786e-05 DIIS
   @DF-RHF iter   6:  -266.94989146150050   -4.41617e-05   7.23356e-06 DIIS
   @DF-RHF iter   7:  -266.94990011238633   -8.65089e-06   2.65673e-06 DIIS
   @DF-RHF iter   8:  -266.94990195041458   -1.83803e-06   9.65418e-07 DIIS
   @DF-RHF iter   9:  -266.94990221996585   -2.69551e-07   2.27814e-07 DIIS
   @DF-RHF iter  10:  -266.94990223385122   -1.38854e-08   6.98833e-08 DIIS
   @DF-RHF iter  11:  -266.94990223467966   -8.28436e-10   1.82262e-08 DIIS
   @DF-RHF iter  12:  -266.94990223474122   -6.15614e-11   4.20734e-09 DIIS
  Energy and wave function converged.


  ==> Post-Iterations <==

    Orbital Energies [Eh]
    ---------------------

    Doubly Occupied:                                                      

       1A    -20.623087     2A    -20.543542     3A    -11.385474  
       4A    -11.246897     5A    -11.220453     6A     -1.468873  
       7A     -1.351901     8A     -1.066578     9A     -0.917553  
      10A     -0.803227    11A     -0.702792    12A     -0.689824  
      13A     -0.663882    14A     -0.596268    15A     -0.590683  
      16A     -0.534494    17A     -0.523138    18A     -0.504745  
      19A     -0.476183    20A     -0.449592  

    Virtual:                                                              

      21A      0.038713    22A      0.049778    23A      0.059061  
      24A      0.067770    25A      0.070966    26A      0.077444  
      27A      0.082142    28A      0.101935    29A      0.106985  
      30A      0.109993    31A      0.113845    32A      0.119163  
      33A      0.141710    34A      0.147556    35A      0.162138  
      36A      0.163189    37A      0.170418    38A      0.173089  
      39A      0.191251    40A      0.199647    41A      0.210880  
      42A      0.216827    43A      0.218867    44A      0.224988  
      45A      0.225818    46A      0.234191    47A      0.256988  
      48A      0.257557    49A      0.260938    50A      0.272295  
      51A      0.288714    52A      0.292186    53A      0.301707  
      54A      0.305940    55A      0.308376    56A      0.324844  
      57A      0.335595    58A      0.336502    59A      0.351319  
      60A      0.352740    61A      0.365693    62A      0.366910  
      63A      0.382072    64A      0.384257    65A      0.388651  
      66A      0.404828    67A      0.414364    68A      0.424471  
      69A      0.437239    70A      0.440637    71A      0.456054  
      72A      0.459710    73A      0.480422    74A      0.482707  
      75A      0.489243    76A      0.491274    77A      0.512540  
      78A      0.514757    79A      0.533069    80A      0.537780  
      81A      0.546338    82A      0.556291    83A      0.560823  
      84A      0.573378    85A      0.589717    86A      0.620493  
      87A      0.627240    88A      0.647644    89A      0.649612  
      90A      0.673760    91A      0.683554    92A      0.691409  
      93A      0.705697    94A      0.713311    95A      0.716145  
      96A      0.743343    97A      0.743752    98A      0.750153  
      99A      0.772305   100A      0.773636   101A      0.791892  
     102A      0.805436   103A      0.809227   104A      0.814203  
     105A      0.826906   106A      0.833491   107A      0.843040  
     108A      0.853465   109A      0.856252   110A      0.878634  
     111A      0.883107   112A      0.916411   113A      0.917514  
     114A      0.926379   115A      0.932067   116A      0.947604  
     117A      0.956529   118A      0.971203   119A      0.972403  
     120A      0.982690   121A      0.993770   122A      1.007994  
     123A      1.008322   124A      1.019952   125A      1.036759  
     126A      1.045095   127A      1.055351   128A      1.064979  
     129A      1.080440   130A      1.094843   131A      1.100081  
     132A      1.105396   133A      1.131954   134A      1.148080  
     135A      1.176653   136A      1.189210   137A      1.217183  
     138A      1.224771   139A      1.232262   140A      1.234629  
     141A      1.262133   142A      1.267127   143A      1.290360  
     144A      1.301775   145A      1.320757   146A      1.352393  
     147A      1.357592   148A      1.390866   149A      1.406665  
     150A      1.411416   151A      1.421561   152A      1.431089  
     153A      1.449907   154A      1.460813   155A      1.465857  
     156A      1.484374   157A      1.487674   158A      1.493145  
     159A      1.516863   160A      1.550412   161A      1.557728  
     162A      1.567717   163A      1.581235   164A      1.609966  
     165A      1.614289   166A      1.615811   167A      1.647820  
     168A      1.678834   169A      1.687334   170A      1.694421  
     171A      1.714919   172A      1.753264   173A      1.767034  
     174A      1.773350   175A      1.781278   176A      1.809436  
     177A      1.812414   178A      1.837280   179A      1.867155  
     180A      1.893821   181A      1.907988   182A      1.925724  
     183A      1.954003   184A      1.964726   185A      1.986122  
     186A      2.065684   187A      2.078330   188A      2.137704  
     189A      2.162623   190A      2.209381   191A      2.219521  
     192A      2.284498   193A      2.303426   194A      2.323502  
     195A      2.369607   196A      2.428530   197A      2.439361  
     198A      2.441861   199A      2.474441   200A      2.498714  
     201A      2.523004   202A      2.620058   203A      2.636646  
     204A      2.675562   205A      2.702767   206A      2.731315  
     207A      2.742164   208A      2.773413   209A      2.790425  
     210A      2.822250   211A      2.832855   212A      2.849863  
     213A      2.867642   214A      2.888248   215A      2.899097  
     216A      2.932529   217A      2.935271   218A      2.944989  
     219A      2.991108   220A      3.003556   221A      3.004156  
     222A      3.027804   223A      3.033594   224A      3.053480  
     225A      3.081869   226A      3.112466   227A      3.113146  
     228A      3.130884   229A      3.134793   230A      3.218407  
     231A      3.239136   232A      3.255030   233A      3.294786  
     234A      3.301234   235A      3.330929   236A      3.352366  
     237A      3.364860   238A      3.368202   239A      3.394675  
     240A      3.409609   241A      3.453048   242A      3.468088  
     243A      3.475680   244A      3.486206   245A      3.486922  
     246A      3.513043   247A      3.514477   248A      3.555843  
     249A      3.567633   250A      3.581180   251A      3.603600  
     252A      3.629409   253A      3.652899   254A      3.663754  
     255A      3.676348   256A      3.699919   257A      3.720291  
     258A      3.723069   259A      3.732556   260A      3.775878  
     261A      3.779674   262A      3.783953   263A      3.804179  
     264A      3.846997   265A      3.865541   266A      3.880892  
     267A      3.881624   268A      3.913285   269A      3.927807  
     270A      3.989073   271A      4.031756   272A      4.054862  
     273A      4.058365   274A      4.065414   275A      4.109624  
     276A      4.129443   277A      4.197408   278A      4.205963  
     279A      4.213925   280A      4.222165   281A      4.239453  
     282A      4.286273   283A      4.289006   284A      4.326384  
     285A      4.346015   286A      4.352524   287A      4.363708  
     288A      4.367187   289A      4.371833   290A      4.408797  
     291A      4.425174   292A      4.431765   293A      4.446622  
     294A      4.481253   295A      4.483168   296A      4.504558  
     297A      4.542240   298A      4.547504   299A      4.549664  
     300A      4.581539   301A      4.620570   302A      4.633382  
     303A      4.668301   304A      4.680563   305A      4.703204  
     306A      4.708543   307A      4.713156   308A      4.752508  
     309A      4.762043   310A      4.772671   311A      4.780204  
     312A      4.808189   313A      4.823302   314A      4.857762  
     315A      4.924895   316A      4.929499   317A      4.938152  
     318A      4.946674   319A      4.990135   320A      5.034408  
     321A      5.056070   322A      5.078271   323A      5.107102  
     324A      5.141238   325A      5.164735   326A      5.229124  
     327A      5.261350   328A      5.275981   329A      5.279471  
     330A      5.306537   331A      5.319047   332A      5.334958  
     333A      5.352115   334A      5.426907   335A      5.456578  
     336A      5.490505   337A      5.561279   338A      5.625691  
     339A      5.641321   340A      5.663745   341A      5.685883  
     342A      5.725466   343A      5.739826   344A      5.744260  
     345A      5.752098   346A      5.805624   347A      5.819329  
     348A      5.886322   349A      5.897164   350A      5.919324  
     351A      5.971254   352A      5.984178   353A      6.025098  
     354A      6.053714   355A      6.063298   356A      6.138196  
     357A      6.244138   358A      6.282465   359A      6.436158  
     360A      6.458559   361A      6.479902   362A      6.498616  
     363A      6.501060   364A      6.551944   365A      6.566244  
     366A      6.674182   367A      6.710143   368A      6.783211  
     369A      6.798250   370A      6.885782   371A      6.954441  
     372A      6.971638   373A      7.019320   374A      7.082647  
     375A      7.173406   376A      7.183478   377A      7.191806  
     378A      7.273783   379A      7.320636   380A      7.361981  
     381A      7.393510   382A      7.439847   383A      7.471520  
     384A      7.490640   385A      7.577413   386A      7.669442  
     387A      7.775860   388A      7.783405   389A      7.857562  
     390A      7.969593   391A      7.976322   392A      8.017103  
     393A      8.061219   394A      8.196756   395A      8.449470  
     396A      8.679137   397A      8.920088   398A      9.366212  
     399A      9.568230   400A      9.704567   401A      9.745049  
     402A      9.812219   403A      9.852392   404A      9.862683  
     405A      9.936505   406A     10.142087   407A     10.352594  
     408A     10.550742   409A     10.961541   410A     11.406438  
     411A     11.507874   412A     11.549423   413A     11.899880  
     414A     12.224390   415A     13.084659   416A     13.608785  
     417A     13.894993   418A     13.990930   419A     14.164401  
     420A     14.554641   421A     14.721702   422A     44.992514  
     423A     60.483092   424A     61.645154  

    Final Occupation by Irrep:
              A 
    DOCC [    20 ]

  @DF-RHF Final Energy:  -266.94990223474122

   => Energetics <=

    Nuclear Repulsion Energy =            178.8213386628410717
    One-Electron Energy =                -718.8241097631091634
    Two-Electron Energy =                 273.0528688655268752
    Total Energy =                       -266.9499022347412165

Computation Completed


Properties will be evaluated at   0.000000,   0.000000,   0.000000 [a0]

Properties computed using the SCF density matrix

  Nuclear Dipole Moment: [e a0]
     X:  -118.1400      Y:     9.7009      Z:    -0.0002

  Electronic Dipole Moment: [e a0]
     X:   117.8273      Y:    -8.9464      Z:     0.0003

  Dipole Moment: [e a0]
     X:    -0.3127      Y:     0.7545      Z:     0.0000     Total:     0.8167

  Dipole Moment: [D]
     X:    -0.7948      Y:     1.9177      Z:     0.0000     Total:     2.0759


*** tstop() called on r282 at Fri Sep 10 22:28:27 2021
Module time:
	user time   =      22.18 seconds =       0.37 minutes
	system time =       0.49 seconds =       0.01 minutes
	total time  =         23 seconds =       0.38 minutes
Total time:
	user time   =      61.18 seconds =       1.02 minutes
	system time =       1.51 seconds =       0.03 minutes
	total time  =         63 seconds =       1.05 minutes

  //>>>>>>>>>>>>>>>>>>>>>>>>>>>>>>>>>>>//
  //            Monomer B HF           //
  //<<<<<<<<<<<<<<<<<<<<<<<<<<<<<<<<<<<//


*** tstart() called on r282
*** at Fri Sep 10 22:28:27 2021

   => Loading Basis Set <=

    Name: JUN-CC-PVTZ
    Role: ORBITAL
    Keyword: BASIS
    atoms 1-3, 12     entry C          line   217 file /home/r08543048/miniconda3/share/psi4/basis/jun-cc-pvtz.gbs 
    atoms 4-5, 13-14  entry O          line   305 file /home/r08543048/miniconda3/share/psi4/basis/jun-cc-pvtz.gbs 
    atoms 6-11, 15-16 entry H          line    36 file /home/r08543048/miniconda3/share/psi4/basis/jun-cc-pvtz.gbs 


         ---------------------------------------------------------
                                   SCF
               by Justin Turney, Rob Parrish, Andy Simmonett
                          and Daniel G. A. Smith
                              RHF Reference
                        1 Threads,  20980 MiB Core
         ---------------------------------------------------------

  ==> Geometry <==

    Molecular point group: c1
    Full point group: C1

    Geometry (in Angstrom), charge = 0, multiplicity = 1:

       Center              X                  Y                   Z               Mass       
    ------------   -----------------  -----------------  -----------------  -----------------
      Gh(C)          -3.278398585852    -0.798938627243     0.000039658268    12.000000000000
      Gh(C)          -2.497795585852     0.503018372757     0.000036658268    12.000000000000
      Gh(C)          -1.010109585852     0.298390372757     0.000007658268    12.000000000000
      Gh(O)          -0.482142585852    -0.810305627243    -0.000049341732    15.994914619570
      Gh(O)          -0.335761585852     1.438227372757    -0.000041341732    15.994914619570
      Gh(H)          -3.039127585852    -1.394523627243     0.878308658268     1.007825032230
      Gh(H)          -4.347598585852    -0.596084627243     0.000067658268     1.007825032230
      Gh(H)          -3.039170585852    -1.394504627243    -0.878253341732     1.007825032230
      Gh(H)          -2.734613585852     1.117659372757     0.870171658268     1.007825032230
      Gh(H)          -2.734656585852     1.117677372757    -0.870075341732     1.007825032230
      Gh(H)           0.639236414148     1.245050372757    -0.000128341732     1.007825032230
         C            2.800772414148    -0.194361627243    -0.000002341732    12.000000000000
         O            2.131804414148    -1.325700627243    -0.000050341732    15.994914619570
         O            2.320525414148     0.929793372757     0.000066658268    15.994914619570
         H            3.879204414148    -0.364502627243     0.000257658268     1.007825032230
         H            1.150792414148    -1.128190627243    -0.000140341732     1.007825032230

  Running in c1 symmetry.

  Rotational constants: A =      0.15245  B =      0.03080  C =      0.02587 [cm^-1]
  Rotational constants: A =   4570.24194  B =    923.38177  C =    775.44025 [MHz]
  Nuclear repulsion =   70.068399322819090

  Charge       = 0
  Multiplicity = 1
  Electrons    = 24
  Nalpha       = 12
  Nbeta        = 12

  ==> Algorithm <==

  SCF Algorithm Type is DF.
  DIIS enabled.
  MOM disabled.
  Fractional occupation disabled.
  Guess Type is SAD.
  Energy threshold   = 1.00e-08
  Density threshold  = 1.00e-08
  Integral threshold = 0.00e+00

  ==> Primary Basis <==

  Basis Set: JUN-CC-PVTZ
    Blend: JUN-CC-PVTZ
    Number of shells: 152
    Number of basis function: 424
    Number of Cartesian functions: 480
    Spherical Harmonics?: true
    Max angular momentum: 3

   => Loading Basis Set <=

    Name: (JUN-CC-PVTZ AUX)
    Role: JKFIT
    Keyword: DF_BASIS_SCF
    atoms 1-3, 12     entry C          line   152 file /home/r08543048/miniconda3/share/psi4/basis/jun-cc-pvtz-jkfit.gbs 
    atoms 4-5, 13-14  entry O          line   272 file /home/r08543048/miniconda3/share/psi4/basis/jun-cc-pvtz-jkfit.gbs 
    atoms 6-11, 15-16 entry H          line    70 file /home/r08543048/miniconda3/share/psi4/basis/jun-cc-pvtz-jkfit.gbs 

  ==> Pre-Iterations <==

   -------------------------------------------------------
    Irrep   Nso     Nmo     Nalpha   Nbeta   Ndocc  Nsocc
   -------------------------------------------------------
     A        424     424       0       0       0       0
   -------------------------------------------------------
    Total     424     424      12      12      12       0
   -------------------------------------------------------

  ==> Integral Setup <==

  ==> DiskDFJK: Density-Fitted J/K Matrices <==

    J tasked:                  Yes
    K tasked:                  Yes
    wK tasked:                  No
    OpenMP threads:              1
    Integrals threads:           1
    Memory [MiB]:            15735
    Algorithm:                Core
    Integral Cache:           LOAD
    Schwarz Cutoff:          1E-12
    Fitting Condition:       1E-10

   => Auxiliary Basis Set <=

  Basis Set: (JUN-CC-PVTZ AUX)
    Blend: JUN-CC-PVTZ-JKFIT
    Number of shells: 312
    Number of basis function: 1000
    Number of Cartesian functions: 1208
    Spherical Harmonics?: true
    Max angular momentum: 4

  Minimum eigenvalue in the overlap matrix is 3.5059792756E-05.
  Using Symmetric Orthogonalization.

  SCF Guess: Superposition of Atomic Densities via on-the-fly atomic UHF.

  ==> Iterations <==

                           Total Energy        Delta E     RMS |[F,P]|

   @DF-RHF iter SAD:  -188.00155499857249   -1.88002e+02   0.00000e+00 
   @DF-RHF iter   1:  -188.73114581545337   -7.29591e-01   1.24083e-03 DIIS
   @DF-RHF iter   2:  -188.79316203218406   -6.20162e-02   8.92617e-04 DIIS
   @DF-RHF iter   3:  -188.83834055564543   -4.51785e-02   1.05599e-04 DIIS
   @DF-RHF iter   4:  -188.83948107897345   -1.14052e-03   5.55132e-05 DIIS
   @DF-RHF iter   5:  -188.83976949302240   -2.88414e-04   1.32008e-05 DIIS
   @DF-RHF iter   6:  -188.83981104291021   -4.15499e-05   5.70242e-06 DIIS
   @DF-RHF iter   7:  -188.83982035262625   -9.30972e-06   2.06169e-06 DIIS
   @DF-RHF iter   8:  -188.83982142694396   -1.07432e-06   6.45878e-07 DIIS
   @DF-RHF iter   9:  -188.83982153458049   -1.07637e-07   1.88430e-07 DIIS
   @DF-RHF iter  10:  -188.83982154349911   -8.91862e-09   4.19310e-08 DIIS
   @DF-RHF iter  11:  -188.83982154388170   -3.82585e-10   7.18650e-09 DIIS
  Energy and wave function converged.


  ==> Post-Iterations <==

    Orbital Energies [Eh]
    ---------------------

    Doubly Occupied:                                                      

       1A    -20.639421     2A    -20.561288     3A    -11.396975  
       4A     -1.481935     5A     -1.367328     6A     -0.901183  
       7A     -0.731346     8A     -0.711253     9A     -0.644149  
      10A     -0.596192    11A     -0.489871    12A     -0.470525  

    Virtual:                                                              

      13A      0.027971    14A      0.051531    15A      0.054114  
      16A      0.061168    17A      0.061669    18A      0.079312  
      19A      0.080407    20A      0.097982    21A      0.101039  
      22A      0.103012    23A      0.110062    24A      0.110385  
      25A      0.134809    26A      0.151765    27A      0.154663  
      28A      0.160512    29A      0.162979    30A      0.169251  
      31A      0.174511    32A      0.177276    33A      0.207965  
      34A      0.210120    35A      0.211928    36A      0.219633  
      37A      0.223010    38A      0.226141    39A      0.243411  
      40A      0.251749    41A      0.259020    42A      0.263745  
      43A      0.276439    44A      0.282739    45A      0.291691  
      46A      0.298453    47A      0.300187    48A      0.302151  
      49A      0.329371    50A      0.345457    51A      0.354359  
      52A      0.361393    53A      0.368474    54A      0.376313  
      55A      0.384242    56A      0.387779    57A      0.407172  
      58A      0.415691    59A      0.420410    60A      0.427084  
      61A      0.433606    62A      0.442544    63A      0.457491  
      64A      0.471559    65A      0.483534    66A      0.484110  
      67A      0.500282    68A      0.500413    69A      0.505497  
      70A      0.521946    71A      0.533891    72A      0.538184  
      73A      0.542502    74A      0.557364    75A      0.561152  
      76A      0.575659    77A      0.587969    78A      0.590638  
      79A      0.613050    80A      0.622286    81A      0.641532  
      82A      0.647721    83A      0.651866    84A      0.656937  
      85A      0.687017    86A      0.689105    87A      0.691095  
      88A      0.731193    89A      0.736326    90A      0.751969  
      91A      0.766277    92A      0.782005    93A      0.787783  
      94A      0.791448    95A      0.812770    96A      0.819938  
      97A      0.851531    98A      0.854989    99A      0.862163  
     100A      0.878167   101A      0.891864   102A      0.899555  
     103A      0.918563   104A      0.949109   105A      0.958282  
     106A      0.966098   107A      0.990417   108A      0.997839  
     109A      1.004175   110A      1.012771   111A      1.027048  
     112A      1.046278   113A      1.047194   114A      1.050998  
     115A      1.069310   116A      1.081183   117A      1.083919  
     118A      1.088391   119A      1.109593   120A      1.135393  
     121A      1.141391   122A      1.153256   123A      1.166887  
     124A      1.182427   125A      1.198865   126A      1.207054  
     127A      1.222640   128A      1.227383   129A      1.227778  
     130A      1.249990   131A      1.254130   132A      1.255307  
     133A      1.271427   134A      1.289494   135A      1.298721  
     136A      1.317078   137A      1.337233   138A      1.342263  
     139A      1.348468   140A      1.359188   141A      1.387067  
     142A      1.396644   143A      1.409523   144A      1.422013  
     145A      1.430473   146A      1.435328   147A      1.472493  
     148A      1.480932   149A      1.481466   150A      1.512149  
     151A      1.520881   152A      1.558350   153A      1.583912  
     154A      1.586130   155A      1.601142   156A      1.613605  
     157A      1.617505   158A      1.648167   159A      1.665433  
     160A      1.714938   161A      1.719451   162A      1.754410  
     163A      1.777674   164A      1.778787   165A      1.793209  
     166A      1.813119   167A      1.836872   168A      1.863871  
     169A      1.895535   170A      1.921718   171A      1.932307  
     172A      1.948918   173A      1.966345   174A      1.994888  
     175A      2.001403   176A      2.058795   177A      2.080642  
     178A      2.099808   179A      2.138975   180A      2.155830  
     181A      2.155937   182A      2.178788   183A      2.211183  
     184A      2.263277   185A      2.269527   186A      2.286609  
     187A      2.321196   188A      2.335782   189A      2.370244  
     190A      2.390547   191A      2.406029   192A      2.421664  
     193A      2.447898   194A      2.482365   195A      2.510989  
     196A      2.536049   197A      2.553892   198A      2.577378  
     199A      2.610990   200A      2.612351   201A      2.647086  
     202A      2.693178   203A      2.711075   204A      2.747522  
     205A      2.770698   206A      2.781930   207A      2.832032  
     208A      2.874520   209A      2.885856   210A      2.958372  
     211A      2.992413   212A      2.993005   213A      3.027509  
     214A      3.030240   215A      3.067870   216A      3.112277  
     217A      3.164389   218A      3.210289   219A      3.292240  
     220A      3.316418   221A      3.365058   222A      3.409881  
     223A      3.434122   224A      3.460850   225A      3.485528  
     226A      3.511488   227A      3.534021   228A      3.539066  
     229A      3.588350   230A      3.590620   231A      3.601059  
     232A      3.604226   233A      3.618891   234A      3.624953  
     235A      3.675090   236A      3.705571   237A      3.718730  
     238A      3.720620   239A      3.735319   240A      3.769291  
     241A      3.794029   242A      3.800227   243A      3.824254  
     244A      3.845747   245A      3.852992   246A      3.863456  
     247A      3.878704   248A      3.901314   249A      3.902266  
     250A      3.918337   251A      3.921308   252A      3.981466  
     253A      4.012351   254A      4.014659   255A      4.024325  
     256A      4.091568   257A      4.094646   258A      4.148545  
     259A      4.162958   260A      4.169326   261A      4.178009  
     262A      4.221370   263A      4.229428   264A      4.266321  
     265A      4.283419   266A      4.301891   267A      4.345063  
     268A      4.349173   269A      4.384075   270A      4.404198  
     271A      4.417569   272A      4.448682   273A      4.455577  
     274A      4.481878   275A      4.484428   276A      4.517177  
     277A      4.566894   278A      4.591291   279A      4.614231  
     280A      4.646570   281A      4.652175   282A      4.673724  
     283A      4.686277   284A      4.688807   285A      4.705572  
     286A      4.725430   287A      4.739989   288A      4.740850  
     289A      4.758688   290A      4.772111   291A      4.795567  
     292A      4.809516   293A      4.816141   294A      4.826054  
     295A      4.849081   296A      4.859828   297A      4.899172  
     298A      4.901692   299A      4.915830   300A      4.941249  
     301A      4.944715   302A      4.971174   303A      4.975961  
     304A      4.979931   305A      5.008837   306A      5.009994  
     307A      5.024118   308A      5.036613   309A      5.054570  
     310A      5.068101   311A      5.101419   312A      5.111610  
     313A      5.141815   314A      5.170399   315A      5.233522  
     316A      5.253584   317A      5.258328   318A      5.267560  
     319A      5.313561   320A      5.357883   321A      5.436511  
     322A      5.496736   323A      5.553858   324A      5.563050  
     325A      5.601031   326A      5.639909   327A      5.684122  
     328A      5.684268   329A      5.707868   330A      5.751867  
     331A      5.772887   332A      5.823708   333A      5.829132  
     334A      5.868403   335A      5.891999   336A      5.932531  
     337A      5.995359   338A      6.039008   339A      6.084250  
     340A      6.122479   341A      6.169185   342A      6.189600  
     343A      6.202156   344A      6.304491   345A      6.355468  
     346A      6.395871   347A      6.423641   348A      6.435682  
     349A      6.440688   350A      6.517932   351A      6.544048  
     352A      6.550695   353A      6.637093   354A      6.682643  
     355A      6.748610   356A      6.796225   357A      6.850518  
     358A      6.892816   359A      6.912167   360A      6.935681  
     361A      6.947952   362A      7.033174   363A      7.101573  
     364A      7.157547   365A      7.166299   366A      7.206084  
     367A      7.206789   368A      7.228474   369A      7.250401  
     370A      7.352971   371A      7.387846   372A      7.394263  
     373A      7.452211   374A      7.506351   375A      7.523593  
     376A      7.561102   377A      7.615805   378A      7.676438  
     379A      7.683795   380A      7.715131   381A      7.771123  
     382A      7.781795   383A      7.830543   384A      7.852656  
     385A      7.880241   386A      7.941235   387A      7.984432  
     388A      8.048630   389A      8.056235   390A      8.136784  
     391A      8.223242   392A      8.261584   393A      8.524320  
     394A      8.688609   395A      8.885291   396A      9.161071  
     397A      9.467931   398A      9.685050   399A      9.749206  
     400A      9.764110   401A      9.862718   402A      9.888358  
     403A      9.913674   404A      9.958034   405A      9.968454  
     406A     10.247928   407A     10.426269   408A     10.544742  
     409A     11.035853   410A     11.422075   411A     11.550207  
     412A     11.616643   413A     11.994729   414A     12.706023  
     415A     13.174320   416A     13.692021   417A     13.829101  
     418A     14.037928   419A     14.769672   420A     43.240679  
     421A     45.129557   422A     45.827426   423A     61.047085  
     424A     62.069496  

    Final Occupation by Irrep:
              A 
    DOCC [    12 ]

  @DF-RHF Final Energy:  -188.83982154388170

   => Energetics <=

    Nuclear Repulsion Energy =             70.0683993228190900
    One-Electron Energy =                -397.8335106830941754
    Two-Electron Energy =                 138.9252898163934162
    Total Energy =                       -188.8398215438816976

Computation Completed


Properties will be evaluated at   0.000000,   0.000000,   0.000000 [a0]

Properties computed using the SCF density matrix

  Nuclear Dipole Moment: [e a0]
     X:   108.5709      Y:   -11.0098      Z:     0.0004

  Electronic Dipole Moment: [e a0]
     X:  -108.5637      Y:    10.1899      Z:    -0.0005

  Dipole Moment: [e a0]
     X:     0.0072      Y:    -0.8199      Z:    -0.0001     Total:     0.8200

  Dipole Moment: [D]
     X:     0.0184      Y:    -2.0840      Z:    -0.0002     Total:     2.0841


*** tstop() called on r282 at Fri Sep 10 22:28:46 2021
Module time:
	user time   =      19.19 seconds =       0.32 minutes
	system time =       0.42 seconds =       0.01 minutes
	total time  =         19 seconds =       0.32 minutes
Total time:
	user time   =      80.37 seconds =       1.34 minutes
	system time =       1.93 seconds =       0.03 minutes
	total time  =         82 seconds =       1.37 minutes
  Constructing Basis Sets for SAPT...

   => Loading Basis Set <=

    Name: (JUN-CC-PVTZ AUX)
    Role: RIFIT
    Keyword: DF_BASIS_SAPT
    atoms 1-3, 12     entry C          line   132 file /home/r08543048/miniconda3/share/psi4/basis/jun-cc-pvtz-ri.gbs 
    atoms 4-5, 13-14  entry O          line   244 file /home/r08543048/miniconda3/share/psi4/basis/jun-cc-pvtz-ri.gbs 
    atoms 6-11, 15-16 entry H          line    30 file /home/r08543048/miniconda3/share/psi4/basis/jun-cc-pvtz-ri.gbs 


  //>>>>>>>>>>>>>>>>>>>>>>>>>>>>>>>>>>>//
  //               SAPT0               //
  //<<<<<<<<<<<<<<<<<<<<<<<<<<<<<<<<<<<//


*** tstart() called on r282
*** at Fri Sep 10 22:28:46 2021

        SAPT0  
    Ed Hohenstein
     6 June 2009

      Orbital Information
  --------------------------
    NSO        =       424
    NMO        =       424
    NRI        =      1016
    NOCC A     =        20
    NOCC B     =        12
    FOCC A     =         0
    FOCC B     =         0
    NVIR A     =       404
    NVIR B     =       412

    Elst10,r            =    -0.052901086452 [Eh]
    Exch10              =     0.054247191257 [Eh]
    Exch10 (S^2)        =     0.053306133868 [Eh]

    Iter     Energy [mEh]          dE [mEh]         Residual      Time [s]
       1     -13.21734719      13.217347188      26.515222622             1
       2     -15.23006503       2.012717843      14.363102900             2
       3     -16.62216563       1.392100601       3.392664239             2
       4     -16.51479380      -0.107371832       1.360757129             3
       5     -16.48960930      -0.025184503       0.425451639             3
       6     -16.50105082       0.011441527       0.182661702             4
       7     -16.50426246       0.003211639       0.048245499             5
       8     -16.50368988      -0.000572579       0.015745144             5
       9     -16.50328345      -0.000406429       0.003775891             6
      10     -16.50336411       0.000080658       0.000882906             7
      11     -16.50337146       0.000007347       0.000214249             7
      12     -16.50336776      -0.000003697       0.000060265             8
      13     -16.50336724      -0.000000522       0.000015572             8
      14     -16.50336752       0.000000284       0.000003002             9
      15     -16.50336752      -0.000000005       0.000000721            10

    CHF Iterations converged


    Iter     Energy [mEh]          dE [mEh]         Residual      Time [s]
       1     -12.21342799      12.213427991      24.848644869             0
       2     -14.02130367       1.807875675      13.338436318             1
       3     -15.24057575       1.219272081       3.191693118             1
       4     -15.13841281      -0.102162941       1.321115220             2
       5     -15.11635272      -0.022060087       0.393299979             2
       6     -15.12901283       0.012660117       0.166726985             3
       7     -15.13137302       0.002360184       0.041739527             3
       8     -15.13059011      -0.000782912       0.013690573             4
       9     -15.13030890      -0.000281211       0.003369501             5
      10     -15.13040812       0.000099221       0.000582258             5
      11     -15.13039800      -0.000010114       0.000107477             6
      12     -15.13039821       0.000000208       0.000028442             6
      13     -15.13039851       0.000000298       0.000005224             7
      14     -15.13039846      -0.000000054       0.000000933             7

    CHF Iterations converged

    Ind20,r (A<-B)      =    -0.016503367520 [Eh]
    Ind20,r (B<-A)      =    -0.015130398455 [Eh]
    Ind20,r             =    -0.031633765975 [Eh]
    Exch-Ind20,r (A<-B) =     0.008510542016 [Eh]
    Exch-Ind20,r (B<-A) =     0.008078316299 [Eh]
    Exch-Ind20,r        =     0.016588858315 [Eh]
    Disp20              =    -0.016572999936 [Eh]
    Disp20 (SS)         =    -0.008286499968 [Eh]
    Disp20 (OS)         =    -0.008286499968 [Eh]
    Exch-Disp20         =     0.003369969877 [Eh]
    Exch-Disp20 (SS)    =     0.002119049419 [Eh]
    Exch-Disp20 (OS)    =     0.001250920457 [Eh]

    SAPT Results 
  --------------------------------------------------------------------------------------------------------
    Electrostatics                -52.90108645 [mEh]     -33.19593292 [kcal/mol]    -138.89178334 [kJ/mol]
      Elst10,r                    -52.90108645 [mEh]     -33.19593292 [kcal/mol]    -138.89178334 [kJ/mol]

    Exchange                       54.24719126 [mEh]      34.04062644 [kcal/mol]     142.42598102 [kJ/mol]
      Exch10                       54.24719126 [mEh]      34.04062644 [kcal/mol]     142.42598102 [kJ/mol]
      Exch10(S^2)                  53.30613387 [mEh]      33.45010401 [kcal/mol]     139.95523519 [kJ/mol]

    Induction                     -26.42952270 [mEh]     -16.58477588 [kcal/mol]     -69.39070229 [kJ/mol]
      Ind20,r                     -31.63376597 [mEh]     -19.85048784 [kcal/mol]     -83.05444112 [kJ/mol]
      Exch-Ind20,r                 16.58885831 [mEh]      10.40966575 [kcal/mol]      43.55404151 [kJ/mol]
      delta HF,r (2)              -11.38461504 [mEh]      -7.14395379 [kcal/mol]     -29.89030267 [kJ/mol]

    Dispersion                    -13.20303006 [mEh]      -8.28502644 [kcal/mol]     -34.66455065 [kJ/mol]
      Disp20                      -16.57299994 [mEh]     -10.39971447 [kcal/mol]     -43.51240534 [kJ/mol]
      Exch-Disp20                   3.36996988 [mEh]       2.11468802 [kcal/mol]       8.84785469 [kJ/mol]
      Disp20 (SS)                  -8.28649997 [mEh]      -5.19985723 [kcal/mol]     -21.75620267 [kJ/mol]
      Disp20 (OS)                  -8.28649997 [mEh]      -5.19985723 [kcal/mol]     -21.75620267 [kJ/mol]
      Exch-Disp20 (SS)              2.11904942 [mEh]       1.32972359 [kcal/mol]       5.56356348 [kJ/mol]
      Exch-Disp20 (OS)              1.25092046 [mEh]       0.78496444 [kcal/mol]       3.28429121 [kJ/mol]

  Total HF                        -25.08341789 [mEh]     -15.74008236 [kcal/mol]     -65.85650461 [kJ/mol]
  Total SAPT0                     -38.28644795 [mEh]     -24.02510881 [kcal/mol]    -100.52105525 [kJ/mol]

  Special recipe for scaled SAPT0 (see Manual):
    Electrostatics sSAPT0         -52.90108645 [mEh]     -33.19593292 [kcal/mol]    -138.89178334 [kJ/mol]
    Exchange sSAPT0                54.24719126 [mEh]      34.04062644 [kcal/mol]     142.42598102 [kJ/mol]
    Induction sSAPT0              -25.53535067 [mEh]     -16.02367446 [kcal/mol]     -67.04305396 [kJ/mol]
    Dispersion sSAPT0             -13.02138207 [mEh]      -8.17104061 [kcal/mol]     -34.18763391 [kJ/mol]
  Total sSAPT0                    -37.21062794 [mEh]     -23.35002155 [kcal/mol]     -97.69649019 [kJ/mol]
  --------------------------------------------------------------------------------------------------------

*** tstop() called on r282 at Fri Sep 10 22:29:56 2021
Module time:
	user time   =      57.93 seconds =       0.97 minutes
	system time =      11.33 seconds =       0.19 minutes
	total time  =         70 seconds =       1.17 minutes
Total time:
	user time   =     138.41 seconds =       2.31 minutes
	system time =      13.26 seconds =       0.22 minutes
	total time  =        152 seconds =       2.53 minutes

    Psi4 stopped on: Friday, 10 September 2021 10:29PM
    Psi4 wall time for execution: 0:02:31.95

*** Psi4 exiting successfully. Buy a developer a beer!
