
    -----------------------------------------------------------------------
          Psi4: An Open-Source Ab Initio Electronic Structure Package
                               Psi4 1.3.2 release

                         Git: Rev {HEAD} ecbda83 


    R. M. Parrish, L. A. Burns, D. G. A. Smith, A. C. Simmonett,
    A. E. DePrince III, E. G. Hohenstein, U. Bozkaya, A. Yu. Sokolov,
    R. Di Remigio, R. M. Richard, J. F. Gonthier, A. M. James,
    H. R. McAlexander, A. Kumar, M. Saitow, X. Wang, B. P. Pritchard,
    P. Verma, H. F. Schaefer III, K. Patkowski, R. A. King, E. F. Valeev,
    F. A. Evangelista, J. M. Turney, T. D. Crawford, and C. D. Sherrill,
    J. Chem. Theory Comput. 13(7) pp 3185--3197 (2017).
    (doi: 10.1021/acs.jctc.7b00174)


                         Additional Contributions by
    P. Kraus, H. Kruse, M. H. Lechner, M. C. Schieber, R. A. Shaw,
    A. Alenaizan, R. Galvelis, Z. L. Glick, S. Lehtola, and J. P. Misiewicz

    -----------------------------------------------------------------------


    Psi4 started on: Thursday, 09 September 2021 11:20AM

    Process ID: 53916
    Host:       r282
    PSIDATADIR: /home/r08543048/miniconda3/share/psi4
    Memory:     500.0 MiB
    Threads:    1
    
  ==> Input File <==

--------------------------------------------------------------------------
# Any line starting with the # character is a comment line
#! Sample  computation

memory 22 gb

molecule Dimer {
 
0 1                               
 C    3.36277300   -0.66409800    0.00040900
 C    1.88845000   -0.36100900    0.00027200
 O    1.04664100   -1.25766300   -0.00014500
 O    1.59194000    0.92539900    0.00049800
 H    0.59677600    1.03260600    0.00037400
 C    4.28215100    0.54638900   -0.00053700
 H    5.32167000    0.22293600   -0.00038700
 H    4.11532500    1.16468600   -0.87964700
 H    4.11545600    1.16596500    0.87769200
 H    3.53948000   -1.29860600    0.87028100
 H    3.53942000   -1.29999900   -0.86844400












 --
0 1
 C    -3.36277500    0.66409700   -0.00024700
 C    -1.88845100    0.36101100   -0.00034800
 O    -1.04664100    1.25766500    0.00015300
 O    -1.59193900   -0.92539700   -0.00048600
 H    -0.59677600   -1.03260400   -0.00034500
 C    -4.28215000   -0.54639200    0.00039700
 H    -4.11525300   -1.16496500    0.87929900
 H    -5.32167000   -0.22294300    0.00043000
 H    -4.11552300   -1.16569300   -0.87803900
 H    -3.53935400    1.29971200    0.86883300
 H    -3.53955400    1.29889000   -0.86989200














 
 
 
units angstrom

no_reorient
symmetry c1
}

set globals{
  basis jun-cc-pVTZ
  scf_type DF 
  freeze_core True
}

energy('sapt0')


--------------------------------------------------------------------------

  Memory set to  20.489 GiB by Python driver.

  //>>>>>>>>>>>>>>>>>>>>>>>>>>>>>>>>>>>//
  //              Dimer HF             //
  //<<<<<<<<<<<<<<<<<<<<<<<<<<<<<<<<<<<//


*** tstart() called on r282
*** at Thu Sep  9 11:20:32 2021

   => Loading Basis Set <=

    Name: JUN-CC-PVTZ
    Role: ORBITAL
    Keyword: BASIS
    atoms 1-2, 6, 12-13, 17  entry C          line   217 file /home/r08543048/miniconda3/share/psi4/basis/jun-cc-pvtz.gbs 
    atoms 3-4, 14-15         entry O          line   305 file /home/r08543048/miniconda3/share/psi4/basis/jun-cc-pvtz.gbs 
    atoms 5, 7-11, 16, 18-22 entry H          line    36 file /home/r08543048/miniconda3/share/psi4/basis/jun-cc-pvtz.gbs 


         ---------------------------------------------------------
                                   SCF
               by Justin Turney, Rob Parrish, Andy Simmonett
                          and Daniel G. A. Smith
                              RHF Reference
                        1 Threads,  20980 MiB Core
         ---------------------------------------------------------

  ==> Geometry <==

    Molecular point group: c1
    Full point group: C1

    Geometry (in Angstrom), charge = 0, multiplicity = 1:

       Center              X                  Y                   Z               Mass       
    ------------   -----------------  -----------------  -----------------  -----------------
         C            3.362773074480    -0.664098167905     0.000410160834    12.000000000000
         C            1.888450074480    -0.361009167905     0.000273160834    12.000000000000
         O            1.046641074480    -1.257663167905    -0.000143839166    15.994914619570
         O            1.591940074480     0.925398832095     0.000499160834    15.994914619570
         H            0.596776074480     1.032605832095     0.000375160834     1.007825032230
         C            4.282151074480     0.546388832095    -0.000535839166    12.000000000000
         H            5.321670074480     0.222935832095    -0.000385839166     1.007825032230
         H            4.115325074480     1.164685832095    -0.879645839166     1.007825032230
         H            4.115456074480     1.165964832095     0.877693160834     1.007825032230
         H            3.539480074480    -1.298606167905     0.870282160834     1.007825032230
         H            3.539420074480    -1.299999167905    -0.868442839166     1.007825032230
         C           -3.362774925520     0.664096832095    -0.000245839166    12.000000000000
         C           -1.888450925520     0.361010832095    -0.000346839166    12.000000000000
         O           -1.046640925520     1.257664832095     0.000154160834    15.994914619570
         O           -1.591938925520    -0.925397167905    -0.000484839166    15.994914619570
         H           -0.596775925520    -1.032604167905    -0.000343839166     1.007825032230
         C           -4.282149925520    -0.546392167905     0.000398160834    12.000000000000
         H           -4.115252925520    -1.164965167905     0.879300160834     1.007825032230
         H           -5.321669925520    -0.222943167905     0.000431160834     1.007825032230
         H           -4.115522925520    -1.165693167905    -0.878037839166     1.007825032230
         H           -3.539353925520     1.299711832095     0.868834160834     1.007825032230
         H           -3.539553925520     1.298889832095    -0.869890839166     1.007825032230

  Running in c1 symmetry.

  Rotational constants: A =      0.14102  B =      0.01538  C =      0.01401 [cm^-1]
  Rotational constants: A =   4227.67984  B =    461.13549  C =    420.04070 [MHz]
  Nuclear repulsion =  543.744813584986218

  Charge       = 0
  Multiplicity = 1
  Electrons    = 80
  Nalpha       = 40
  Nbeta        = 40

  ==> Algorithm <==

  SCF Algorithm Type is DF.
  DIIS enabled.
  MOM disabled.
  Fractional occupation disabled.
  Guess Type is SAD.
  Energy threshold   = 1.00e-08
  Density threshold  = 1.00e-08
  Integral threshold = 0.00e+00

  ==> Primary Basis <==

  Basis Set: JUN-CC-PVTZ
    Blend: JUN-CC-PVTZ
    Number of shells: 202
    Number of basis function: 558
    Number of Cartesian functions: 630
    Spherical Harmonics?: true
    Max angular momentum: 3

   => Loading Basis Set <=

    Name: (JUN-CC-PVTZ AUX)
    Role: JKFIT
    Keyword: DF_BASIS_SCF
    atoms 1-2, 6, 12-13, 17  entry C          line   152 file /home/r08543048/miniconda3/share/psi4/basis/jun-cc-pvtz-jkfit.gbs 
    atoms 3-4, 14-15         entry O          line   272 file /home/r08543048/miniconda3/share/psi4/basis/jun-cc-pvtz-jkfit.gbs 
    atoms 5, 7-11, 16, 18-22 entry H          line    70 file /home/r08543048/miniconda3/share/psi4/basis/jun-cc-pvtz-jkfit.gbs 

  ==> Pre-Iterations <==

   -------------------------------------------------------
    Irrep   Nso     Nmo     Nalpha   Nbeta   Ndocc  Nsocc
   -------------------------------------------------------
     A        558     558       0       0       0       0
   -------------------------------------------------------
    Total     558     558      40      40      40       0
   -------------------------------------------------------

  ==> Integral Setup <==

  ==> DiskDFJK: Density-Fitted J/K Matrices <==

    J tasked:                  Yes
    K tasked:                  Yes
    wK tasked:                  No
    OpenMP threads:              1
    Integrals threads:           1
    Memory [MiB]:            15735
    Algorithm:                Core
    Integral Cache:           SAVE
    Schwarz Cutoff:          1E-12
    Fitting Condition:       1E-10

   => Auxiliary Basis Set <=

  Basis Set: (JUN-CC-PVTZ AUX)
    Blend: JUN-CC-PVTZ-JKFIT
    Number of shells: 410
    Number of basis function: 1310
    Number of Cartesian functions: 1580
    Spherical Harmonics?: true
    Max angular momentum: 4

  Minimum eigenvalue in the overlap matrix is 2.8253280484E-05.
  Using Symmetric Orthogonalization.

  SCF Guess: Superposition of Atomic Densities via on-the-fly atomic UHF.

  ==> Iterations <==

                           Total Energy        Delta E     RMS |[F,P]|

   @DF-RHF iter SAD:  -532.43983957135390   -5.32440e+02   0.00000e+00 
   @DF-RHF iter   1:  -533.55837394792559   -1.11853e+00   1.57557e-03 DIIS
   @DF-RHF iter   2:  -533.83783523672571   -2.79461e-01   8.44655e-04 DIIS
   @DF-RHF iter   3:  -533.91490928248732   -7.70740e-02   1.42847e-04 DIIS
   @DF-RHF iter   4:  -533.91953545398042   -4.62617e-03   6.28834e-05 DIIS
   @DF-RHF iter   5:  -533.92027256808865   -7.37114e-04   1.41759e-05 DIIS
   @DF-RHF iter   6:  -533.92033515046785   -6.25824e-05   7.44248e-06 DIIS
   @DF-RHF iter   7:  -533.92034652273776   -1.13723e-05   2.15774e-06 DIIS
   @DF-RHF iter   8:  -533.92034906997799   -2.54724e-06   8.16099e-07 DIIS
   @DF-RHF iter   9:  -533.92034940894780   -3.38970e-07   2.32077e-07 DIIS
   @DF-RHF iter  10:  -533.92034943438171   -2.54339e-08   6.42732e-08 DIIS
   @DF-RHF iter  11:  -533.92034943582507   -1.44337e-09   1.61180e-08 DIIS
   @DF-RHF iter  12:  -533.92034943590875   -8.36735e-11   3.81030e-09 DIIS
  Energy and wave function converged.


  ==> Post-Iterations <==

    Orbital Energies [Eh]
    ---------------------

    Doubly Occupied:                                                      

       1A    -20.598929     2A    -20.598929     3A    -20.551929  
       4A    -20.551928     5A    -11.393200     6A    -11.393200  
       7A    -11.246987     8A    -11.246987     9A    -11.223834  
      10A    -11.223834    11A     -1.469151    12A     -1.456387  
      13A     -1.365116    14A     -1.350703    15A     -1.070533  
      16A     -1.066298    17A     -0.916104    18A     -0.903570  
      19A     -0.822324    20A     -0.813558    21A     -0.733470  
      22A     -0.699587    23A     -0.675691    24A     -0.670238  
      25A     -0.663575    26A     -0.659186    27A     -0.596925  
      28A     -0.593412    29A     -0.587474    30A     -0.565836  
      31A     -0.553946    32A     -0.553193    33A     -0.525344  
      34A     -0.522023    35A     -0.516387    36A     -0.514003  
      37A     -0.479925    38A     -0.471239    39A     -0.464883  
      40A     -0.445073  

    Virtual:                                                              

      41A      0.046878    42A      0.050968    43A      0.060162  
      44A      0.062843    45A      0.068731    46A      0.073105  
      47A      0.076542    48A      0.092806    49A      0.100363  
      50A      0.102895    51A      0.104864    52A      0.105108  
      53A      0.110080    54A      0.112835    55A      0.117806  
      56A      0.137745    57A      0.140782    58A      0.150085  
      59A      0.154059    60A      0.179915    61A      0.181827  
      62A      0.189000    63A      0.189035    64A      0.191776  
      65A      0.198878    66A      0.203529    67A      0.215993  
      68A      0.219499    69A      0.222405    70A      0.239788  
      71A      0.247304    72A      0.253453    73A      0.254716  
      74A      0.256434    75A      0.265911    76A      0.277050  
      77A      0.279366    78A      0.290582    79A      0.295296  
      80A      0.296748    81A      0.297250    82A      0.306084  
      83A      0.308114    84A      0.310557    85A      0.319498  
      86A      0.322718    87A      0.328339    88A      0.330809  
      89A      0.331835    90A      0.335344    91A      0.339198  
      92A      0.344346    93A      0.361640    94A      0.366863  
      95A      0.378685    96A      0.381370    97A      0.396685  
      98A      0.402343    99A      0.405996   100A      0.408571  
     101A      0.425131   102A      0.428717   103A      0.436092  
     104A      0.437265   105A      0.446525   106A      0.452410  
     107A      0.453736   108A      0.472602   109A      0.484003  
     110A      0.484574   111A      0.490331   112A      0.507138  
     113A      0.511237   114A      0.511299   115A      0.514683  
     116A      0.530258   117A      0.535172   118A      0.544464  
     119A      0.553664   120A      0.558309   121A      0.562812  
     122A      0.568853   123A      0.572365   124A      0.594183  
     125A      0.596206   126A      0.611209   127A      0.612181  
     128A      0.622925   129A      0.624400   130A      0.632001  
     131A      0.656961   132A      0.660458   133A      0.680214  
     134A      0.680963   135A      0.703520   136A      0.706383  
     137A      0.710541   138A      0.713830   139A      0.719444  
     140A      0.724278   141A      0.735271   142A      0.740569  
     143A      0.740710   144A      0.749156   145A      0.768174  
     146A      0.774330   147A      0.782385   148A      0.784202  
     149A      0.786410   150A      0.789841   151A      0.793498  
     152A      0.796368   153A      0.810406   154A      0.820652  
     155A      0.832705   156A      0.837098   157A      0.839659  
     158A      0.842393   159A      0.843350   160A      0.849414  
     161A      0.896231   162A      0.897559   163A      0.900820  
     164A      0.901347   165A      0.903192   166A      0.908012  
     167A      0.916926   168A      0.919249   169A      0.957304  
     170A      0.960901   171A      0.973111   172A      0.977978  
     173A      0.989137   174A      0.991168   175A      1.000527  
     176A      1.009978   177A      1.013789   178A      1.037148  
     179A      1.043943   180A      1.054156   181A      1.055053  
     182A      1.060171   183A      1.101253   184A      1.113658  
     185A      1.114081   186A      1.119388   187A      1.128338  
     188A      1.144130   189A      1.145196   190A      1.179447  
     191A      1.190188   192A      1.207345   193A      1.219379  
     194A      1.224727   195A      1.247159   196A      1.254889  
     197A      1.271494   198A      1.277294   199A      1.299400  
     200A      1.319253   201A      1.319737   202A      1.325074  
     203A      1.332014   204A      1.338191   205A      1.349057  
     206A      1.370554   207A      1.371733   208A      1.376804  
     209A      1.387093   210A      1.392891   211A      1.418117  
     212A      1.418763   213A      1.420829   214A      1.427502  
     215A      1.428007   216A      1.439506   217A      1.455411  
     218A      1.456063   219A      1.472546   220A      1.485429  
     221A      1.485504   222A      1.493241   223A      1.518695  
     224A      1.523605   225A      1.529451   226A      1.531833  
     227A      1.548702   228A      1.581790   229A      1.585052  
     230A      1.585693   231A      1.585872   232A      1.601683  
     233A      1.609935   234A      1.612534   235A      1.623321  
     236A      1.624084   237A      1.637817   238A      1.644186  
     239A      1.679096   240A      1.680607   241A      1.689188  
     242A      1.704274   243A      1.726406   244A      1.732625  
     245A      1.771236   246A      1.771852   247A      1.785649  
     248A      1.812365   249A      1.812557   250A      1.817145  
     251A      1.820737   252A      1.844826   253A      1.851322  
     254A      1.889354   255A      1.896987   256A      1.906938  
     257A      1.913942   258A      1.930048   259A      1.930452  
     260A      1.954332   261A      1.955313   262A      2.029264  
     263A      2.066413   264A      2.069812   265A      2.129038  
     266A      2.192216   267A      2.205264   268A      2.244881  
     269A      2.250152   270A      2.276269   271A      2.281954  
     272A      2.360386   273A      2.365996   274A      2.398912  
     275A      2.406652   276A      2.418856   277A      2.420557  
     278A      2.458359   279A      2.467764   280A      2.474784  
     281A      2.600437   282A      2.612061   283A      2.618271  
     284A      2.636060   285A      2.671677   286A      2.683255  
     287A      2.687338   288A      2.772298   289A      2.773978  
     290A      2.801061   291A      2.801792   292A      2.826677  
     293A      2.831443   294A      2.858676   295A      2.885002  
     296A      2.890169   297A      2.904593   298A      2.910528  
     299A      2.947461   300A      2.947546   301A      2.979157  
     302A      3.001335   303A      3.013893   304A      3.021605  
     305A      3.032498   306A      3.044085   307A      3.054891  
     308A      3.085748   309A      3.104047   310A      3.109625  
     311A      3.109934   312A      3.115383   313A      3.126357  
     314A      3.128423   315A      3.170316   316A      3.183348  
     317A      3.224157   318A      3.234962   319A      3.236481  
     320A      3.249504   321A      3.250781   322A      3.260038  
     323A      3.283822   324A      3.287919   325A      3.298173  
     326A      3.351128   327A      3.360692   328A      3.372553  
     329A      3.375519   330A      3.384155   331A      3.398162  
     332A      3.407423   333A      3.421726   334A      3.422014  
     335A      3.439285   336A      3.441036   337A      3.442047  
     338A      3.455859   339A      3.480042   340A      3.499928  
     341A      3.500456   342A      3.502491   343A      3.511127  
     344A      3.522862   345A      3.531926   346A      3.547427  
     347A      3.549435   348A      3.556701   349A      3.567590  
     350A      3.572104   351A      3.584743   352A      3.590179  
     353A      3.629624   354A      3.631939   355A      3.657530  
     356A      3.658797   357A      3.680593   358A      3.681635  
     359A      3.684362   360A      3.687299   361A      3.711661  
     362A      3.713617   363A      3.725490   364A      3.743999  
     365A      3.772172   366A      3.775247   367A      3.790807  
     368A      3.794857   369A      3.808349   370A      3.819155  
     371A      3.846080   372A      3.862724   373A      3.890752  
     374A      3.891292   375A      3.893681   376A      3.915158  
     377A      3.924743   378A      3.926188   379A      3.926775  
     380A      3.950526   381A      3.950868   382A      3.952019  
     383A      4.016890   384A      4.028162   385A      4.070978  
     386A      4.073622   387A      4.092771   388A      4.115890  
     389A      4.124403   390A      4.147892   391A      4.180263  
     392A      4.191244   393A      4.200816   394A      4.207943  
     395A      4.225619   396A      4.227137   397A      4.229724  
     398A      4.240209   399A      4.257888   400A      4.275901  
     401A      4.317163   402A      4.317337   403A      4.319886  
     404A      4.330849   405A      4.335472   406A      4.346329  
     407A      4.347546   408A      4.353006   409A      4.376949  
     410A      4.382721   411A      4.399749   412A      4.406662  
     413A      4.451070   414A      4.451545   415A      4.463458  
     416A      4.465828   417A      4.467459   418A      4.488864  
     419A      4.520210   420A      4.530464   421A      4.532077  
     422A      4.545538   423A      4.600223   424A      4.603612  
     425A      4.627670   426A      4.629532   427A      4.631095  
     428A      4.647058   429A      4.660527   430A      4.662025  
     431A      4.688165   432A      4.688539   433A      4.698389  
     434A      4.703437   435A      4.715124   436A      4.732822  
     437A      4.783602   438A      4.788279   439A      4.800588  
     440A      4.821836   441A      4.838817   442A      4.870579  
     443A      4.877687   444A      4.884632   445A      4.908832  
     446A      4.912835   447A      4.916021   448A      4.969019  
     449A      4.981027   450A      4.998147   451A      5.087026  
     452A      5.117060   453A      5.137068   454A      5.141314  
     455A      5.194248   456A      5.224472   457A      5.233254  
     458A      5.273318   459A      5.273800   460A      5.276268  
     461A      5.282849   462A      5.301313   463A      5.310883  
     464A      5.314685   465A      5.319296   466A      5.332407  
     467A      5.344194   468A      5.364966   469A      5.446793  
     470A      5.447793   471A      5.465087   472A      5.495690  
     473A      5.616697   474A      5.618407   475A      5.624056  
     476A      5.637925   477A      5.650453   478A      5.657829  
     479A      5.663875   480A      5.665766   481A      5.732701  
     482A      5.737206   483A      5.739242   484A      5.741553  
     485A      5.764737   486A      5.765937   487A      5.821904  
     488A      5.823138   489A      5.853736   490A      5.860491  
     491A      5.865237   492A      5.882378   493A      5.901075  
     494A      5.922371   495A      5.924569   496A      5.928057  
     497A      5.980907   498A      5.987910   499A      6.031516  
     500A      6.041354   501A      6.052880   502A      6.066282  
     503A      6.287059   504A      6.320164   505A      6.328142  
     506A      6.434864   507A      6.470196   508A      6.473209  
     509A      6.495515   510A      6.517248   511A      6.519033  
     512A      6.522291   513A      6.578475   514A      6.584601  
     515A      6.676645   516A      6.714194   517A      6.717860  
     518A      6.807090   519A      6.884752   520A      6.915473  
     521A      6.956248   522A      6.999129   523A      7.107901  
     524A      7.114983   525A      7.161424   526A      7.249832  
     527A      7.258576   528A      7.296461   529A      7.302489  
     530A      7.326963   531A      7.382710   532A      7.384150  
     533A      7.390511   534A      7.402664   535A      7.474224  
     536A      7.492541   537A      7.523949   538A      7.526557  
     539A      7.722019   540A      7.736141   541A      7.788461  
     542A      7.851683   543A      7.933111   544A      7.939514  
     545A      8.060862   546A      8.079251   547A      8.445438  
     548A      8.449837   549A     12.391502   550A     12.649215  
     551A     13.573036   552A     13.715924   553A     14.217489  
     554A     14.356772   555A     14.523401   556A     14.656229  
     557A     14.712278   558A     14.724263  

    Final Occupation by Irrep:
              A 
    DOCC [    40 ]

  @DF-RHF Final Energy:  -533.92034943590875

   => Energetics <=

    Nuclear Repulsion Energy =            543.7448135849862183
    One-Electron Energy =               -1809.8205072016553459
    Two-Electron Energy =                 732.1553441807602667
    Total Energy =                       -533.9203494359087472

Computation Completed


Properties will be evaluated at   0.000000,   0.000000,   0.000000 [a0]

Properties computed using the SCF density matrix

  Nuclear Dipole Moment: [e a0]
     X:    -0.0000      Y:    -0.0000      Z:     0.0002

  Electronic Dipole Moment: [e a0]
     X:    -0.0000      Y:     0.0000      Z:    -0.0002

  Dipole Moment: [e a0]
     X:    -0.0000      Y:    -0.0000      Z:     0.0000     Total:     0.0000

  Dipole Moment: [D]
     X:    -0.0000      Y:    -0.0000      Z:     0.0000     Total:     0.0000


*** tstop() called on r282 at Thu Sep  9 11:22:02 2021
Module time:
	user time   =      87.20 seconds =       1.45 minutes
	system time =       1.90 seconds =       0.03 minutes
	total time  =         90 seconds =       1.50 minutes
Total time:
	user time   =      87.20 seconds =       1.45 minutes
	system time =       1.90 seconds =       0.03 minutes
	total time  =         90 seconds =       1.50 minutes

  //>>>>>>>>>>>>>>>>>>>>>>>>>>>>>>>>>>>//
  //            Monomer A HF           //
  //<<<<<<<<<<<<<<<<<<<<<<<<<<<<<<<<<<<//


*** tstart() called on r282
*** at Thu Sep  9 11:22:02 2021

   => Loading Basis Set <=

    Name: JUN-CC-PVTZ
    Role: ORBITAL
    Keyword: BASIS
    atoms 1-2, 6, 12-13, 17  entry C          line   217 file /home/r08543048/miniconda3/share/psi4/basis/jun-cc-pvtz.gbs 
    atoms 3-4, 14-15         entry O          line   305 file /home/r08543048/miniconda3/share/psi4/basis/jun-cc-pvtz.gbs 
    atoms 5, 7-11, 16, 18-22 entry H          line    36 file /home/r08543048/miniconda3/share/psi4/basis/jun-cc-pvtz.gbs 


         ---------------------------------------------------------
                                   SCF
               by Justin Turney, Rob Parrish, Andy Simmonett
                          and Daniel G. A. Smith
                              RHF Reference
                        1 Threads,  20980 MiB Core
         ---------------------------------------------------------

  ==> Geometry <==

    Molecular point group: c1
    Full point group: C1

    Geometry (in Angstrom), charge = 0, multiplicity = 1:

       Center              X                  Y                   Z               Mass       
    ------------   -----------------  -----------------  -----------------  -----------------
         C            3.362773074480    -0.664098167905     0.000410160834    12.000000000000
         C            1.888450074480    -0.361009167905     0.000273160834    12.000000000000
         O            1.046641074480    -1.257663167905    -0.000143839166    15.994914619570
         O            1.591940074480     0.925398832095     0.000499160834    15.994914619570
         H            0.596776074480     1.032605832095     0.000375160834     1.007825032230
         C            4.282151074480     0.546388832095    -0.000535839166    12.000000000000
         H            5.321670074480     0.222935832095    -0.000385839166     1.007825032230
         H            4.115325074480     1.164685832095    -0.879645839166     1.007825032230
         H            4.115456074480     1.165964832095     0.877693160834     1.007825032230
         H            3.539480074480    -1.298606167905     0.870282160834     1.007825032230
         H            3.539420074480    -1.299999167905    -0.868442839166     1.007825032230
      Gh(C)          -3.362774925520     0.664096832095    -0.000245839166    12.000000000000
      Gh(C)          -1.888450925520     0.361010832095    -0.000346839166    12.000000000000
      Gh(O)          -1.046640925520     1.257664832095     0.000154160834    15.994914619570
      Gh(O)          -1.591938925520    -0.925397167905    -0.000484839166    15.994914619570
      Gh(H)          -0.596775925520    -1.032604167905    -0.000343839166     1.007825032230
      Gh(C)          -4.282149925520    -0.546392167905     0.000398160834    12.000000000000
      Gh(H)          -4.115252925520    -1.164965167905     0.879300160834     1.007825032230
      Gh(H)          -5.321669925520    -0.222943167905     0.000431160834     1.007825032230
      Gh(H)          -4.115522925520    -1.165693167905    -0.878037839166     1.007825032230
      Gh(H)          -3.539353925520     1.299711832095     0.868834160834     1.007825032230
      Gh(H)          -3.539553925520     1.298889832095    -0.869890839166     1.007825032230

  Running in c1 symmetry.

  Rotational constants: A =      0.14102  B =      0.01538  C =      0.01401 [cm^-1]
  Rotational constants: A =   4227.67984  B =    461.13549  C =    420.04070 [MHz]
  Nuclear repulsion =  179.066721104569240

  Charge       = 0
  Multiplicity = 1
  Electrons    = 40
  Nalpha       = 20
  Nbeta        = 20

  ==> Algorithm <==

  SCF Algorithm Type is DF.
  DIIS enabled.
  MOM disabled.
  Fractional occupation disabled.
  Guess Type is SAD.
  Energy threshold   = 1.00e-08
  Density threshold  = 1.00e-08
  Integral threshold = 0.00e+00

  ==> Primary Basis <==

  Basis Set: JUN-CC-PVTZ
    Blend: JUN-CC-PVTZ
    Number of shells: 202
    Number of basis function: 558
    Number of Cartesian functions: 630
    Spherical Harmonics?: true
    Max angular momentum: 3

   => Loading Basis Set <=

    Name: (JUN-CC-PVTZ AUX)
    Role: JKFIT
    Keyword: DF_BASIS_SCF
    atoms 1-2, 6, 12-13, 17  entry C          line   152 file /home/r08543048/miniconda3/share/psi4/basis/jun-cc-pvtz-jkfit.gbs 
    atoms 3-4, 14-15         entry O          line   272 file /home/r08543048/miniconda3/share/psi4/basis/jun-cc-pvtz-jkfit.gbs 
    atoms 5, 7-11, 16, 18-22 entry H          line    70 file /home/r08543048/miniconda3/share/psi4/basis/jun-cc-pvtz-jkfit.gbs 

  ==> Pre-Iterations <==

   -------------------------------------------------------
    Irrep   Nso     Nmo     Nalpha   Nbeta   Ndocc  Nsocc
   -------------------------------------------------------
     A        558     558       0       0       0       0
   -------------------------------------------------------
    Total     558     558      20      20      20       0
   -------------------------------------------------------

  ==> Integral Setup <==

  ==> DiskDFJK: Density-Fitted J/K Matrices <==

    J tasked:                  Yes
    K tasked:                  Yes
    wK tasked:                  No
    OpenMP threads:              1
    Integrals threads:           1
    Memory [MiB]:            15735
    Algorithm:                Core
    Integral Cache:           LOAD
    Schwarz Cutoff:          1E-12
    Fitting Condition:       1E-10

   => Auxiliary Basis Set <=

  Basis Set: (JUN-CC-PVTZ AUX)
    Blend: JUN-CC-PVTZ-JKFIT
    Number of shells: 410
    Number of basis function: 1310
    Number of Cartesian functions: 1580
    Spherical Harmonics?: true
    Max angular momentum: 4

  Minimum eigenvalue in the overlap matrix is 2.8253280484E-05.
  Using Symmetric Orthogonalization.

  SCF Guess: Superposition of Atomic Densities via on-the-fly atomic UHF.

  ==> Iterations <==

                           Total Energy        Delta E     RMS |[F,P]|

   @DF-RHF iter SAD:  -266.06104239540622   -2.66061e+02   0.00000e+00 
   @DF-RHF iter   1:  -266.74430160107801   -6.83259e-01   1.16815e-03 DIIS
   @DF-RHF iter   2:  -266.89340490197912   -1.49103e-01   6.89115e-04 DIIS
   @DF-RHF iter   3:  -266.94308752848929   -4.96826e-02   1.18731e-04 DIIS
   @DF-RHF iter   4:  -266.94582473054032   -2.73720e-03   5.75264e-05 DIIS
   @DF-RHF iter   5:  -266.94643749353111   -6.12763e-04   1.19734e-05 DIIS
   @DF-RHF iter   6:  -266.94648274044312   -4.52469e-05   5.87048e-06 DIIS
   @DF-RHF iter   7:  -266.94649190792904   -9.16749e-06   2.03045e-06 DIIS
   @DF-RHF iter   8:  -266.94649395371528   -2.04579e-06   6.67941e-07 DIIS
   @DF-RHF iter   9:  -266.94649419354045   -2.39825e-07   1.63313e-07 DIIS
   @DF-RHF iter  10:  -266.94649420549115   -1.19507e-08   5.07230e-08 DIIS
   @DF-RHF iter  11:  -266.94649420626047   -7.69319e-10   1.35994e-08 DIIS
   @DF-RHF iter  12:  -266.94649420632209   -6.16183e-11   3.29109e-09 DIIS
  Energy and wave function converged.


  ==> Post-Iterations <==

    Orbital Energies [Eh]
    ---------------------

    Doubly Occupied:                                                      

       1A    -20.626665     2A    -20.538703     3A    -11.386040  
       4A    -11.246972     5A    -11.226340     6A     -1.470735  
       7A     -1.348627     8A     -1.068818     9A     -0.910094  
      10A     -0.825168    11A     -0.704517    12A     -0.670983  
      13A     -0.664381    14A     -0.597595    15A     -0.585696  
      16A     -0.552609    17A     -0.525176    18A     -0.519316  
      19A     -0.464839    20A     -0.443130  

    Virtual:                                                              

      21A      0.031698    22A      0.044636    23A      0.051606  
      24A      0.060365    25A      0.063401    26A      0.064777  
      27A      0.074352    28A      0.085196    29A      0.093404  
      30A      0.098645    31A      0.102546    32A      0.104131  
      33A      0.109747    34A      0.112846    35A      0.114419  
      36A      0.130445    37A      0.138207    38A      0.141492  
      39A      0.150230    40A      0.155733    41A      0.167758  
      42A      0.170512    43A      0.177094    44A      0.182936  
      45A      0.188123    46A      0.196012    47A      0.207475  
      48A      0.210312    49A      0.214031    50A      0.215327  
      51A      0.231482    52A      0.233668    53A      0.239108  
      54A      0.254880    55A      0.257060    56A      0.264446  
      57A      0.270612    58A      0.278550    59A      0.286839  
      60A      0.293184    61A      0.299810    62A      0.305292  
      63A      0.305877    64A      0.310395    65A      0.314861  
      66A      0.320439    67A      0.330843    68A      0.338798  
      69A      0.340988    70A      0.350098    71A      0.359534  
      72A      0.363388    73A      0.364121    74A      0.374863  
      75A      0.380444    76A      0.382294    77A      0.393961  
      78A      0.407407    79A      0.408258    80A      0.411648  
      81A      0.424403    82A      0.428535    83A      0.437812  
      84A      0.441363    85A      0.444345    86A      0.460283  
      87A      0.461061    88A      0.468309    89A      0.477585  
      90A      0.481203    91A      0.494132    92A      0.501842  
      93A      0.509158    94A      0.509876    95A      0.519215  
      96A      0.528519    97A      0.532141    98A      0.537092  
      99A      0.554604   100A      0.554915   101A      0.561009  
     102A      0.561970   103A      0.568607   104A      0.572573  
     105A      0.585786   106A      0.603546   107A      0.619677  
     108A      0.620558   109A      0.630664   110A      0.639973  
     111A      0.643724   112A      0.662177   113A      0.670467  
     114A      0.681384   115A      0.693057   116A      0.699557  
     117A      0.702414   118A      0.712034   119A      0.720102  
     120A      0.723405   121A      0.734071   122A      0.740520  
     123A      0.759085   124A      0.761477   125A      0.771284  
     126A      0.781419   127A      0.785666   128A      0.787353  
     129A      0.807402   130A      0.817936   131A      0.832032  
     132A      0.844239   133A      0.852233   134A      0.866090  
     135A      0.866434   136A      0.870462   137A      0.875645  
     138A      0.886372   139A      0.899702   140A      0.905862  
     141A      0.914580   142A      0.914717   143A      0.942058  
     144A      0.952933   145A      0.958175   146A      0.969454  
     147A      0.986029   148A      0.991461   149A      1.010341  
     150A      1.016783   151A      1.023919   152A      1.040516  
     153A      1.047982   154A      1.050497   155A      1.052764  
     156A      1.059103   157A      1.061771   158A      1.083490  
     159A      1.085928   160A      1.092053   161A      1.106318  
     162A      1.132160   163A      1.138235   164A      1.142913  
     165A      1.153542   166A      1.167443   167A      1.190263  
     168A      1.201868   169A      1.212279   170A      1.215585  
     171A      1.233535   172A      1.234100   173A      1.243894  
     174A      1.251047   175A      1.260657   176A      1.263742  
     177A      1.284750   178A      1.286061   179A      1.290558  
     180A      1.314254   181A      1.325282   182A      1.329663  
     183A      1.343965   184A      1.344127   185A      1.354901  
     186A      1.365627   187A      1.376767   188A      1.386937  
     189A      1.407209   190A      1.408969   191A      1.417824  
     192A      1.425219   193A      1.427292   194A      1.433954  
     195A      1.455933   196A      1.466431   197A      1.471876  
     198A      1.497938   199A      1.506359   200A      1.522242  
     201A      1.528986   202A      1.530357   203A      1.547249  
     204A      1.550792   205A      1.568766   206A      1.568885  
     207A      1.586738   208A      1.593870   209A      1.609154  
     210A      1.612815   211A      1.623295   212A      1.637368  
     213A      1.639266   214A      1.669450   215A      1.671143  
     216A      1.673690   217A      1.698112   218A      1.700206  
     219A      1.736245   220A      1.750991   221A      1.764665  
     222A      1.783670   223A      1.786316   224A      1.815158  
     225A      1.817163   226A      1.829625   227A      1.850245  
     228A      1.855101   229A      1.865647   230A      1.892187  
     231A      1.901949   232A      1.909276   233A      1.921789  
     234A      1.931206   235A      1.943113   236A      1.972436  
     237A      1.982750   238A      2.017035   239A      2.019179  
     240A      2.046989   241A      2.086286   242A      2.100098  
     243A      2.128480   244A      2.156135   245A      2.164138  
     246A      2.180951   247A      2.213640   248A      2.222666  
     249A      2.272267   250A      2.277633   251A      2.331686  
     252A      2.339773   253A      2.359260   254A      2.387974  
     255A      2.411121   256A      2.414873   257A      2.423177  
     258A      2.463458   259A      2.499992   260A      2.518935  
     261A      2.532920   262A      2.574067   263A      2.608607  
     264A      2.618840   265A      2.634042   266A      2.651783  
     267A      2.674488   268A      2.710018   269A      2.769587  
     270A      2.773655   271A      2.787620   272A      2.810031  
     273A      2.848888   274A      2.855499   275A      2.866213  
     276A      2.890219   277A      2.922739   278A      2.925685  
     279A      2.942874   280A      2.972361   281A      3.011679  
     282A      3.013141   283A      3.019333   284A      3.028854  
     285A      3.042142   286A      3.042802   287A      3.048343  
     288A      3.077661   289A      3.108344   290A      3.124860  
     291A      3.127733   292A      3.155631   293A      3.199217  
     294A      3.232473   295A      3.234617   296A      3.265757  
     297A      3.286719   298A      3.326433   299A      3.372771  
     300A      3.383914   301A      3.386507   302A      3.413636  
     303A      3.421491   304A      3.428111   305A      3.436622  
     306A      3.467758   307A      3.487551   308A      3.500062  
     309A      3.523988   310A      3.540932   311A      3.545683  
     312A      3.554829   313A      3.561677   314A      3.581193  
     315A      3.584351   316A      3.603680   317A      3.612327  
     318A      3.626373   319A      3.632008   320A      3.652537  
     321A      3.668005   322A      3.674130   323A      3.692083  
     324A      3.703435   325A      3.712656   326A      3.728205  
     327A      3.731933   328A      3.748791   329A      3.755872  
     330A      3.774721   331A      3.787355   332A      3.794791  
     333A      3.803823   334A      3.827011   335A      3.848014  
     336A      3.857603   337A      3.870032   338A      3.889983  
     339A      3.890843   340A      3.893400   341A      3.913605  
     342A      3.918348   343A      3.930832   344A      3.947949  
     345A      3.986774   346A      4.002023   347A      4.023227  
     348A      4.027327   349A      4.037484   350A      4.070562  
     351A      4.097424   352A      4.097479   353A      4.106118  
     354A      4.159174   355A      4.165797   356A      4.177196  
     357A      4.189572   358A      4.200688   359A      4.219435  
     360A      4.219588   361A      4.236031   362A      4.271627  
     363A      4.312199   364A      4.312462   365A      4.315709  
     366A      4.325904   367A      4.345937   368A      4.355751  
     369A      4.358298   370A      4.376845   371A      4.385729  
     372A      4.414494   373A      4.432807   374A      4.450154  
     375A      4.452806   376A      4.460684   377A      4.475182  
     378A      4.477924   379A      4.490678   380A      4.511799  
     381A      4.519905   382A      4.526751   383A      4.533226  
     384A      4.595484   385A      4.610961   386A      4.618480  
     387A      4.628236   388A      4.632335   389A      4.653120  
     390A      4.665745   391A      4.675765   392A      4.683262  
     393A      4.690492   394A      4.701065   395A      4.706420  
     396A      4.732875   397A      4.745325   398A      4.746174  
     399A      4.762659   400A      4.777298   401A      4.789686  
     402A      4.799828   403A      4.803458   404A      4.809021  
     405A      4.828203   406A      4.855618   407A      4.864414  
     408A      4.866924   409A      4.885636   410A      4.888171  
     411A      4.910481   412A      4.910585   413A      4.928154  
     414A      4.938915   415A      4.967595   416A      4.973341  
     417A      4.988987   418A      4.995552   419A      5.010822  
     420A      5.024667   421A      5.040723   422A      5.043293  
     423A      5.082068   424A      5.097019   425A      5.126716  
     426A      5.126792   427A      5.145278   428A      5.155982  
     429A      5.219781   430A      5.230519   431A      5.244667  
     432A      5.265573   433A      5.271396   434A      5.279312  
     435A      5.306929   436A      5.317777   437A      5.333931  
     438A      5.350701   439A      5.361589   440A      5.397642  
     441A      5.448343   442A      5.451174   443A      5.473547  
     444A      5.554612   445A      5.597729   446A      5.610453  
     447A      5.623113   448A      5.632543   449A      5.660088  
     450A      5.678178   451A      5.702406   452A      5.722683  
     453A      5.736472   454A      5.738884   455A      5.743823  
     456A      5.776273   457A      5.810667   458A      5.845925  
     459A      5.861000   460A      5.887092   461A      5.894617  
     462A      5.919411   463A      5.927492   464A      5.980103  
     465A      5.999702   466A      6.038667   467A      6.062117  
     468A      6.092941   469A      6.108475   470A      6.217536  
     471A      6.225862   472A      6.303670   473A      6.317025  
     474A      6.336048   475A      6.394986   476A      6.421178  
     477A      6.441976   478A      6.452896   479A      6.468462  
     480A      6.505574   481A      6.514433   482A      6.526125  
     483A      6.561113   484A      6.579686   485A      6.673821  
     486A      6.686094   487A      6.740816   488A      6.794036  
     489A      6.805457   490A      6.900960   491A      6.908932  
     492A      6.958462   493A      6.968572   494A      7.045024  
     495A      7.087745   496A      7.170098   497A      7.194905  
     498A      7.196359   499A      7.244784   500A      7.282087  
     501A      7.312435   502A      7.393591   503A      7.441280  
     504A      7.445880   505A      7.452412   506A      7.481933  
     507A      7.516182   508A      7.587664   509A      7.662793  
     510A      7.680412   511A      7.698726   512A      7.755484  
     513A      7.787736   514A      7.819670   515A      7.835138  
     516A      7.898205   517A      7.920491   518A      7.982800  
     519A      7.985817   520A      8.044847   521A      8.054126  
     522A      8.171905   523A      8.262029   524A      8.305363  
     525A      8.520072   526A      8.698159   527A      8.921294  
     528A      9.246942   529A      9.502927   530A      9.682185  
     531A      9.767129   532A      9.774680   533A      9.891500  
     534A      9.893956   535A      9.899958   536A      9.972350  
     537A      9.978160   538A     10.268099   539A     10.452207  
     540A     10.593208   541A     11.065200   542A     11.443553  
     543A     11.559902   544A     11.624628   545A     11.956542  
     546A     12.542535   547A     13.196381   548A     13.635288  
     549A     13.818486   550A     14.043208   551A     14.311689  
     552A     14.583173   553A     14.713019   554A     43.392662  
     555A     45.088909   556A     45.841006   557A     61.272357  
     558A     62.035223  

    Final Occupation by Irrep:
              A 
    DOCC [    20 ]

  @DF-RHF Final Energy:  -266.94649420632209

   => Energetics <=

    Nuclear Repulsion Energy =            179.0667211045692397
    One-Electron Energy =                -719.2736251486110177
    Two-Electron Energy =                 273.2604098377196351
    Total Energy =                       -266.9464942063220860

Computation Completed


Properties will be evaluated at   0.000000,   0.000000,   0.000000 [a0]

Properties computed using the SCF density matrix

  Nuclear Dipole Moment: [e a0]
     X:   188.0977      Y:    -8.5847      Z:     0.0068

  Electronic Dipole Moment: [e a0]
     X:  -187.5164      Y:     9.3258      Z:    -0.0065

  Dipole Moment: [e a0]
     X:     0.5813      Y:     0.7411      Z:     0.0003     Total:     0.9418

  Dipole Moment: [D]
     X:     1.4775      Y:     1.8836      Z:     0.0009     Total:     2.3939


*** tstop() called on r282 at Thu Sep  9 11:23:04 2021
Module time:
	user time   =      61.26 seconds =       1.02 minutes
	system time =       0.94 seconds =       0.02 minutes
	total time  =         62 seconds =       1.03 minutes
Total time:
	user time   =     148.46 seconds =       2.47 minutes
	system time =       2.84 seconds =       0.05 minutes
	total time  =        152 seconds =       2.53 minutes

  //>>>>>>>>>>>>>>>>>>>>>>>>>>>>>>>>>>>//
  //            Monomer B HF           //
  //<<<<<<<<<<<<<<<<<<<<<<<<<<<<<<<<<<<//


*** tstart() called on r282
*** at Thu Sep  9 11:23:04 2021

   => Loading Basis Set <=

    Name: JUN-CC-PVTZ
    Role: ORBITAL
    Keyword: BASIS
    atoms 1-2, 6, 12-13, 17  entry C          line   217 file /home/r08543048/miniconda3/share/psi4/basis/jun-cc-pvtz.gbs 
    atoms 3-4, 14-15         entry O          line   305 file /home/r08543048/miniconda3/share/psi4/basis/jun-cc-pvtz.gbs 
    atoms 5, 7-11, 16, 18-22 entry H          line    36 file /home/r08543048/miniconda3/share/psi4/basis/jun-cc-pvtz.gbs 


         ---------------------------------------------------------
                                   SCF
               by Justin Turney, Rob Parrish, Andy Simmonett
                          and Daniel G. A. Smith
                              RHF Reference
                        1 Threads,  20980 MiB Core
         ---------------------------------------------------------

  ==> Geometry <==

    Molecular point group: c1
    Full point group: C1

    Geometry (in Angstrom), charge = 0, multiplicity = 1:

       Center              X                  Y                   Z               Mass       
    ------------   -----------------  -----------------  -----------------  -----------------
      Gh(C)           3.362773074480    -0.664098167905     0.000410160834    12.000000000000
      Gh(C)           1.888450074480    -0.361009167905     0.000273160834    12.000000000000
      Gh(O)           1.046641074480    -1.257663167905    -0.000143839166    15.994914619570
      Gh(O)           1.591940074480     0.925398832095     0.000499160834    15.994914619570
      Gh(H)           0.596776074480     1.032605832095     0.000375160834     1.007825032230
      Gh(C)           4.282151074480     0.546388832095    -0.000535839166    12.000000000000
      Gh(H)           5.321670074480     0.222935832095    -0.000385839166     1.007825032230
      Gh(H)           4.115325074480     1.164685832095    -0.879645839166     1.007825032230
      Gh(H)           4.115456074480     1.165964832095     0.877693160834     1.007825032230
      Gh(H)           3.539480074480    -1.298606167905     0.870282160834     1.007825032230
      Gh(H)           3.539420074480    -1.299999167905    -0.868442839166     1.007825032230
         C           -3.362774925520     0.664096832095    -0.000245839166    12.000000000000
         C           -1.888450925520     0.361010832095    -0.000346839166    12.000000000000
         O           -1.046640925520     1.257664832095     0.000154160834    15.994914619570
         O           -1.591938925520    -0.925397167905    -0.000484839166    15.994914619570
         H           -0.596775925520    -1.032604167905    -0.000343839166     1.007825032230
         C           -4.282149925520    -0.546392167905     0.000398160834    12.000000000000
         H           -4.115252925520    -1.164965167905     0.879300160834     1.007825032230
         H           -5.321669925520    -0.222943167905     0.000431160834     1.007825032230
         H           -4.115522925520    -1.165693167905    -0.878037839166     1.007825032230
         H           -3.539353925520     1.299711832095     0.868834160834     1.007825032230
         H           -3.539553925520     1.298889832095    -0.869890839166     1.007825032230

  Running in c1 symmetry.

  Rotational constants: A =      0.14102  B =      0.01538  C =      0.01401 [cm^-1]
  Rotational constants: A =   4227.67984  B =    461.13549  C =    420.04070 [MHz]
  Nuclear repulsion =  179.066693416177515

  Charge       = 0
  Multiplicity = 1
  Electrons    = 40
  Nalpha       = 20
  Nbeta        = 20

  ==> Algorithm <==

  SCF Algorithm Type is DF.
  DIIS enabled.
  MOM disabled.
  Fractional occupation disabled.
  Guess Type is SAD.
  Energy threshold   = 1.00e-08
  Density threshold  = 1.00e-08
  Integral threshold = 0.00e+00

  ==> Primary Basis <==

  Basis Set: JUN-CC-PVTZ
    Blend: JUN-CC-PVTZ
    Number of shells: 202
    Number of basis function: 558
    Number of Cartesian functions: 630
    Spherical Harmonics?: true
    Max angular momentum: 3

   => Loading Basis Set <=

    Name: (JUN-CC-PVTZ AUX)
    Role: JKFIT
    Keyword: DF_BASIS_SCF
    atoms 1-2, 6, 12-13, 17  entry C          line   152 file /home/r08543048/miniconda3/share/psi4/basis/jun-cc-pvtz-jkfit.gbs 
    atoms 3-4, 14-15         entry O          line   272 file /home/r08543048/miniconda3/share/psi4/basis/jun-cc-pvtz-jkfit.gbs 
    atoms 5, 7-11, 16, 18-22 entry H          line    70 file /home/r08543048/miniconda3/share/psi4/basis/jun-cc-pvtz-jkfit.gbs 

  ==> Pre-Iterations <==

   -------------------------------------------------------
    Irrep   Nso     Nmo     Nalpha   Nbeta   Ndocc  Nsocc
   -------------------------------------------------------
     A        558     558       0       0       0       0
   -------------------------------------------------------
    Total     558     558      20      20      20       0
   -------------------------------------------------------

  ==> Integral Setup <==

  ==> DiskDFJK: Density-Fitted J/K Matrices <==

    J tasked:                  Yes
    K tasked:                  Yes
    wK tasked:                  No
    OpenMP threads:              1
    Integrals threads:           1
    Memory [MiB]:            15735
    Algorithm:                Core
    Integral Cache:           LOAD
    Schwarz Cutoff:          1E-12
    Fitting Condition:       1E-10

   => Auxiliary Basis Set <=

  Basis Set: (JUN-CC-PVTZ AUX)
    Blend: JUN-CC-PVTZ-JKFIT
    Number of shells: 410
    Number of basis function: 1310
    Number of Cartesian functions: 1580
    Spherical Harmonics?: true
    Max angular momentum: 4

  Minimum eigenvalue in the overlap matrix is 2.8253280484E-05.
  Using Symmetric Orthogonalization.

  SCF Guess: Superposition of Atomic Densities via on-the-fly atomic UHF.

  ==> Iterations <==

                           Total Energy        Delta E     RMS |[F,P]|

   @DF-RHF iter SAD:  -266.06104060424286   -2.66061e+02   0.00000e+00 
   @DF-RHF iter   1:  -266.74430155822023   -6.83261e-01   1.16816e-03 DIIS
   @DF-RHF iter   2:  -266.89340480046218   -1.49103e-01   6.89116e-04 DIIS
   @DF-RHF iter   3:  -266.94308754252472   -4.96827e-02   1.18731e-04 DIIS
   @DF-RHF iter   4:  -266.94582474939085   -2.73721e-03   5.75265e-05 DIIS
   @DF-RHF iter   5:  -266.94643751388389   -6.12764e-04   1.19734e-05 DIIS
   @DF-RHF iter   6:  -266.94648276081722   -4.52469e-05   5.87048e-06 DIIS
   @DF-RHF iter   7:  -266.94649192831298   -9.16750e-06   2.03045e-06 DIIS
   @DF-RHF iter   8:  -266.94649397410336   -2.04579e-06   6.67943e-07 DIIS
   @DF-RHF iter   9:  -266.94649421392796   -2.39825e-07   1.63314e-07 DIIS
   @DF-RHF iter  10:  -266.94649422588060   -1.19526e-08   5.07233e-08 DIIS
   @DF-RHF iter  11:  -266.94649422665304   -7.72445e-10   1.35995e-08 DIIS
   @DF-RHF iter  12:  -266.94649422671313   -6.00835e-11   3.29111e-09 DIIS
  Energy and wave function converged.


  ==> Post-Iterations <==

    Orbital Energies [Eh]
    ---------------------

    Doubly Occupied:                                                      

       1A    -20.626665     2A    -20.538703     3A    -11.386040  
       4A    -11.246972     5A    -11.226340     6A     -1.470735  
       7A     -1.348627     8A     -1.068818     9A     -0.910094  
      10A     -0.825168    11A     -0.704517    12A     -0.670983  
      13A     -0.664380    14A     -0.597595    15A     -0.585696  
      16A     -0.552609    17A     -0.525176    18A     -0.519316  
      19A     -0.464839    20A     -0.443130  

    Virtual:                                                              

      21A      0.031698    22A      0.044636    23A      0.051607  
      24A      0.060365    25A      0.063401    26A      0.064777  
      27A      0.074352    28A      0.085196    29A      0.093404  
      30A      0.098645    31A      0.102546    32A      0.104131  
      33A      0.109747    34A      0.112846    35A      0.114419  
      36A      0.130445    37A      0.138207    38A      0.141492  
      39A      0.150230    40A      0.155733    41A      0.167758  
      42A      0.170512    43A      0.177094    44A      0.182936  
      45A      0.188123    46A      0.196012    47A      0.207475  
      48A      0.210312    49A      0.214031    50A      0.215327  
      51A      0.231482    52A      0.233668    53A      0.239108  
      54A      0.254880    55A      0.257060    56A      0.264446  
      57A      0.270612    58A      0.278550    59A      0.286839  
      60A      0.293184    61A      0.299810    62A      0.305292  
      63A      0.305877    64A      0.310395    65A      0.314861  
      66A      0.320439    67A      0.330843    68A      0.338798  
      69A      0.340988    70A      0.350098    71A      0.359534  
      72A      0.363388    73A      0.364121    74A      0.374863  
      75A      0.380445    76A      0.382294    77A      0.393961  
      78A      0.407407    79A      0.408259    80A      0.411649  
      81A      0.424403    82A      0.428535    83A      0.437812  
      84A      0.441363    85A      0.444345    86A      0.460283  
      87A      0.461061    88A      0.468310    89A      0.477585  
      90A      0.481203    91A      0.494132    92A      0.501842  
      93A      0.509158    94A      0.509876    95A      0.519215  
      96A      0.528519    97A      0.532141    98A      0.537092  
      99A      0.554604   100A      0.554915   101A      0.561009  
     102A      0.561971   103A      0.568607   104A      0.572572  
     105A      0.585786   106A      0.603546   107A      0.619678  
     108A      0.620558   109A      0.630664   110A      0.639973  
     111A      0.643724   112A      0.662177   113A      0.670467  
     114A      0.681384   115A      0.693057   116A      0.699557  
     117A      0.702414   118A      0.712034   119A      0.720102  
     120A      0.723405   121A      0.734071   122A      0.740520  
     123A      0.759084   124A      0.761477   125A      0.771284  
     126A      0.781419   127A      0.785667   128A      0.787352  
     129A      0.807402   130A      0.817936   131A      0.832032  
     132A      0.844239   133A      0.852233   134A      0.866091  
     135A      0.866434   136A      0.870462   137A      0.875645  
     138A      0.886372   139A      0.899702   140A      0.905862  
     141A      0.914581   142A      0.914716   143A      0.942058  
     144A      0.952934   145A      0.958174   146A      0.969454  
     147A      0.986029   148A      0.991460   149A      1.010341  
     150A      1.016783   151A      1.023919   152A      1.040516  
     153A      1.047982   154A      1.050497   155A      1.052764  
     156A      1.059103   157A      1.061771   158A      1.083490  
     159A      1.085928   160A      1.092053   161A      1.106319  
     162A      1.132160   163A      1.138235   164A      1.142913  
     165A      1.153542   166A      1.167444   167A      1.190263  
     168A      1.201868   169A      1.212280   170A      1.215584  
     171A      1.233535   172A      1.234100   173A      1.243894  
     174A      1.251047   175A      1.260658   176A      1.263743  
     177A      1.284750   178A      1.286061   179A      1.290558  
     180A      1.314254   181A      1.325282   182A      1.329663  
     183A      1.343965   184A      1.344128   185A      1.354901  
     186A      1.365627   187A      1.376767   188A      1.386936  
     189A      1.407209   190A      1.408969   191A      1.417825  
     192A      1.425220   193A      1.427291   194A      1.433954  
     195A      1.455933   196A      1.466431   197A      1.471877  
     198A      1.497937   199A      1.506359   200A      1.522242  
     201A      1.528985   202A      1.530357   203A      1.547251  
     204A      1.550790   205A      1.568767   206A      1.568884  
     207A      1.586738   208A      1.593870   209A      1.609154  
     210A      1.612816   211A      1.623295   212A      1.637368  
     213A      1.639265   214A      1.669451   215A      1.671142  
     216A      1.673690   217A      1.698111   218A      1.700206  
     219A      1.736245   220A      1.750992   221A      1.764665  
     222A      1.783669   223A      1.786317   224A      1.815158  
     225A      1.817163   226A      1.829625   227A      1.850245  
     228A      1.855100   229A      1.865647   230A      1.892187  
     231A      1.901950   232A      1.909276   233A      1.921789  
     234A      1.931206   235A      1.943113   236A      1.972436  
     237A      1.982750   238A      2.017034   239A      2.019179  
     240A      2.046989   241A      2.086287   242A      2.100098  
     243A      2.128480   244A      2.156134   245A      2.164138  
     246A      2.180951   247A      2.213640   248A      2.222666  
     249A      2.272267   250A      2.277633   251A      2.331687  
     252A      2.339772   253A      2.359261   254A      2.387975  
     255A      2.411121   256A      2.414872   257A      2.423178  
     258A      2.463458   259A      2.499992   260A      2.518935  
     261A      2.532921   262A      2.574067   263A      2.608608  
     264A      2.618840   265A      2.634042   266A      2.651783  
     267A      2.674488   268A      2.710018   269A      2.769588  
     270A      2.773656   271A      2.787619   272A      2.810031  
     273A      2.848888   274A      2.855498   275A      2.866213  
     276A      2.890219   277A      2.922739   278A      2.925684  
     279A      2.942875   280A      2.972361   281A      3.011680  
     282A      3.013139   283A      3.019333   284A      3.028854  
     285A      3.042143   286A      3.042802   287A      3.048343  
     288A      3.077660   289A      3.108344   290A      3.124859  
     291A      3.127733   292A      3.155631   293A      3.199216  
     294A      3.232474   295A      3.234616   296A      3.265758  
     297A      3.286719   298A      3.326433   299A      3.372771  
     300A      3.383914   301A      3.386507   302A      3.413636  
     303A      3.421491   304A      3.428111   305A      3.436621  
     306A      3.467758   307A      3.487551   308A      3.500062  
     309A      3.523988   310A      3.540933   311A      3.545683  
     312A      3.554830   313A      3.561677   314A      3.581194  
     315A      3.584351   316A      3.603680   317A      3.612327  
     318A      3.626374   319A      3.632008   320A      3.652537  
     321A      3.668004   322A      3.674131   323A      3.692083  
     324A      3.703434   325A      3.712656   326A      3.728205  
     327A      3.731933   328A      3.748790   329A      3.755872  
     330A      3.774722   331A      3.787356   332A      3.794791  
     333A      3.803822   334A      3.827012   335A      3.848014  
     336A      3.857604   337A      3.870032   338A      3.889983  
     339A      3.890843   340A      3.893400   341A      3.913605  
     342A      3.918348   343A      3.930832   344A      3.947949  
     345A      3.986774   346A      4.002023   347A      4.023225  
     348A      4.027327   349A      4.037483   350A      4.070562  
     351A      4.097424   352A      4.097479   353A      4.106118  
     354A      4.159174   355A      4.165797   356A      4.177196  
     357A      4.189572   358A      4.200688   359A      4.219436  
     360A      4.219588   361A      4.236031   362A      4.271627  
     363A      4.312198   364A      4.312463   365A      4.315709  
     366A      4.325903   367A      4.345937   368A      4.355752  
     369A      4.358298   370A      4.376845   371A      4.385729  
     372A      4.414494   373A      4.432808   374A      4.450154  
     375A      4.452806   376A      4.460685   377A      4.475182  
     378A      4.477924   379A      4.490678   380A      4.511799  
     381A      4.519905   382A      4.526751   383A      4.533226  
     384A      4.595483   385A      4.610962   386A      4.618480  
     387A      4.628236   388A      4.632336   389A      4.653120  
     390A      4.665745   391A      4.675765   392A      4.683262  
     393A      4.690493   394A      4.701064   395A      4.706420  
     396A      4.732875   397A      4.745319   398A      4.746180  
     399A      4.762659   400A      4.777298   401A      4.789686  
     402A      4.799828   403A      4.803457   404A      4.809020  
     405A      4.828202   406A      4.855617   407A      4.864413  
     408A      4.866924   409A      4.885636   410A      4.888172  
     411A      4.910490   412A      4.910577   413A      4.928154  
     414A      4.938915   415A      4.967594   416A      4.973341  
     417A      4.988987   418A      4.995552   419A      5.010821  
     420A      5.024666   421A      5.040723   422A      5.043293  
     423A      5.082068   424A      5.097019   425A      5.126721  
     426A      5.126788   427A      5.145277   428A      5.155982  
     429A      5.219782   430A      5.230519   431A      5.244668  
     432A      5.265573   433A      5.271396   434A      5.279312  
     435A      5.306929   436A      5.317777   437A      5.333931  
     438A      5.350701   439A      5.361588   440A      5.397642  
     441A      5.448342   442A      5.451173   443A      5.473547  
     444A      5.554613   445A      5.597730   446A      5.610453  
     447A      5.623112   448A      5.632543   449A      5.660088  
     450A      5.678178   451A      5.702406   452A      5.722683  
     453A      5.736473   454A      5.738884   455A      5.743824  
     456A      5.776274   457A      5.810667   458A      5.845925  
     459A      5.861001   460A      5.887092   461A      5.894617  
     462A      5.919412   463A      5.927492   464A      5.980103  
     465A      5.999701   466A      6.038667   467A      6.062118  
     468A      6.092942   469A      6.108473   470A      6.217537  
     471A      6.225861   472A      6.303670   473A      6.317023  
     474A      6.336048   475A      6.394982   476A      6.421178  
     477A      6.441976   478A      6.452897   479A      6.468463  
     480A      6.505573   481A      6.514434   482A      6.526126  
     483A      6.561113   484A      6.579685   485A      6.673819  
     486A      6.686094   487A      6.740816   488A      6.794036  
     489A      6.805456   490A      6.900960   491A      6.908932  
     492A      6.958461   493A      6.968575   494A      7.045025  
     495A      7.087745   496A      7.170098   497A      7.194906  
     498A      7.196359   499A      7.244783   500A      7.282087  
     501A      7.312435   502A      7.393591   503A      7.441280  
     504A      7.445880   505A      7.452412   506A      7.481932  
     507A      7.516182   508A      7.587664   509A      7.662792  
     510A      7.680411   511A      7.698725   512A      7.755483  
     513A      7.787738   514A      7.819669   515A      7.835139  
     516A      7.898205   517A      7.920492   518A      7.982799  
     519A      7.985816   520A      8.044846   521A      8.054126  
     522A      8.171907   523A      8.262029   524A      8.305364  
     525A      8.520071   526A      8.698160   527A      8.921295  
     528A      9.246942   529A      9.502929   530A      9.682185  
     531A      9.767130   532A      9.774679   533A      9.891500  
     534A      9.893956   535A      9.899958   536A      9.972349  
     537A      9.978160   538A     10.268100   539A     10.452207  
     540A     10.593210   541A     11.065203   542A     11.443549  
     543A     11.559903   544A     11.624628   545A     11.956544  
     546A     12.542532   547A     13.196382   548A     13.635289  
     549A     13.818487   550A     14.043208   551A     14.311695  
     552A     14.583159   553A     14.713021   554A     43.392680  
     555A     45.088910   556A     45.841001   557A     61.272374  
     558A     62.035213  

    Final Occupation by Irrep:
              A 
    DOCC [    20 ]

  @DF-RHF Final Energy:  -266.94649422671313

   => Energetics <=

    Nuclear Repulsion Energy =            179.0666934161775146
    One-Electron Energy =                -719.2735693374386301
    Two-Electron Energy =                 273.2603816945480162
    Total Energy =                       -266.9464942267131278

Computation Completed


Properties will be evaluated at   0.000000,   0.000000,   0.000000 [a0]

Properties computed using the SCF density matrix

  Nuclear Dipole Moment: [e a0]
     X:  -188.0977      Y:     8.5847      Z:    -0.0067

  Electronic Dipole Moment: [e a0]
     X:   187.5164      Y:    -9.3258      Z:     0.0063

  Dipole Moment: [e a0]
     X:    -0.5813      Y:    -0.7411      Z:    -0.0003     Total:     0.9418

  Dipole Moment: [D]
     X:    -1.4775      Y:    -1.8836      Z:    -0.0008     Total:     2.3939


*** tstop() called on r282 at Thu Sep  9 11:24:06 2021
Module time:
	user time   =      61.16 seconds =       1.02 minutes
	system time =       0.94 seconds =       0.02 minutes
	total time  =         62 seconds =       1.03 minutes
Total time:
	user time   =     209.62 seconds =       3.49 minutes
	system time =       3.78 seconds =       0.06 minutes
	total time  =        214 seconds =       3.57 minutes
  Constructing Basis Sets for SAPT...

   => Loading Basis Set <=

    Name: (JUN-CC-PVTZ AUX)
    Role: RIFIT
    Keyword: DF_BASIS_SAPT
    atoms 1-2, 6, 12-13, 17  entry C          line   132 file /home/r08543048/miniconda3/share/psi4/basis/jun-cc-pvtz-ri.gbs 
    atoms 3-4, 14-15         entry O          line   244 file /home/r08543048/miniconda3/share/psi4/basis/jun-cc-pvtz-ri.gbs 
    atoms 5, 7-11, 16, 18-22 entry H          line    30 file /home/r08543048/miniconda3/share/psi4/basis/jun-cc-pvtz-ri.gbs 


  //>>>>>>>>>>>>>>>>>>>>>>>>>>>>>>>>>>>//
  //               SAPT0               //
  //<<<<<<<<<<<<<<<<<<<<<<<<<<<<<<<<<<<//


*** tstart() called on r282
*** at Thu Sep  9 11:24:06 2021

        SAPT0  
    Ed Hohenstein
     6 June 2009

      Orbital Information
  --------------------------
    NSO        =       558
    NMO        =       558
    NRI        =      1330
    NOCC A     =        20
    NOCC B     =        20
    FOCC A     =         5
    FOCC B     =         5
    NVIR A     =       538
    NVIR B     =       538

    Elst10,r            =    -0.057876784635 [Eh]
    Exch10              =     0.059905597788 [Eh]
    Exch10 (S^2)        =     0.058780583241 [Eh]

    Iter     Energy [mEh]          dE [mEh]         Residual      Time [s]
       1     -14.09469140      14.094691400      26.720524605             2
       2     -16.26140045       2.166709052      14.518989806             3
       3     -17.66915075       1.407750296       3.477621042             5
       4     -17.55224063      -0.116910116       1.381577767             6
       5     -17.52526120      -0.026979436       0.419386652             7
       6     -17.53874135       0.013480151       0.178747790             9
       7     -17.54167272       0.002931371       0.045832022            10
       8     -17.54079727      -0.000875443       0.016254702            12
       9     -17.54045262      -0.000344653       0.004102754            13
      10     -17.54054762       0.000095001       0.000937169            15
      11     -17.54055131       0.000003690       0.000208705            16
      12     -17.54054778      -0.000003532       0.000061836            18
      13     -17.54054735      -0.000000428       0.000015869            19
      14     -17.54054766       0.000000309       0.000003056            21
      15     -17.54054765      -0.000000012       0.000000742            22

    CHF Iterations converged


    Iter     Energy [mEh]          dE [mEh]         Residual      Time [s]
       1     -14.09467792      14.094677917      26.720550059             1
       2     -16.26137833       2.166700416      14.518991289             3
       3     -17.66913243       1.407754101       3.477621920             4
       4     -17.55222258      -0.116909853       1.381579191             6
       5     -17.52524309      -0.026979496       0.419386531             7
       6     -17.53872330       0.013480219       0.178747156             9
       7     -17.54165465       0.002931342       0.045831776            10
       8     -17.54077920      -0.000875449       0.016254682            12
       9     -17.54043455      -0.000344649       0.004102760            13
      10     -17.54052955       0.000095001       0.000937169            14
      11     -17.54053324       0.000003690       0.000208706            16
      12     -17.54052971      -0.000003532       0.000061836            17
      13     -17.54052928      -0.000000428       0.000015869            19
      14     -17.54052959       0.000000309       0.000003056            20
      15     -17.54052958      -0.000000012       0.000000742            22

    CHF Iterations converged

    Ind20,r (A<-B)      =    -0.017540547649 [Eh]
    Ind20,r (B<-A)      =    -0.017540529576 [Eh]
    Ind20,r             =    -0.035081077225 [Eh]
    Exch-Ind20,r (A<-B) =     0.009232510979 [Eh]
    Exch-Ind20,r (B<-A) =     0.009232483791 [Eh]
    Exch-Ind20,r        =     0.018464994770 [Eh]
    Disp20              =    -0.018035305141 [Eh]
    Disp20 (SS)         =    -0.009017652571 [Eh]
    Disp20 (OS)         =    -0.009017652571 [Eh]
    Exch-Disp20         =     0.003745535229 [Eh]
    Exch-Disp20 (SS)    =     0.002351594337 [Eh]
    Exch-Disp20 (OS)    =     0.001393940892 [Eh]

    SAPT Results 
  --------------------------------------------------------------------------------------------------------
    Electrostatics                -57.87678464 [mEh]     -36.31823067 [kcal/mol]    -151.95547712 [kJ/mol]
      Elst10,r                    -57.87678464 [mEh]     -36.31823067 [kcal/mol]    -151.95547712 [kJ/mol]

    Exchange                       59.90559779 [mEh]      37.59133014 [kcal/mol]     157.28212532 [kJ/mol]
      Exch10                       59.90559779 [mEh]      37.59133014 [kcal/mol]     157.28212532 [kJ/mol]
      Exch10(S^2)                  58.78058324 [mEh]      36.88537286 [kcal/mol]     154.32840004 [kJ/mol]

    Induction                     -29.38981603 [mEh]     -18.44238799 [kcal/mol]     -77.16295135 [kJ/mol]
      Ind20,r                     -35.08107722 [mEh]     -22.01370831 [kcal/mol]     -92.10535556 [kJ/mol]
      Exch-Ind20,r                 18.46499477 [mEh]      11.58695915 [kcal/mol]      48.47983709 [kJ/mol]
      delta HF,r (2)              -12.77373357 [mEh]      -8.01563883 [kcal/mol]     -33.53743287 [kJ/mol]

    Dispersion                    -14.28976991 [mEh]      -8.96696600 [kcal/mol]     -37.51778574 [kJ/mol]
      Disp20                      -18.03530514 [mEh]     -11.31732484 [kcal/mol]     -47.35168712 [kJ/mol]
      Exch-Disp20                   3.74553523 [mEh]       2.35035884 [kcal/mol]       9.83390139 [kJ/mol]
      Disp20 (SS)                  -9.01765257 [mEh]      -5.65866242 [kcal/mol]     -23.67584356 [kJ/mol]
      Disp20 (OS)                  -9.01765257 [mEh]      -5.65866242 [kcal/mol]     -23.67584356 [kJ/mol]
      Exch-Disp20 (SS)              2.35159434 [mEh]       1.47564772 [kcal/mol]       6.17411008 [kJ/mol]
      Exch-Disp20 (OS)              1.39394089 [mEh]       0.87471112 [kcal/mol]       3.65979131 [kJ/mol]

  Total HF                        -27.36100287 [mEh]     -17.16928852 [kcal/mol]     -71.83630315 [kJ/mol]
  Total SAPT0                     -41.65077279 [mEh]     -26.13625451 [kcal/mol]    -109.35408888 [kJ/mol]

  Special recipe for scaled SAPT0 (see Manual):
    Electrostatics sSAPT0         -57.87678464 [mEh]     -36.31823067 [kcal/mol]    -151.95547712 [kJ/mol]
    Exchange sSAPT0                59.90559779 [mEh]      37.59133014 [kcal/mol]     157.28212532 [kJ/mol]
    Induction sSAPT0              -28.30917802 [mEh]     -17.76427741 [kcal/mol]     -74.32573666 [kJ/mol]
    Dispersion sSAPT0             -14.07056770 [mEh]      -8.82941453 [kcal/mol]     -36.94227041 [kJ/mol]
  Total sSAPT0                    -40.35093257 [mEh]     -25.32059246 [kcal/mol]    -105.94135887 [kJ/mol]
  --------------------------------------------------------------------------------------------------------

*** tstop() called on r282 at Thu Sep  9 11:27:00 2021
Module time:
	user time   =     148.28 seconds =       2.47 minutes
	system time =      25.71 seconds =       0.43 minutes
	total time  =        174 seconds =       2.90 minutes
Total time:
	user time   =     358.04 seconds =       5.97 minutes
	system time =      29.49 seconds =       0.49 minutes
	total time  =        388 seconds =       6.47 minutes

    Psi4 stopped on: Thursday, 09 September 2021 11:27AM
    Psi4 wall time for execution: 0:06:27.96

*** Psi4 exiting successfully. Buy a developer a beer!
