
    -----------------------------------------------------------------------
          Psi4: An Open-Source Ab Initio Electronic Structure Package
                               Psi4 1.3.2 release

                         Git: Rev {HEAD} ecbda83 


    R. M. Parrish, L. A. Burns, D. G. A. Smith, A. C. Simmonett,
    A. E. DePrince III, E. G. Hohenstein, U. Bozkaya, A. Yu. Sokolov,
    R. Di Remigio, R. M. Richard, J. F. Gonthier, A. M. James,
    H. R. McAlexander, A. Kumar, M. Saitow, X. Wang, B. P. Pritchard,
    P. Verma, H. F. Schaefer III, K. Patkowski, R. A. King, E. F. Valeev,
    F. A. Evangelista, J. M. Turney, T. D. Crawford, and C. D. Sherrill,
    J. Chem. Theory Comput. 13(7) pp 3185--3197 (2017).
    (doi: 10.1021/acs.jctc.7b00174)


                         Additional Contributions by
    P. Kraus, H. Kruse, M. H. Lechner, M. C. Schieber, R. A. Shaw,
    A. Alenaizan, R. Galvelis, Z. L. Glick, S. Lehtola, and J. P. Misiewicz

    -----------------------------------------------------------------------


    Psi4 started on: Saturday, 11 September 2021 01:44AM

    Process ID: 57466
    Host:       r282
    PSIDATADIR: /home/r08543048/miniconda3/share/psi4
    Memory:     500.0 MiB
    Threads:    1
    
  ==> Input File <==

--------------------------------------------------------------------------
# Any line starting with the # character is a comment line
#! Sample  computation

memory 22 gb

molecule Dimer {
0 1
 C -2.341147   -0.811983    0.002646
 O -1.383859   -1.155307   -0.670079
 N -2.570650    0.455727    0.427301
 H -3.375029    0.673134    0.985901
 H -1.915288    1.183274    0.193601
 H -3.118967   -1.516321    0.332296










    
    
 --
0 1
 C    0.565478    1.965478   -0.344701
 H   -0.096162    1.584463   -1.125265
 H    1.355508    2.532988   -0.838211
 H    0.006694    2.664656    0.281349
 C    1.147725    0.813373    0.464930
 H    1.814485    1.204043    1.238913
 H    0.346458    0.277578    0.980229
 C    1.906350   -0.176213   -0.409205
 H    2.728157    0.343364   -0.910339
 H    1.231738   -0.539964   -1.186948
 C    2.446072   -1.354762    0.390223
 H    1.626684   -1.903664    0.855759
 H    2.997005   -2.050263   -0.242385
 H    3.117271   -1.016284    1.181263





units angstrom

no_reorient
symmetry c1
}

set globals{
  basis jun-cc-pvtz
}

energy('sapt0')


--------------------------------------------------------------------------

  Memory set to  20.489 GiB by Python driver.

  //>>>>>>>>>>>>>>>>>>>>>>>>>>>>>>>>>>>//
  //              Dimer HF             //
  //<<<<<<<<<<<<<<<<<<<<<<<<<<<<<<<<<<<//


*** tstart() called on r282
*** at Sat Sep 11 01:44:19 2021

   => Loading Basis Set <=

    Name: JUN-CC-PVTZ
    Role: ORBITAL
    Keyword: BASIS
    atoms 1, 7, 11, 14, 17               entry C          line   217 file /home/r08543048/miniconda3/share/psi4/basis/jun-cc-pvtz.gbs 
    atoms 2                              entry O          line   305 file /home/r08543048/miniconda3/share/psi4/basis/jun-cc-pvtz.gbs 
    atoms 3                              entry N          line   261 file /home/r08543048/miniconda3/share/psi4/basis/jun-cc-pvtz.gbs 
    atoms 4-6, 8-10, 12-13, 15-16, 18-20 entry H          line    36 file /home/r08543048/miniconda3/share/psi4/basis/jun-cc-pvtz.gbs 


         ---------------------------------------------------------
                                   SCF
               by Justin Turney, Rob Parrish, Andy Simmonett
                          and Daniel G. A. Smith
                              RHF Reference
                        1 Threads,  20980 MiB Core
         ---------------------------------------------------------

  ==> Geometry <==

    Molecular point group: c1
    Full point group: C1

    Geometry (in Angstrom), charge = 0, multiplicity = 1:

       Center              X                  Y                   Z               Mass       
    ------------   -----------------  -----------------  -----------------  -----------------
         C           -2.276482942487    -0.778977639296     0.019404398435    12.000000000000
         O           -1.319194942487    -1.122301639296    -0.653320601565    15.994914619570
         N           -2.505985942487     0.488732360704     0.444059398435    14.003074004430
         H           -3.310364942487     0.706139360704     1.002659398435     1.007825032230
         H           -1.850623942487     1.216279360704     0.210359398435     1.007825032230
         H           -3.054302942487    -1.483315639296     0.349054398435     1.007825032230
         C            0.630142057513     1.998483360704    -0.327942601565    12.000000000000
         H           -0.031497942487     1.617468360704    -1.108506601565     1.007825032230
         H            1.420172057513     2.565993360704    -0.821452601565     1.007825032230
         H            0.071358057513     2.697661360704     0.298107398435     1.007825032230
         C            1.212389057513     0.846378360704     0.481688398435    12.000000000000
         H            1.879149057513     1.237048360704     1.255671398435     1.007825032230
         H            0.411122057513     0.310583360704     0.996987398435     1.007825032230
         C            1.971014057513    -0.143207639296    -0.392446601565    12.000000000000
         H            2.792821057513     0.376369360704    -0.893580601565     1.007825032230
         H            1.296402057513    -0.506958639296    -1.170189601565     1.007825032230
         C            2.510736057513    -1.321756639296     0.406981398435    12.000000000000
         H            1.691348057513    -1.870658639296     0.872517398435     1.007825032230
         H            3.061669057513    -2.017257639296    -0.225626601565     1.007825032230
         H            3.181935057513    -0.983278639296     1.198021398435     1.007825032230

  Running in c1 symmetry.

  Rotational constants: A =      0.10062  B =      0.04090  C =      0.03214 [cm^-1]
  Rotational constants: A =   3016.66090  B =   1226.06319  C =    963.64191 [MHz]
  Nuclear repulsion =  309.101410001280158

  Charge       = 0
  Multiplicity = 1
  Electrons    = 58
  Nalpha       = 29
  Nbeta        = 29

  ==> Algorithm <==

  SCF Algorithm Type is DF.
  DIIS enabled.
  MOM disabled.
  Fractional occupation disabled.
  Guess Type is SAD.
  Energy threshold   = 1.00e-08
  Density threshold  = 1.00e-08
  Integral threshold = 0.00e+00

  ==> Primary Basis <==

  Basis Set: JUN-CC-PVTZ
    Blend: JUN-CC-PVTZ
    Number of shells: 169
    Number of basis function: 455
    Number of Cartesian functions: 510
    Spherical Harmonics?: true
    Max angular momentum: 3

   => Loading Basis Set <=

    Name: (JUN-CC-PVTZ AUX)
    Role: JKFIT
    Keyword: DF_BASIS_SCF
    atoms 1, 7, 11, 14, 17               entry C          line   152 file /home/r08543048/miniconda3/share/psi4/basis/jun-cc-pvtz-jkfit.gbs 
    atoms 2                              entry O          line   272 file /home/r08543048/miniconda3/share/psi4/basis/jun-cc-pvtz-jkfit.gbs 
    atoms 3                              entry N          line   212 file /home/r08543048/miniconda3/share/psi4/basis/jun-cc-pvtz-jkfit.gbs 
    atoms 4-6, 8-10, 12-13, 15-16, 18-20 entry H          line    70 file /home/r08543048/miniconda3/share/psi4/basis/jun-cc-pvtz-jkfit.gbs 

  ==> Pre-Iterations <==

   -------------------------------------------------------
    Irrep   Nso     Nmo     Nalpha   Nbeta   Ndocc  Nsocc
   -------------------------------------------------------
     A        455     455       0       0       0       0
   -------------------------------------------------------
    Total     455     455      29      29      29       0
   -------------------------------------------------------

  ==> Integral Setup <==

  ==> DiskDFJK: Density-Fitted J/K Matrices <==

    J tasked:                  Yes
    K tasked:                  Yes
    wK tasked:                  No
    OpenMP threads:              1
    Integrals threads:           1
    Memory [MiB]:            15735
    Algorithm:                Core
    Integral Cache:           SAVE
    Schwarz Cutoff:          1E-12
    Fitting Condition:       1E-10

   => Auxiliary Basis Set <=

  Basis Set: (JUN-CC-PVTZ AUX)
    Blend: JUN-CC-PVTZ-JKFIT
    Number of shells: 333
    Number of basis function: 1055
    Number of Cartesian functions: 1267
    Spherical Harmonics?: true
    Max angular momentum: 4

  Minimum eigenvalue in the overlap matrix is 5.2197539807E-05.
  Using Symmetric Orthogonalization.

  SCF Guess: Superposition of Atomic Densities via on-the-fly atomic UHF.

  ==> Iterations <==

                           Total Energy        Delta E     RMS |[F,P]|

   @DF-RHF iter SAD:  -325.14081180224122   -3.25141e+02   0.00000e+00 
   @DF-RHF iter   1:  -326.02954881418896   -8.88737e-01   1.72236e-03 DIIS
   @DF-RHF iter   2:  -326.27036591849514   -2.40817e-01   1.00345e-03 DIIS
   @DF-RHF iter   3:  -326.35289652243171   -8.25306e-02   1.96320e-04 DIIS
   @DF-RHF iter   4:  -326.35730103916018   -4.40452e-03   8.62966e-05 DIIS
   @DF-RHF iter   5:  -326.35817699524415   -8.75956e-04   1.38128e-05 DIIS
   @DF-RHF iter   6:  -326.35822277698441   -4.57817e-05   6.01340e-06 DIIS
   @DF-RHF iter   7:  -326.35823030896580   -7.53198e-06   2.22650e-06 DIIS
   @DF-RHF iter   8:  -326.35823198484383   -1.67588e-06   8.16539e-07 DIIS
   @DF-RHF iter   9:  -326.35823221371544   -2.28872e-07   2.37032e-07 DIIS
   @DF-RHF iter  10:  -326.35823222875547   -1.50400e-08   8.05488e-08 DIIS
   @DF-RHF iter  11:  -326.35823223040961   -1.65414e-09   2.52615e-08 DIIS
   @DF-RHF iter  12:  -326.35823223055013   -1.40517e-10   6.08849e-09 DIIS
  Energy and wave function converged.


  ==> Post-Iterations <==

    Orbital Energies [Eh]
    ---------------------

    Doubly Occupied:                                                      

       1A    -20.531786     2A    -15.597673     3A    -11.359881  
       4A    -11.207605     5A    -11.204579     6A    -11.197384  
       7A    -11.194193     8A     -1.385595     9A     -1.223378  
      10A     -1.062017    11A     -0.972644    12A     -0.856460  
      13A     -0.851826    14A     -0.776889    15A     -0.754680  
      16A     -0.678863    17A     -0.632801    18A     -0.608673  
      19A     -0.578908    20A     -0.572467    21A     -0.566987  
      22A     -0.558952    23A     -0.506453    24A     -0.486087  
      25A     -0.459432    26A     -0.450845    27A     -0.446571  
      28A     -0.438701    29A     -0.424085  

    Virtual:                                                              

      30A      0.044831    31A      0.053759    32A      0.059077  
      33A      0.064502    34A      0.074974    35A      0.079702  
      36A      0.085061    37A      0.092402    38A      0.096066  
      39A      0.112791    40A      0.116373    41A      0.124136  
      42A      0.128213    43A      0.135488    44A      0.138438  
      45A      0.144847    46A      0.159174    47A      0.169344  
      48A      0.179130    49A      0.189642    50A      0.192743  
      51A      0.201617    52A      0.206067    53A      0.222642  
      54A      0.230709    55A      0.246162    56A      0.248342  
      57A      0.256798    58A      0.270559    59A      0.272710  
      60A      0.278536    61A      0.287347    62A      0.299444  
      63A      0.303370    64A      0.308071    65A      0.316087  
      66A      0.324981    67A      0.326321    68A      0.329168  
      69A      0.338648    70A      0.346134    71A      0.352843  
      72A      0.361115    73A      0.371700    74A      0.377085  
      75A      0.387774    76A      0.392780    77A      0.395247  
      78A      0.402322    79A      0.412839    80A      0.421366  
      81A      0.426628    82A      0.430615    83A      0.435107  
      84A      0.454630    85A      0.461296    86A      0.472169  
      87A      0.480295    88A      0.493812    89A      0.504349  
      90A      0.514408    91A      0.524959    92A      0.535162  
      93A      0.541168    94A      0.543729    95A      0.555060  
      96A      0.561708    97A      0.565258    98A      0.571675  
      99A      0.582698   100A      0.592951   101A      0.598098  
     102A      0.603725   103A      0.609339   104A      0.627565  
     105A      0.637804   106A      0.648800   107A      0.665037  
     108A      0.682500   109A      0.697835   110A      0.708366  
     111A      0.724926   112A      0.730438   113A      0.742731  
     114A      0.747083   115A      0.763225   116A      0.773208  
     117A      0.786836   118A      0.799500   119A      0.804157  
     120A      0.819281   121A      0.822039   122A      0.834191  
     123A      0.835891   124A      0.851607   125A      0.857859  
     126A      0.861142   127A      0.867581   128A      0.878308  
     129A      0.883363   130A      0.895078   131A      0.902743  
     132A      0.917257   133A      0.929308   134A      0.933025  
     135A      0.963769   136A      0.972444   137A      0.974540  
     138A      0.984012   139A      0.992550   140A      1.014390  
     141A      1.025696   142A      1.038068   143A      1.052141  
     144A      1.064716   145A      1.069499   146A      1.088105  
     147A      1.094731   148A      1.114090   149A      1.126516  
     150A      1.166512   151A      1.177763   152A      1.192716  
     153A      1.204961   154A      1.227859   155A      1.232446  
     156A      1.242130   157A      1.251147   158A      1.269862  
     159A      1.273654   160A      1.301370   161A      1.311571  
     162A      1.314628   163A      1.332860   164A      1.343407  
     165A      1.359532   166A      1.364883   167A      1.367620  
     168A      1.377184   169A      1.386034   170A      1.394879  
     171A      1.407599   172A      1.413096   173A      1.426676  
     174A      1.433034   175A      1.463415   176A      1.476158  
     177A      1.485238   178A      1.497027   179A      1.511249  
     180A      1.522606   181A      1.535530   182A      1.542644  
     183A      1.568490   184A      1.570072   185A      1.579328  
     186A      1.589626   187A      1.605124   188A      1.607603  
     189A      1.633380   190A      1.640726   191A      1.647458  
     192A      1.662724   193A      1.664655   194A      1.693582  
     195A      1.717076   196A      1.720802   197A      1.734045  
     198A      1.747274   199A      1.763148   200A      1.771384  
     201A      1.785824   202A      1.810616   203A      1.821101  
     204A      1.850188   205A      1.879886   206A      1.885339  
     207A      1.901931   208A      1.916205   209A      1.925841  
     210A      1.946104   211A      1.949959   212A      1.986043  
     213A      2.020496   214A      2.033665   215A      2.064840  
     216A      2.078226   217A      2.119546   218A      2.157380  
     219A      2.179094   220A      2.229696   221A      2.325569  
     222A      2.385584   223A      2.450105   224A      2.511671  
     225A      2.621876   226A      2.700061   227A      2.725390  
     228A      2.753752   229A      2.761312   230A      2.798800  
     231A      2.830060   232A      2.853874   233A      2.872495  
     234A      2.876433   235A      2.894676   236A      2.907716  
     237A      2.925098   238A      2.940964   239A      2.964886  
     240A      2.982509   241A      3.013916   242A      3.033928  
     243A      3.053338   244A      3.093422   245A      3.125805  
     246A      3.131444   247A      3.142886   248A      3.144891  
     249A      3.149785   250A      3.155282   251A      3.162648  
     252A      3.175966   253A      3.186208   254A      3.204545  
     255A      3.241556   256A      3.268602   257A      3.282922  
     258A      3.291090   259A      3.308895   260A      3.319175  
     261A      3.339890   262A      3.351802   263A      3.356342  
     264A      3.368221   265A      3.398400   266A      3.401565  
     267A      3.416820   268A      3.424393   269A      3.429190  
     270A      3.445034   271A      3.452219   272A      3.456869  
     273A      3.467157   274A      3.475573   275A      3.483714  
     276A      3.500596   277A      3.501512   278A      3.508508  
     279A      3.521419   280A      3.529851   281A      3.546064  
     282A      3.559794   283A      3.564894   284A      3.577902  
     285A      3.594181   286A      3.604167   287A      3.611173  
     288A      3.625225   289A      3.646266   290A      3.657286  
     291A      3.663988   292A      3.674073   293A      3.677115  
     294A      3.686846   295A      3.705936   296A      3.742986  
     297A      3.755444   298A      3.772989   299A      3.800595  
     300A      3.819019   301A      3.831305   302A      3.839071  
     303A      3.843136   304A      3.863808   305A      3.869244  
     306A      3.885227   307A      3.908433   308A      3.931595  
     309A      3.948675   310A      3.960304   311A      3.966182  
     312A      3.971071   313A      3.974301   314A      3.988822  
     315A      3.997985   316A      4.016747   317A      4.055390  
     318A      4.078538   319A      4.095766   320A      4.152361  
     321A      4.172101   322A      4.182024   323A      4.191029  
     324A      4.208163   325A      4.222425   326A      4.250700  
     327A      4.254133   328A      4.261986   329A      4.274293  
     330A      4.284145   331A      4.294025   332A      4.303118  
     333A      4.314579   334A      4.317437   335A      4.347334  
     336A      4.363210   337A      4.374799   338A      4.392474  
     339A      4.393041   340A      4.398173   341A      4.415887  
     342A      4.438873   343A      4.454666   344A      4.460403  
     345A      4.481443   346A      4.489709   347A      4.494386  
     348A      4.518599   349A      4.524551   350A      4.537267  
     351A      4.551501   352A      4.555501   353A      4.560063  
     354A      4.578832   355A      4.601686   356A      4.632418  
     357A      4.642542   358A      4.648745   359A      4.657404  
     360A      4.662860   361A      4.687194   362A      4.699813  
     363A      4.722164   364A      4.737647   365A      4.751470  
     366A      4.777170   367A      4.808314   368A      4.843957  
     369A      4.856271   370A      4.860724   371A      4.911968  
     372A      4.926607   373A      4.958022   374A      5.003547  
     375A      5.024786   376A      5.048456   377A      5.083987  
     378A      5.124526   379A      5.131850   380A      5.145263  
     381A      5.162941   382A      5.170033   383A      5.194083  
     384A      5.230044   385A      5.250407   386A      5.263706  
     387A      5.268765   388A      5.276359   389A      5.287910  
     390A      5.305133   391A      5.320156   392A      5.326600  
     393A      5.360761   394A      5.369172   395A      5.385739  
     396A      5.436088   397A      5.440235   398A      5.471776  
     399A      5.477014   400A      5.496293   401A      5.525370  
     402A      5.545294   403A      5.573791   404A      5.634535  
     405A      5.669431   406A      5.682076   407A      5.714166  
     408A      5.736141   409A      5.750724   410A      5.763092  
     411A      5.785670   412A      5.802909   413A      5.810568  
     414A      5.856517   415A      5.891978   416A      5.911727  
     417A      5.917370   418A      5.938312   419A      5.962913  
     420A      5.972815   421A      5.985981   422A      5.999620  
     423A      6.006479   424A      6.036412   425A      6.069232  
     426A      6.095052   427A      6.163705   428A      6.200985  
     429A      6.257254   430A      6.356157   431A      6.497558  
     432A      6.504897   433A      6.532063   434A      6.554700  
     435A      6.569966   436A      6.601433   437A      6.637179  
     438A      6.676220   439A      6.800610   440A      6.930658  
     441A      7.148533   442A      7.260948   443A      7.277725  
     444A      7.392919   445A      7.477850   446A      7.602402  
     447A      7.754627   448A      7.818284   449A     12.653621  
     450A     13.739580   451A     14.216511   452A     14.313358  
     453A     14.543851   454A     14.777998   455A     15.668589  

    Final Occupation by Irrep:
              A 
    DOCC [    29 ]

  @DF-RHF Final Energy:  -326.35823223055013

   => Energetics <=

    Nuclear Repulsion Energy =            309.1014100012801578
    One-Electron Energy =               -1055.7464548431807998
    Two-Electron Energy =                 420.2868126113505696
    Total Energy =                       -326.3582322305501293

Computation Completed


Properties will be evaluated at   0.000000,   0.000000,   0.000000 [a0]

Properties computed using the SCF density matrix

  Nuclear Dipole Moment: [e a0]
     X:     7.0874      Y:     3.6175      Z:     1.8368

  Electronic Dipole Moment: [e a0]
     X:    -8.2470      Y:    -2.8678      Z:    -1.0167

  Dipole Moment: [e a0]
     X:    -1.1595      Y:     0.7497      Z:     0.8201     Total:     1.6059

  Dipole Moment: [D]
     X:    -2.9472      Y:     1.9056      Z:     2.0845     Total:     4.0819


*** tstop() called on r282 at Sat Sep 11 01:45:06 2021
Module time:
	user time   =      45.88 seconds =       0.76 minutes
	system time =       1.08 seconds =       0.02 minutes
	total time  =         47 seconds =       0.78 minutes
Total time:
	user time   =      45.88 seconds =       0.76 minutes
	system time =       1.08 seconds =       0.02 minutes
	total time  =         47 seconds =       0.78 minutes

  //>>>>>>>>>>>>>>>>>>>>>>>>>>>>>>>>>>>//
  //            Monomer A HF           //
  //<<<<<<<<<<<<<<<<<<<<<<<<<<<<<<<<<<<//


*** tstart() called on r282
*** at Sat Sep 11 01:45:06 2021

   => Loading Basis Set <=

    Name: JUN-CC-PVTZ
    Role: ORBITAL
    Keyword: BASIS
    atoms 1, 7, 11, 14, 17               entry C          line   217 file /home/r08543048/miniconda3/share/psi4/basis/jun-cc-pvtz.gbs 
    atoms 2                              entry O          line   305 file /home/r08543048/miniconda3/share/psi4/basis/jun-cc-pvtz.gbs 
    atoms 3                              entry N          line   261 file /home/r08543048/miniconda3/share/psi4/basis/jun-cc-pvtz.gbs 
    atoms 4-6, 8-10, 12-13, 15-16, 18-20 entry H          line    36 file /home/r08543048/miniconda3/share/psi4/basis/jun-cc-pvtz.gbs 


         ---------------------------------------------------------
                                   SCF
               by Justin Turney, Rob Parrish, Andy Simmonett
                          and Daniel G. A. Smith
                              RHF Reference
                        1 Threads,  20980 MiB Core
         ---------------------------------------------------------

  ==> Geometry <==

    Molecular point group: c1
    Full point group: C1

    Geometry (in Angstrom), charge = 0, multiplicity = 1:

       Center              X                  Y                   Z               Mass       
    ------------   -----------------  -----------------  -----------------  -----------------
         C           -2.276482942487    -0.778977639296     0.019404398435    12.000000000000
         O           -1.319194942487    -1.122301639296    -0.653320601565    15.994914619570
         N           -2.505985942487     0.488732360704     0.444059398435    14.003074004430
         H           -3.310364942487     0.706139360704     1.002659398435     1.007825032230
         H           -1.850623942487     1.216279360704     0.210359398435     1.007825032230
         H           -3.054302942487    -1.483315639296     0.349054398435     1.007825032230
      Gh(C)           0.630142057513     1.998483360704    -0.327942601565    12.000000000000
      Gh(H)          -0.031497942487     1.617468360704    -1.108506601565     1.007825032230
      Gh(H)           1.420172057513     2.565993360704    -0.821452601565     1.007825032230
      Gh(H)           0.071358057513     2.697661360704     0.298107398435     1.007825032230
      Gh(C)           1.212389057513     0.846378360704     0.481688398435    12.000000000000
      Gh(H)           1.879149057513     1.237048360704     1.255671398435     1.007825032230
      Gh(H)           0.411122057513     0.310583360704     0.996987398435     1.007825032230
      Gh(C)           1.971014057513    -0.143207639296    -0.392446601565    12.000000000000
      Gh(H)           2.792821057513     0.376369360704    -0.893580601565     1.007825032230
      Gh(H)           1.296402057513    -0.506958639296    -1.170189601565     1.007825032230
      Gh(C)           2.510736057513    -1.321756639296     0.406981398435    12.000000000000
      Gh(H)           1.691348057513    -1.870658639296     0.872517398435     1.007825032230
      Gh(H)           3.061669057513    -2.017257639296    -0.225626601565     1.007825032230
      Gh(H)           3.181935057513    -0.983278639296     1.198021398435     1.007825032230

  Running in c1 symmetry.

  Rotational constants: A =      0.10062  B =      0.04090  C =      0.03214 [cm^-1]
  Rotational constants: A =   3016.66090  B =   1226.06319  C =    963.64191 [MHz]
  Nuclear repulsion =   71.147431509801493

  Charge       = 0
  Multiplicity = 1
  Electrons    = 24
  Nalpha       = 12
  Nbeta        = 12

  ==> Algorithm <==

  SCF Algorithm Type is DF.
  DIIS enabled.
  MOM disabled.
  Fractional occupation disabled.
  Guess Type is SAD.
  Energy threshold   = 1.00e-08
  Density threshold  = 1.00e-08
  Integral threshold = 0.00e+00

  ==> Primary Basis <==

  Basis Set: JUN-CC-PVTZ
    Blend: JUN-CC-PVTZ
    Number of shells: 169
    Number of basis function: 455
    Number of Cartesian functions: 510
    Spherical Harmonics?: true
    Max angular momentum: 3

   => Loading Basis Set <=

    Name: (JUN-CC-PVTZ AUX)
    Role: JKFIT
    Keyword: DF_BASIS_SCF
    atoms 1, 7, 11, 14, 17               entry C          line   152 file /home/r08543048/miniconda3/share/psi4/basis/jun-cc-pvtz-jkfit.gbs 
    atoms 2                              entry O          line   272 file /home/r08543048/miniconda3/share/psi4/basis/jun-cc-pvtz-jkfit.gbs 
    atoms 3                              entry N          line   212 file /home/r08543048/miniconda3/share/psi4/basis/jun-cc-pvtz-jkfit.gbs 
    atoms 4-6, 8-10, 12-13, 15-16, 18-20 entry H          line    70 file /home/r08543048/miniconda3/share/psi4/basis/jun-cc-pvtz-jkfit.gbs 

  ==> Pre-Iterations <==

   -------------------------------------------------------
    Irrep   Nso     Nmo     Nalpha   Nbeta   Ndocc  Nsocc
   -------------------------------------------------------
     A        455     455       0       0       0       0
   -------------------------------------------------------
    Total     455     455      12      12      12       0
   -------------------------------------------------------

  ==> Integral Setup <==

  ==> DiskDFJK: Density-Fitted J/K Matrices <==

    J tasked:                  Yes
    K tasked:                  Yes
    wK tasked:                  No
    OpenMP threads:              1
    Integrals threads:           1
    Memory [MiB]:            15735
    Algorithm:                Core
    Integral Cache:           LOAD
    Schwarz Cutoff:          1E-12
    Fitting Condition:       1E-10

   => Auxiliary Basis Set <=

  Basis Set: (JUN-CC-PVTZ AUX)
    Blend: JUN-CC-PVTZ-JKFIT
    Number of shells: 333
    Number of basis function: 1055
    Number of Cartesian functions: 1267
    Spherical Harmonics?: true
    Max angular momentum: 4

  Minimum eigenvalue in the overlap matrix is 5.2197539807E-05.
  Using Symmetric Orthogonalization.

  SCF Guess: Superposition of Atomic Densities via on-the-fly atomic UHF.

  ==> Iterations <==

                           Total Energy        Delta E     RMS |[F,P]|

   @DF-RHF iter SAD:  -168.21777790321428   -1.68218e+02   0.00000e+00 
   @DF-RHF iter   1:  -168.88154137547193   -6.63763e-01   1.17408e-03 DIIS
   @DF-RHF iter   2:  -168.95798177705450   -7.64404e-02   8.08439e-04 DIIS
   @DF-RHF iter   3:  -169.00214825909757   -4.41665e-02   1.13094e-04 DIIS
   @DF-RHF iter   4:  -169.00355877950426   -1.41052e-03   4.89765e-05 DIIS
   @DF-RHF iter   5:  -169.00385398459008   -2.95205e-04   1.00572e-05 DIIS
   @DF-RHF iter   6:  -169.00388509703151   -3.11124e-05   4.85850e-06 DIIS
   @DF-RHF iter   7:  -169.00389174562719   -6.64860e-06   1.96126e-06 DIIS
   @DF-RHF iter   8:  -169.00389289326139   -1.14763e-06   5.64153e-07 DIIS
   @DF-RHF iter   9:  -169.00389298989191   -9.66305e-08   1.51678e-07 DIIS
   @DF-RHF iter  10:  -169.00389299703298   -7.14107e-09   3.77463e-08 DIIS
   @DF-RHF iter  11:  -169.00389299739777   -3.64793e-10   6.76089e-09 DIIS
  Energy and wave function converged.


  ==> Post-Iterations <==

    Orbital Energies [Eh]
    ---------------------

    Doubly Occupied:                                                      

       1A    -20.530447     2A    -15.598133     3A    -11.358273  
       4A     -1.383132     5A     -1.222821     6A     -0.854812  
       7A     -0.753724     8A     -0.676623     9A     -0.608883  
      10A     -0.571724    11A     -0.437793    12A     -0.422795  

    Virtual:                                                              

      13A      0.031738    14A      0.045813    15A      0.050146  
      16A      0.059649    17A      0.071087    18A      0.074992  
      19A      0.084392    20A      0.087378    21A      0.089747  
      22A      0.108438    23A      0.115265    24A      0.116835  
      25A      0.122268    26A      0.127313    27A      0.133459  
      28A      0.136795    29A      0.141959    30A      0.152321  
      31A      0.163342    32A      0.175144    33A      0.176924  
      34A      0.179411    35A      0.186368    36A      0.195310  
      37A      0.218557    38A      0.234256    39A      0.245004  
      40A      0.248914    41A      0.259722    42A      0.265286  
      43A      0.271415    44A      0.281744    45A      0.289340  
      46A      0.290949    47A      0.303464    48A      0.310014  
      49A      0.316194    50A      0.323811    51A      0.336350  
      52A      0.343355    53A      0.347317    54A      0.357811  
      55A      0.362117    56A      0.368802    57A      0.375474  
      58A      0.381070    59A      0.386874    60A      0.397843  
      61A      0.414475    62A      0.423165    63A      0.425565  
      64A      0.432767    65A      0.444062    66A      0.450350  
      67A      0.468431    68A      0.471155    69A      0.481458  
      70A      0.487105    71A      0.500694    72A      0.510672  
      73A      0.513718    74A      0.527396    75A      0.530611  
      76A      0.543676    77A      0.551726    78A      0.562490  
      79A      0.576509    80A      0.577577    81A      0.587524  
      82A      0.590968    83A      0.603128    84A      0.608091  
      85A      0.612858    86A      0.623712    87A      0.628574  
      88A      0.640486    89A      0.648525    90A      0.649725  
      91A      0.662723    92A      0.668521    93A      0.679809  
      94A      0.681502    95A      0.692834    96A      0.708438  
      97A      0.716978    98A      0.728907    99A      0.737052  
     100A      0.744144   101A      0.766749   102A      0.793570  
     103A      0.800121   104A      0.820444   105A      0.825095  
     106A      0.865360   107A      0.876753   108A      0.881968  
     109A      0.888085   110A      0.904682   111A      0.973083  
     112A      0.995888   113A      1.013442   114A      1.022773  
     115A      1.036564   116A      1.054504   117A      1.062786  
     118A      1.068766   119A      1.081995   120A      1.097035  
     121A      1.114670   122A      1.126556   123A      1.129660  
     124A      1.138590   125A      1.150421   126A      1.177685  
     127A      1.189304   128A      1.197993   129A      1.212826  
     130A      1.223591   131A      1.226845   132A      1.236109  
     133A      1.239896   134A      1.244324   135A      1.259906  
     136A      1.270819   137A      1.277622   138A      1.284163  
     139A      1.296060   140A      1.305944   141A      1.312687  
     142A      1.321410   143A      1.327448   144A      1.340581  
     145A      1.344387   146A      1.356601   147A      1.364839  
     148A      1.370223   149A      1.383757   150A      1.393382  
     151A      1.404646   152A      1.410345   153A      1.412958  
     154A      1.416770   155A      1.442456   156A      1.460365  
     157A      1.471522   158A      1.478599   159A      1.489205  
     160A      1.502071   161A      1.513334   162A      1.530200  
     163A      1.548424   164A      1.558123   165A      1.564046  
     166A      1.580145   167A      1.585735   168A      1.598031  
     169A      1.604909   170A      1.620027   171A      1.627026  
     172A      1.631806   173A      1.654558   174A      1.666328  
     175A      1.678568   176A      1.718116   177A      1.724221  
     178A      1.743148   179A      1.753108   180A      1.759965  
     181A      1.786362   182A      1.819048   183A      1.834354  
     184A      1.841112   185A      1.871778   186A      1.880454  
     187A      1.888842   188A      1.920942   189A      1.948234  
     190A      1.960626   191A      1.991524   192A      2.009022  
     193A      2.072902   194A      2.093549   195A      2.103136  
     196A      2.115581   197A      2.136211   198A      2.157224  
     199A      2.173708   200A      2.187248   201A      2.214057  
     202A      2.238296   203A      2.255734   204A      2.305033  
     205A      2.333040   206A      2.341055   207A      2.353742  
     208A      2.384335   209A      2.397401   210A      2.424833  
     211A      2.440452   212A      2.467707   213A      2.485201  
     214A      2.500090   215A      2.528198   216A      2.539531  
     217A      2.627000   218A      2.640592   219A      2.662123  
     220A      2.670690   221A      2.686682   222A      2.729658  
     223A      2.759503   224A      2.864156   225A      3.034483  
     226A      3.135826   227A      3.169539   228A      3.171243  
     229A      3.257901   230A      3.344433   231A      3.386869  
     232A      3.426322   233A      3.450440   234A      3.457573  
     235A      3.481349   236A      3.494327   237A      3.516194  
     238A      3.536708   239A      3.543333   240A      3.560661  
     241A      3.567799   242A      3.583303   243A      3.594634  
     244A      3.601371   245A      3.615284   246A      3.620929  
     247A      3.624170   248A      3.636888   249A      3.642804  
     250A      3.661928   251A      3.668814   252A      3.700080  
     253A      3.735333   254A      3.773750   255A      3.789695  
     256A      3.797038   257A      3.812222   258A      3.814951  
     259A      3.821481   260A      3.837721   261A      3.847848  
     262A      3.859663   263A      3.875019   264A      3.879828  
     265A      3.898381   266A      3.906030   267A      3.907786  
     268A      3.927900   269A      3.938411   270A      3.942467  
     271A      3.955018   272A      3.961656   273A      3.988088  
     274A      4.013226   275A      4.056192   276A      4.070324  
     277A      4.087864   278A      4.100922   279A      4.128857  
     280A      4.140106   281A      4.161382   282A      4.181121  
     283A      4.184406   284A      4.200726   285A      4.239657  
     286A      4.245230   287A      4.265864   288A      4.273245  
     289A      4.288211   290A      4.300330   291A      4.314411  
     292A      4.344628   293A      4.364837   294A      4.381842  
     295A      4.393290   296A      4.403455   297A      4.424334  
     298A      4.438709   299A      4.464081   300A      4.475237  
     301A      4.491591   302A      4.493572   303A      4.512425  
     304A      4.517669   305A      4.536675   306A      4.557559  
     307A      4.562022   308A      4.571169   309A      4.594582  
     310A      4.599365   311A      4.607570   312A      4.617483  
     313A      4.630756   314A      4.638231   315A      4.656504  
     316A      4.665435   317A      4.680024   318A      4.701433  
     319A      4.710622   320A      4.724093   321A      4.735340  
     322A      4.743096   323A      4.756028   324A      4.774221  
     325A      4.779775   326A      4.782077   327A      4.793882  
     328A      4.804101   329A      4.819465   330A      4.829727  
     331A      4.848417   332A      4.857576   333A      4.875523  
     334A      4.893193   335A      4.903482   336A      4.906490  
     337A      4.911945   338A      4.928928   339A      4.942392  
     340A      4.946398   341A      4.957491   342A      4.980479  
     343A      4.985009   344A      4.990784   345A      4.994408  
     346A      5.004621   347A      5.025604   348A      5.029496  
     349A      5.053007   350A      5.054387   351A      5.068036  
     352A      5.080170   353A      5.132404   354A      5.163792  
     355A      5.179768   356A      5.187584   357A      5.198209  
     358A      5.217837   359A      5.230246   360A      5.253410  
     361A      5.266092   362A      5.269791   363A      5.288557  
     364A      5.292715   365A      5.350193   366A      5.367430  
     367A      5.388681   368A      5.449553   369A      5.477874  
     370A      5.488509   371A      5.505140   372A      5.515736  
     373A      5.521274   374A      5.567493   375A      5.582344  
     376A      5.645396   377A      5.674612   378A      5.692340  
     379A      5.719059   380A      5.739185   381A      5.795670  
     382A      5.816948   383A      5.833344   384A      5.895217  
     385A      5.911352   386A      5.947174   387A      5.962312  
     388A      5.988254   389A      6.028570   390A      6.032871  
     391A      6.041485   392A      6.063196   393A      6.076490  
     394A      6.096258   395A      6.147041   396A      6.164198  
     397A      6.257402   398A      6.266882   399A      6.321098  
     400A      6.338534   401A      6.364981   402A      6.383509  
     403A      6.398896   404A      6.401991   405A      6.431572  
     406A      6.480691   407A      6.484524   408A      6.525327  
     409A      6.559881   410A      6.565698   411A      6.672033  
     412A      6.756777   413A      6.799645   414A      6.802816  
     415A      6.826542   416A      6.928075   417A      6.954960  
     418A      7.068266   419A      7.149421   420A      7.260889  
     421A      7.276697   422A      7.286462   423A      7.391828  
     424A      7.475878   425A      7.515079   426A      7.545980  
     427A      7.575969   428A      7.587835   429A      7.600466  
     430A      7.631816   431A      7.671857   432A      7.720160  
     433A      7.738887   434A      7.765493   435A      7.812968  
     436A      7.820761   437A      7.831290   438A      7.847950  
     439A      7.939283   440A      7.951063   441A      8.120904  
     442A      8.287015   443A      8.457300   444A      8.647974  
     445A      9.615976   446A      9.706772   447A      9.898583  
     448A      9.978903   449A     12.667650   450A     14.222862  
     451A     15.668520   452A     43.884506   453A     45.453173  
     454A     45.562127   455A     45.911623  

    Final Occupation by Irrep:
              A 
    DOCC [    12 ]

  @DF-RHF Final Energy:  -169.00389299739777

   => Energetics <=

    Nuclear Repulsion Energy =             71.1474315098014927
    One-Electron Energy =                -371.4643276005573966
    Two-Electron Energy =                 131.3130030933581338
    Total Energy =                       -169.0038929973977702

Computation Completed


Properties will be evaluated at   0.000000,   0.000000,   0.000000 [a0]

Properties computed using the SCF density matrix

  Nuclear Dipole Moment: [e a0]
     X:   -94.4290      Y:   -18.5043      Z:    -0.8308

  Electronic Dipole Moment: [e a0]
     X:    93.2934      Y:    19.3788      Z:     1.7469

  Dipole Moment: [e a0]
     X:    -1.1355      Y:     0.8745      Z:     0.9161     Total:     1.7010

  Dipole Moment: [D]
     X:    -2.8862      Y:     2.2227      Z:     2.3285     Total:     4.3234


*** tstop() called on r282 at Sat Sep 11 01:45:31 2021
Module time:
	user time   =      24.40 seconds =       0.41 minutes
	system time =       0.42 seconds =       0.01 minutes
	total time  =         25 seconds =       0.42 minutes
Total time:
	user time   =      70.28 seconds =       1.17 minutes
	system time =       1.51 seconds =       0.03 minutes
	total time  =         72 seconds =       1.20 minutes

  //>>>>>>>>>>>>>>>>>>>>>>>>>>>>>>>>>>>//
  //            Monomer B HF           //
  //<<<<<<<<<<<<<<<<<<<<<<<<<<<<<<<<<<<//


*** tstart() called on r282
*** at Sat Sep 11 01:45:31 2021

   => Loading Basis Set <=

    Name: JUN-CC-PVTZ
    Role: ORBITAL
    Keyword: BASIS
    atoms 1, 7, 11, 14, 17               entry C          line   217 file /home/r08543048/miniconda3/share/psi4/basis/jun-cc-pvtz.gbs 
    atoms 2                              entry O          line   305 file /home/r08543048/miniconda3/share/psi4/basis/jun-cc-pvtz.gbs 
    atoms 3                              entry N          line   261 file /home/r08543048/miniconda3/share/psi4/basis/jun-cc-pvtz.gbs 
    atoms 4-6, 8-10, 12-13, 15-16, 18-20 entry H          line    36 file /home/r08543048/miniconda3/share/psi4/basis/jun-cc-pvtz.gbs 


         ---------------------------------------------------------
                                   SCF
               by Justin Turney, Rob Parrish, Andy Simmonett
                          and Daniel G. A. Smith
                              RHF Reference
                        1 Threads,  20980 MiB Core
         ---------------------------------------------------------

  ==> Geometry <==

    Molecular point group: c1
    Full point group: C1

    Geometry (in Angstrom), charge = 0, multiplicity = 1:

       Center              X                  Y                   Z               Mass       
    ------------   -----------------  -----------------  -----------------  -----------------
      Gh(C)          -2.276482942487    -0.778977639296     0.019404398435    12.000000000000
      Gh(O)          -1.319194942487    -1.122301639296    -0.653320601565    15.994914619570
      Gh(N)          -2.505985942487     0.488732360704     0.444059398435    14.003074004430
      Gh(H)          -3.310364942487     0.706139360704     1.002659398435     1.007825032230
      Gh(H)          -1.850623942487     1.216279360704     0.210359398435     1.007825032230
      Gh(H)          -3.054302942487    -1.483315639296     0.349054398435     1.007825032230
         C            0.630142057513     1.998483360704    -0.327942601565    12.000000000000
         H           -0.031497942487     1.617468360704    -1.108506601565     1.007825032230
         H            1.420172057513     2.565993360704    -0.821452601565     1.007825032230
         H            0.071358057513     2.697661360704     0.298107398435     1.007825032230
         C            1.212389057513     0.846378360704     0.481688398435    12.000000000000
         H            1.879149057513     1.237048360704     1.255671398435     1.007825032230
         H            0.411122057513     0.310583360704     0.996987398435     1.007825032230
         C            1.971014057513    -0.143207639296    -0.392446601565    12.000000000000
         H            2.792821057513     0.376369360704    -0.893580601565     1.007825032230
         H            1.296402057513    -0.506958639296    -1.170189601565     1.007825032230
         C            2.510736057513    -1.321756639296     0.406981398435    12.000000000000
         H            1.691348057513    -1.870658639296     0.872517398435     1.007825032230
         H            3.061669057513    -2.017257639296    -0.225626601565     1.007825032230
         H            3.181935057513    -0.983278639296     1.198021398435     1.007825032230

  Running in c1 symmetry.

  Rotational constants: A =      0.10062  B =      0.04090  C =      0.03214 [cm^-1]
  Rotational constants: A =   3016.66090  B =   1226.06319  C =    963.64191 [MHz]
  Nuclear repulsion =  131.190735953557038

  Charge       = 0
  Multiplicity = 1
  Electrons    = 34
  Nalpha       = 17
  Nbeta        = 17

  ==> Algorithm <==

  SCF Algorithm Type is DF.
  DIIS enabled.
  MOM disabled.
  Fractional occupation disabled.
  Guess Type is SAD.
  Energy threshold   = 1.00e-08
  Density threshold  = 1.00e-08
  Integral threshold = 0.00e+00

  ==> Primary Basis <==

  Basis Set: JUN-CC-PVTZ
    Blend: JUN-CC-PVTZ
    Number of shells: 169
    Number of basis function: 455
    Number of Cartesian functions: 510
    Spherical Harmonics?: true
    Max angular momentum: 3

   => Loading Basis Set <=

    Name: (JUN-CC-PVTZ AUX)
    Role: JKFIT
    Keyword: DF_BASIS_SCF
    atoms 1, 7, 11, 14, 17               entry C          line   152 file /home/r08543048/miniconda3/share/psi4/basis/jun-cc-pvtz-jkfit.gbs 
    atoms 2                              entry O          line   272 file /home/r08543048/miniconda3/share/psi4/basis/jun-cc-pvtz-jkfit.gbs 
    atoms 3                              entry N          line   212 file /home/r08543048/miniconda3/share/psi4/basis/jun-cc-pvtz-jkfit.gbs 
    atoms 4-6, 8-10, 12-13, 15-16, 18-20 entry H          line    70 file /home/r08543048/miniconda3/share/psi4/basis/jun-cc-pvtz-jkfit.gbs 

  ==> Pre-Iterations <==

   -------------------------------------------------------
    Irrep   Nso     Nmo     Nalpha   Nbeta   Ndocc  Nsocc
   -------------------------------------------------------
     A        455     455       0       0       0       0
   -------------------------------------------------------
    Total     455     455      17      17      17       0
   -------------------------------------------------------

  ==> Integral Setup <==

  ==> DiskDFJK: Density-Fitted J/K Matrices <==

    J tasked:                  Yes
    K tasked:                  Yes
    wK tasked:                  No
    OpenMP threads:              1
    Integrals threads:           1
    Memory [MiB]:            15735
    Algorithm:                Core
    Integral Cache:           LOAD
    Schwarz Cutoff:          1E-12
    Fitting Condition:       1E-10

   => Auxiliary Basis Set <=

  Basis Set: (JUN-CC-PVTZ AUX)
    Blend: JUN-CC-PVTZ-JKFIT
    Number of shells: 333
    Number of basis function: 1055
    Number of Cartesian functions: 1267
    Spherical Harmonics?: true
    Max angular momentum: 4

  Minimum eigenvalue in the overlap matrix is 5.2197539807E-05.
  Using Symmetric Orthogonalization.

  SCF Guess: Superposition of Atomic Densities via on-the-fly atomic UHF.

  ==> Iterations <==

                           Total Energy        Delta E     RMS |[F,P]|

   @DF-RHF iter SAD:  -156.80064025312296   -1.56801e+02   0.00000e+00 
   @DF-RHF iter   1:  -157.14922262992238   -3.48582e-01   1.26823e-03 DIIS
   @DF-RHF iter   2:  -157.31583362741213   -1.66611e-01   5.89951e-04 DIIS
   @DF-RHF iter   3:  -157.35321092700480   -3.73773e-02   1.03889e-04 DIIS
   @DF-RHF iter   4:  -157.35560541390561   -2.39449e-03   2.41887e-05 DIIS
   @DF-RHF iter   5:  -157.35569687222900   -9.14583e-05   6.26487e-06 DIIS
   @DF-RHF iter   6:  -157.35570452455096   -7.65232e-06   7.83703e-07 DIIS
   @DF-RHF iter   7:  -157.35570470429104   -1.79740e-07   1.37916e-07 DIIS
   @DF-RHF iter   8:  -157.35570470926666   -4.97562e-09   3.08496e-08 DIIS
   @DF-RHF iter   9:  -157.35570470953454   -2.67875e-10   7.11243e-09 DIIS
  Energy and wave function converged.


  ==> Post-Iterations <==

    Orbital Energies [Eh]
    ---------------------

    Doubly Occupied:                                                      

       1A    -11.213143     2A    -11.212510     3A    -11.207786  
       4A    -11.207368     5A     -1.072020     6A     -0.980008  
       7A     -0.859716     8A     -0.787246     9A     -0.640354  
      10A     -0.583882    11A     -0.575502    12A     -0.566938  
      13A     -0.513619    14A     -0.494215    15A     -0.468961  
      16A     -0.462819    17A     -0.455117  

    Virtual:                                                              

      18A      0.039616    19A      0.050585    20A      0.055298  
      21A      0.057179    22A      0.074006    23A      0.076806  
      24A      0.081560    25A      0.084991    26A      0.093426  
      27A      0.105228    28A      0.113142    29A      0.121154  
      30A      0.123624    31A      0.127832    32A      0.134944  
      33A      0.143908    34A      0.162508    35A      0.169086  
      36A      0.175962    37A      0.179659    38A      0.180897  
      39A      0.190245    40A      0.199726    41A      0.213301  
      42A      0.214872    43A      0.220236    44A      0.222579  
      45A      0.239412    46A      0.269463    47A      0.276539  
      48A      0.287254    49A      0.294632    50A      0.302777  
      51A      0.307528    52A      0.310415    53A      0.316489  
      54A      0.319891    55A      0.329624    56A      0.335767  
      57A      0.343897    58A      0.347133    59A      0.358579  
      60A      0.363698    61A      0.370227    62A      0.373089  
      63A      0.379478    64A      0.390130    65A      0.395254  
      66A      0.404673    67A      0.411285    68A      0.415011  
      69A      0.420730    70A      0.429207    71A      0.440876  
      72A      0.447090    73A      0.458274    74A      0.459357  
      75A      0.468791    76A      0.478266    77A      0.487287  
      78A      0.501167    79A      0.512977    80A      0.526342  
      81A      0.528313    82A      0.532189    83A      0.544471  
      84A      0.553695    85A      0.564306    86A      0.578308  
      87A      0.579842    88A      0.588418    89A      0.596396  
      90A      0.609856    91A      0.615328    92A      0.642038  
      93A      0.656537    94A      0.666975    95A      0.687979  
      96A      0.699067    97A      0.711940    98A      0.722288  
      99A      0.732544   100A      0.737258   101A      0.751182  
     102A      0.764793   103A      0.781128   104A      0.794472  
     105A      0.801815   106A      0.803890   107A      0.808872  
     108A      0.809214   109A      0.824517   110A      0.830968  
     111A      0.837476   112A      0.842161   113A      0.857380  
     114A      0.861388   115A      0.873676   116A      0.881200  
     117A      0.884898   118A      0.892726   119A      0.904162  
     120A      0.917352   121A      0.923430   122A      0.938059  
     123A      0.950856   124A      0.956906   125A      0.983495  
     126A      0.996922   127A      1.010913   128A      1.015565  
     129A      1.023194   130A      1.025259   131A      1.037645  
     132A      1.059807   133A      1.088947   134A      1.093492  
     135A      1.117687   136A      1.150702   137A      1.159045  
     138A      1.165239   139A      1.204251   140A      1.215829  
     141A      1.230609   142A      1.233612   143A      1.252022  
     144A      1.268107   145A      1.284249   146A      1.289698  
     147A      1.311732   148A      1.320037   149A      1.327217  
     150A      1.343121   151A      1.358323   152A      1.361209  
     153A      1.374588   154A      1.379957   155A      1.403395  
     156A      1.422138   157A      1.432542   158A      1.440681  
     159A      1.448447   160A      1.469025   161A      1.472692  
     162A      1.482010   163A      1.504910   164A      1.506808  
     165A      1.515884   166A      1.526148   167A      1.545197  
     168A      1.555141   169A      1.562772   170A      1.574987  
     171A      1.583083   172A      1.587985   173A      1.604664  
     174A      1.614683   175A      1.622632   176A      1.634366  
     177A      1.651278   178A      1.660185   179A      1.677701  
     180A      1.683140   181A      1.690424   182A      1.707916  
     183A      1.722818   184A      1.753704   185A      1.760801  
     186A      1.762860   187A      1.779836   188A      1.802256  
     189A      1.818392   190A      1.851471   191A      1.857432  
     192A      1.888176   193A      1.889556   194A      1.904360  
     195A      1.912644   196A      1.920514   197A      1.942163  
     198A      1.952956   199A      1.985552   200A      1.996607  
     201A      2.048551   202A      2.057834   203A      2.079685  
     204A      2.143821   205A      2.150465   206A      2.212051  
     207A      2.247984   208A      2.323464   209A      2.421081  
     210A      2.532052   211A      2.573851   212A      2.607682  
     213A      2.659004   214A      2.712232   215A      2.740233  
     216A      2.741143   217A      2.758856   218A      2.785376  
     219A      2.821851   220A      2.826479   221A      2.841011  
     222A      2.852356   223A      2.871906   224A      2.883805  
     225A      2.896740   226A      2.912930   227A      2.923510  
     228A      2.945241   229A      2.971632   230A      2.993804  
     231A      3.018917   232A      3.030074   233A      3.048173  
     234A      3.073855   235A      3.113849   236A      3.128056  
     237A      3.136510   238A      3.139143   239A      3.150107  
     240A      3.157637   241A      3.170615   242A      3.194629  
     243A      3.239472   244A      3.264718   245A      3.269041  
     246A      3.289880   247A      3.309018   248A      3.324911  
     249A      3.343483   250A      3.349320   251A      3.385909  
     252A      3.404504   253A      3.411582   254A      3.414049  
     255A      3.424449   256A      3.435380   257A      3.444888  
     258A      3.465929   259A      3.471675   260A      3.486961  
     261A      3.502380   262A      3.510092   263A      3.534876  
     264A      3.545181   265A      3.569745   266A      3.572169  
     267A      3.587681   268A      3.593468   269A      3.614684  
     270A      3.646498   271A      3.651588   272A      3.655180  
     273A      3.664496   274A      3.689633   275A      3.703336  
     276A      3.715128   277A      3.734170   278A      3.744697  
     279A      3.788370   280A      3.791876   281A      3.813036  
     282A      3.830003   283A      3.836717   284A      3.863169  
     285A      3.875628   286A      3.886176   287A      3.934587  
     288A      3.945290   289A      3.955017   290A      3.958412  
     291A      3.967125   292A      3.971453   293A      3.983704  
     294A      3.991931   295A      4.007923   296A      4.020539  
     297A      4.044406   298A      4.081353   299A      4.150519  
     300A      4.167954   301A      4.177026   302A      4.191950  
     303A      4.208275   304A      4.233466   305A      4.240468  
     306A      4.264763   307A      4.272074   308A      4.283655  
     309A      4.294445   310A      4.304015   311A      4.312835  
     312A      4.332272   313A      4.354549   314A      4.367456  
     315A      4.371523   316A      4.384495   317A      4.385589  
     318A      4.391793   319A      4.422467   320A      4.437831  
     321A      4.450847   322A      4.463713   323A      4.474451  
     324A      4.481398   325A      4.509424   326A      4.517228  
     327A      4.527331   328A      4.533816   329A      4.544406  
     330A      4.548853   331A      4.555268   332A      4.583457  
     333A      4.601831   334A      4.625236   335A      4.636265  
     336A      4.645503   337A      4.659772   338A      4.663005  
     339A      4.697914   340A      4.704730   341A      4.724226  
     342A      4.740096   343A      4.750802   344A      4.763924  
     345A      4.784736   346A      4.803408   347A      4.826665  
     348A      4.839520   349A      4.847503   350A      4.853406  
     351A      4.867783   352A      4.882706   353A      4.909143  
     354A      4.919670   355A      4.948816   356A      4.955909  
     357A      4.999163   358A      5.036257   359A      5.047257  
     360A      5.071632   361A      5.085175   362A      5.107924  
     363A      5.115844   364A      5.135067   365A      5.136024  
     366A      5.153442   367A      5.160773   368A      5.248397  
     369A      5.259946   370A      5.265865   371A      5.296609  
     372A      5.309179   373A      5.315564   374A      5.354054  
     375A      5.357322   376A      5.376244   377A      5.423042  
     378A      5.431368   379A      5.454049   380A      5.469143  
     381A      5.533968   382A      5.556043   383A      5.570126  
     384A      5.628406   385A      5.661173   386A      5.675794  
     387A      5.687234   388A      5.742566   389A      5.755012  
     390A      5.779961   391A      5.791541   392A      5.804166  
     393A      5.814256   394A      5.850205   395A      5.886432  
     396A      5.904810   397A      5.912341   398A      5.954595  
     399A      5.962465   400A      5.981952   401A      5.991355  
     402A      6.054035   403A      6.087527   404A      6.115199  
     405A      6.172504   406A      6.191802   407A      6.321459  
     408A      6.332960   409A      6.429987   410A      6.489008  
     411A      6.493873   412A      6.506710   413A      6.524973  
     414A      6.536631   415A      6.551515   416A      6.565081  
     417A      6.575718   418A      6.599537   419A      6.636697  
     420A      6.785142   421A      6.834922   422A      6.964042  
     423A      7.106031   424A      7.325446   425A      7.339426  
     426A      7.449236   427A      7.480115   428A      7.779569  
     429A      7.857342   430A      8.057914   431A      8.323383  
     432A      8.455675   433A      8.821828   434A      9.045060  
     435A      9.087681   436A      9.289738   437A      9.432404  
     438A      9.813421   439A      9.857810   440A      9.936563  
     441A     10.111709   442A     10.430010   443A     10.884990  
     444A     11.292519   445A     11.590838   446A     11.672144  
     447A     11.914296   448A     13.730831   449A     13.779053  
     450A     14.271475   451A     14.531168   452A     14.778598  
     453A     44.805111   454A     54.857470   455A     60.186768  

    Final Occupation by Irrep:
              A 
    DOCC [    17 ]

  @DF-RHF Final Energy:  -157.35570470953454

   => Energetics <=

    Nuclear Repulsion Energy =            131.1907359535570379
    One-Electron Energy =                -470.4904745908035011
    Two-Electron Energy =                 181.9440339277119563
    Total Energy =                       -157.3557047095345354

Computation Completed


Properties will be evaluated at   0.000000,   0.000000,   0.000000 [a0]

Properties computed using the SCF density matrix

  Nuclear Dipole Moment: [e a0]
     X:   101.5164      Y:    22.1218      Z:     2.6676

  Electronic Dipole Moment: [e a0]
     X:  -101.5137      Y:   -22.1228      Z:    -2.6685

  Dipole Moment: [e a0]
     X:     0.0027      Y:    -0.0010      Z:    -0.0009     Total:     0.0030

  Dipole Moment: [D]
     X:     0.0068      Y:    -0.0025      Z:    -0.0024     Total:     0.0077


*** tstop() called on r282 at Sat Sep 11 01:45:53 2021
Module time:
	user time   =      21.87 seconds =       0.36 minutes
	system time =       0.50 seconds =       0.01 minutes
	total time  =         22 seconds =       0.37 minutes
Total time:
	user time   =      92.16 seconds =       1.54 minutes
	system time =       2.01 seconds =       0.03 minutes
	total time  =         94 seconds =       1.57 minutes
  Constructing Basis Sets for SAPT...

   => Loading Basis Set <=

    Name: (JUN-CC-PVTZ AUX)
    Role: RIFIT
    Keyword: DF_BASIS_SAPT
    atoms 1, 7, 11, 14, 17               entry C          line   132 file /home/r08543048/miniconda3/share/psi4/basis/jun-cc-pvtz-ri.gbs 
    atoms 2                              entry O          line   244 file /home/r08543048/miniconda3/share/psi4/basis/jun-cc-pvtz-ri.gbs 
    atoms 3                              entry N          line   188 file /home/r08543048/miniconda3/share/psi4/basis/jun-cc-pvtz-ri.gbs 
    atoms 4-6, 8-10, 12-13, 15-16, 18-20 entry H          line    30 file /home/r08543048/miniconda3/share/psi4/basis/jun-cc-pvtz-ri.gbs 


  //>>>>>>>>>>>>>>>>>>>>>>>>>>>>>>>>>>>//
  //               SAPT0               //
  //<<<<<<<<<<<<<<<<<<<<<<<<<<<<<<<<<<<//


*** tstart() called on r282
*** at Sat Sep 11 01:45:53 2021

        SAPT0  
    Ed Hohenstein
     6 June 2009

      Orbital Information
  --------------------------
    NSO        =       455
    NMO        =       455
    NRI        =      1069
    NOCC A     =        12
    NOCC B     =        17
    FOCC A     =         0
    FOCC B     =         0
    NVIR A     =       443
    NVIR B     =       438

    Elst10,r            =    -0.003141226326 [Eh]
    Exch10              =     0.006286319506 [Eh]
    Exch10 (S^2)        =     0.006271673681 [Eh]

    Iter     Energy [mEh]          dE [mEh]         Residual      Time [s]
       1      -0.52018906       0.520189060       3.057186276             1
       2      -0.64867539       0.128486331       0.717084572             2
       3      -0.64780020      -0.000875195       0.331042783             2
       4      -0.64561172      -0.002188474       0.119218053             3
       5      -0.64570799       0.000096269       0.047033731             4
       6      -0.64601965       0.000311662       0.018328908             4
       7      -0.64599838      -0.000021277       0.006975714             5
       8      -0.64596760      -0.000030773       0.001661710             6
       9      -0.64596916       0.000001554       0.000448876             6
      10      -0.64597095       0.000001796       0.000133472             7
      11      -0.64597039      -0.000000566       0.000052221             8
      12      -0.64597046       0.000000075       0.000018504             8
      13      -0.64597049       0.000000029       0.000004254             9
      14      -0.64597048      -0.000000012       0.000000799            10

    CHF Iterations converged


    Iter     Energy [mEh]          dE [mEh]         Residual      Time [s]
       1      -1.67230998       1.672309979       7.316711606             1
       2      -1.84244018       0.170130205       2.789720948             1
       3      -1.93612933       0.093689151       0.629853756             2
       4      -1.93688312       0.000753788       0.183771224             3
       5      -1.93278178      -0.004101347       0.034407450             4
       6      -1.93299243       0.000210657       0.008716932             4
       7      -1.93308945       0.000097017       0.002020458             5
       8      -1.93307562      -0.000013828       0.000604552             6
       9      -1.93307094      -0.000004676       0.000135374             7
      10      -1.93307166       0.000000713       0.000032463             7
      11      -1.93307184       0.000000179       0.000008336             8
      12      -1.93307181      -0.000000028       0.000002379             9
      13      -1.93307179      -0.000000016       0.000000523            10

    CHF Iterations converged

    Ind20,r (A<-B)      =    -0.000645970479 [Eh]
    Ind20,r (B<-A)      =    -0.001933071793 [Eh]
    Ind20,r             =    -0.002579042272 [Eh]
    Exch-Ind20,r (A<-B) =     0.000606909936 [Eh]
    Exch-Ind20,r (B<-A) =     0.000707434671 [Eh]
    Exch-Ind20,r        =     0.001314344607 [Eh]
    Disp20              =    -0.007055642155 [Eh]
    Disp20 (SS)         =    -0.003527821078 [Eh]
    Disp20 (OS)         =    -0.003527821078 [Eh]
    Exch-Disp20         =     0.000681156352 [Eh]
    Exch-Disp20 (SS)    =     0.000436501608 [Eh]
    Exch-Disp20 (OS)    =     0.000244654745 [Eh]

    SAPT Results 
  --------------------------------------------------------------------------------------------------------
    Electrostatics                 -3.14122633 [mEh]      -1.97114928 [kcal/mol]      -8.24728858 [kJ/mol]
      Elst10,r                     -3.14122633 [mEh]      -1.97114928 [kcal/mol]      -8.24728858 [kJ/mol]

    Exchange                        6.28631951 [mEh]       3.94472505 [kcal/mol]      16.50472959 [kJ/mol]
      Exch10                        6.28631951 [mEh]       3.94472505 [kcal/mol]      16.50472959 [kJ/mol]
      Exch10(S^2)                   6.27167368 [mEh]       3.93553465 [kcal/mol]      16.46627698 [kJ/mol]

    Induction                      -1.77961680 [mEh]      -1.11672640 [kcal/mol]      -4.67238326 [kJ/mol]
      Ind20,r                      -2.57904227 [mEh]      -1.61837346 [kcal/mol]      -6.77127455 [kJ/mol]
      Exch-Ind20,r                  1.31434461 [mEh]       0.82476369 [kcal/mol]       3.45081129 [kJ/mol]
      delta HF,r (2)               -0.51491913 [mEh]      -0.32311663 [kcal/mol]      -1.35192000 [kJ/mol]

    Dispersion                     -6.37448580 [mEh]      -4.00005023 [kcal/mol]     -16.73621017 [kJ/mol]
      Disp20                       -7.05564216 [mEh]      -4.42748230 [kcal/mol]     -18.52458593 [kJ/mol]
      Exch-Disp20                   0.68115635 [mEh]       0.42743206 [kcal/mol]       1.78837576 [kJ/mol]
      Disp20 (SS)                  -3.52782108 [mEh]      -2.21374115 [kcal/mol]      -9.26229296 [kJ/mol]
      Disp20 (OS)                  -3.52782108 [mEh]      -2.21374115 [kcal/mol]      -9.26229296 [kJ/mol]
      Exch-Disp20 (SS)              0.43650161 [mEh]       0.27390889 [kcal/mol]       1.14603481 [kJ/mol]
      Exch-Disp20 (OS)              0.24465474 [mEh]       0.15352317 [kcal/mol]       0.64234094 [kJ/mol]

  Total HF                          1.36547638 [mEh]       0.85684937 [kcal/mol]       3.58505775 [kJ/mol]
  Total SAPT0                      -5.00900942 [mEh]      -3.14320087 [kcal/mol]     -13.15115242 [kJ/mol]

  Special recipe for scaled SAPT0 (see Manual):
    Electrostatics sSAPT0          -3.14122633 [mEh]      -1.97114928 [kcal/mol]      -8.24728858 [kJ/mol]
    Exchange sSAPT0                 6.28631951 [mEh]       3.94472505 [kcal/mol]      16.50472959 [kJ/mol]
    Induction sSAPT0               -1.77038737 [mEh]      -1.11093485 [kcal/mol]      -4.64815141 [kJ/mol]
    Dispersion sSAPT0              -6.36970267 [mEh]      -3.99704877 [kcal/mol]     -16.72365206 [kJ/mol]
  Total sSAPT0                     -4.99499686 [mEh]      -3.13440785 [kcal/mol]     -13.11436246 [kJ/mol]
  --------------------------------------------------------------------------------------------------------

*** tstop() called on r282 at Sat Sep 11 01:47:19 2021
Module time:
	user time   =      72.46 seconds =       1.21 minutes
	system time =      13.21 seconds =       0.22 minutes
	total time  =         86 seconds =       1.43 minutes
Total time:
	user time   =     164.75 seconds =       2.75 minutes
	system time =      15.22 seconds =       0.25 minutes
	total time  =        180 seconds =       3.00 minutes

    Psi4 stopped on: Saturday, 11 September 2021 01:47AM
    Psi4 wall time for execution: 0:03:00.23

*** Psi4 exiting successfully. Buy a developer a beer!
