
    -----------------------------------------------------------------------
          Psi4: An Open-Source Ab Initio Electronic Structure Package
                               Psi4 1.3.2 release

                         Git: Rev {HEAD} ecbda83 


    R. M. Parrish, L. A. Burns, D. G. A. Smith, A. C. Simmonett,
    A. E. DePrince III, E. G. Hohenstein, U. Bozkaya, A. Yu. Sokolov,
    R. Di Remigio, R. M. Richard, J. F. Gonthier, A. M. James,
    H. R. McAlexander, A. Kumar, M. Saitow, X. Wang, B. P. Pritchard,
    P. Verma, H. F. Schaefer III, K. Patkowski, R. A. King, E. F. Valeev,
    F. A. Evangelista, J. M. Turney, T. D. Crawford, and C. D. Sherrill,
    J. Chem. Theory Comput. 13(7) pp 3185--3197 (2017).
    (doi: 10.1021/acs.jctc.7b00174)


                         Additional Contributions by
    P. Kraus, H. Kruse, M. H. Lechner, M. C. Schieber, R. A. Shaw,
    A. Alenaizan, R. Galvelis, Z. L. Glick, S. Lehtola, and J. P. Misiewicz

    -----------------------------------------------------------------------


    Psi4 started on: Saturday, 11 September 2021 01:47AM

    Process ID: 57468
    Host:       r282
    PSIDATADIR: /home/r08543048/miniconda3/share/psi4
    Memory:     500.0 MiB
    Threads:    1
    
  ==> Input File <==

--------------------------------------------------------------------------
# Any line starting with the # character is a comment line
#! Sample  computation

memory 22 gb

molecule Dimer {
0 1
 C -1.876923    0.681003   -0.618164
 C -1.552158   -0.613675    0.100798
 O -1.196924   -0.660814    1.270630
 N -1.696551   -1.741258   -0.656814
 H -1.363523   -2.609664   -0.273352
 H -1.847914   -1.681240   -1.647213
 C -1.900161    1.872235    0.323640
 H -0.939448    1.986491    0.820536
 H -2.120665    2.786635   -0.225043
 H -2.655702    1.737324    1.094995
 H -1.124960    0.820852   -1.400016
 H -2.835356    0.563267   -1.128837




    
    
 --
0 1
 C   1.947223   -1.856930    0.252908
 H   1.101620   -1.906900    0.940124
 H   2.861880   -1.947486    0.840609
 H   1.899084   -2.713822   -0.420070
 C   1.929505   -0.539491   -0.512136
 H   2.772470   -0.498308   -1.208325
 H   1.023811   -0.482441   -1.123792
 C   1.981731    0.669472    0.413912
 H   2.894329    0.617567    1.014213
 H   1.143748    0.612927    1.113106
 C   1.944371    1.988790   -0.347391
 H   1.030813    2.070476   -0.939205
 H   1.980056    2.844614    0.326707
 H   2.789487    2.066599   -1.033183





units angstrom

no_reorient
symmetry c1
}

set globals{
  basis jun-cc-pvtz
}

energy('sapt0')


--------------------------------------------------------------------------

  Memory set to  20.489 GiB by Python driver.

  //>>>>>>>>>>>>>>>>>>>>>>>>>>>>>>>>>>>//
  //              Dimer HF             //
  //<<<<<<<<<<<<<<<<<<<<<<<<<<<<<<<<<<<//


*** tstart() called on r282
*** at Sat Sep 11 01:47:20 2021

   => Loading Basis Set <=

    Name: JUN-CC-PVTZ
    Role: ORBITAL
    Keyword: BASIS
    atoms 1-2, 7, 13, 17, 20, 23                entry C          line   217 file /home/r08543048/miniconda3/share/psi4/basis/jun-cc-pvtz.gbs 
    atoms 3                                     entry O          line   305 file /home/r08543048/miniconda3/share/psi4/basis/jun-cc-pvtz.gbs 
    atoms 4                                     entry N          line   261 file /home/r08543048/miniconda3/share/psi4/basis/jun-cc-pvtz.gbs 
    atoms 5-6, 8-12, 14-16, 18-19, 21-22, 24-26 entry H          line    36 file /home/r08543048/miniconda3/share/psi4/basis/jun-cc-pvtz.gbs 


         ---------------------------------------------------------
                                   SCF
               by Justin Turney, Rob Parrish, Andy Simmonett
                          and Daniel G. A. Smith
                              RHF Reference
                        1 Threads,  20980 MiB Core
         ---------------------------------------------------------

  ==> Geometry <==

    Molecular point group: c1
    Full point group: C1

    Geometry (in Angstrom), charge = 0, multiplicity = 1:

       Center              X                  Y                   Z               Mass       
    ------------   -----------------  -----------------  -----------------  -----------------
         C           -1.826918665918     0.713302762275    -0.642680242722    12.000000000000
         C           -1.502153665918    -0.581375237725     0.076281757278    12.000000000000
         O           -1.146919665918    -0.628514237725     1.246113757278    15.994914619570
         N           -1.646546665918    -1.708958237725    -0.681330242722    14.003074004430
         H           -1.313518665918    -2.577364237725    -0.297868242722     1.007825032230
         H           -1.797909665918    -1.648940237725    -1.671729242722     1.007825032230
         C           -1.850156665918     1.904534762275     0.299123757278    12.000000000000
         H           -0.889443665918     2.018790762275     0.796019757278     1.007825032230
         H           -2.070660665918     2.818934762275    -0.249559242722     1.007825032230
         H           -2.605697665918     1.769623762275     1.070478757278     1.007825032230
         H           -1.074955665918     0.853151762275    -1.424532242722     1.007825032230
         H           -2.785351665918     0.595566762275    -1.153353242722     1.007825032230
         C            1.997227334082    -1.824630237725     0.228391757278    12.000000000000
         H            1.151624334082    -1.874600237725     0.915607757278     1.007825032230
         H            2.911884334082    -1.915186237725     0.816092757278     1.007825032230
         H            1.949088334082    -2.681522237725    -0.444586242722     1.007825032230
         C            1.979509334082    -0.507191237725    -0.536652242722    12.000000000000
         H            2.822474334082    -0.466008237725    -1.232841242722     1.007825032230
         H            1.073815334082    -0.450141237725    -1.148308242722     1.007825032230
         C            2.031735334082     0.701771762275     0.389395757278    12.000000000000
         H            2.944333334082     0.649866762275     0.989696757278     1.007825032230
         H            1.193752334082     0.645226762275     1.088589757278     1.007825032230
         C            1.994375334082     2.021089762275    -0.371907242722    12.000000000000
         H            1.080817334082     2.102775762275    -0.963721242722     1.007825032230
         H            2.030060334082     2.876913762275     0.302190757278     1.007825032230
         H            2.839491334082     2.098898762275    -1.057699242722     1.007825032230

  Running in c1 symmetry.

  Rotational constants: A =      0.05278  B =      0.03411  C =      0.02445 [cm^-1]
  Rotational constants: A =   1582.17688  B =   1022.74009  C =    732.91406 [MHz]
  Nuclear repulsion =  484.389190065835123

  Charge       = 0
  Multiplicity = 1
  Electrons    = 74
  Nalpha       = 37
  Nbeta        = 37

  ==> Algorithm <==

  SCF Algorithm Type is DF.
  DIIS enabled.
  MOM disabled.
  Fractional occupation disabled.
  Guess Type is SAD.
  Energy threshold   = 1.00e-08
  Density threshold  = 1.00e-08
  Integral threshold = 0.00e+00

  ==> Primary Basis <==

  Basis Set: JUN-CC-PVTZ
    Blend: JUN-CC-PVTZ
    Number of shells: 219
    Number of basis function: 589
    Number of Cartesian functions: 660
    Spherical Harmonics?: true
    Max angular momentum: 3

   => Loading Basis Set <=

    Name: (JUN-CC-PVTZ AUX)
    Role: JKFIT
    Keyword: DF_BASIS_SCF
    atoms 1-2, 7, 13, 17, 20, 23                entry C          line   152 file /home/r08543048/miniconda3/share/psi4/basis/jun-cc-pvtz-jkfit.gbs 
    atoms 3                                     entry O          line   272 file /home/r08543048/miniconda3/share/psi4/basis/jun-cc-pvtz-jkfit.gbs 
    atoms 4                                     entry N          line   212 file /home/r08543048/miniconda3/share/psi4/basis/jun-cc-pvtz-jkfit.gbs 
    atoms 5-6, 8-12, 14-16, 18-19, 21-22, 24-26 entry H          line    70 file /home/r08543048/miniconda3/share/psi4/basis/jun-cc-pvtz-jkfit.gbs 

  ==> Pre-Iterations <==

   -------------------------------------------------------
    Irrep   Nso     Nmo     Nalpha   Nbeta   Ndocc  Nsocc
   -------------------------------------------------------
     A        589     589       0       0       0       0
   -------------------------------------------------------
    Total     589     589      37      37      37       0
   -------------------------------------------------------

  ==> Integral Setup <==

  ==> DiskDFJK: Density-Fitted J/K Matrices <==

    J tasked:                  Yes
    K tasked:                  Yes
    wK tasked:                  No
    OpenMP threads:              1
    Integrals threads:           1
    Memory [MiB]:            15735
    Algorithm:                Core
    Integral Cache:           SAVE
    Schwarz Cutoff:          1E-12
    Fitting Condition:       1E-10

   => Auxiliary Basis Set <=

  Basis Set: (JUN-CC-PVTZ AUX)
    Blend: JUN-CC-PVTZ-JKFIT
    Number of shells: 431
    Number of basis function: 1365
    Number of Cartesian functions: 1639
    Spherical Harmonics?: true
    Max angular momentum: 4

  Minimum eigenvalue in the overlap matrix is 2.5639557685E-05.
  Using Symmetric Orthogonalization.

  SCF Guess: Superposition of Atomic Densities via on-the-fly atomic UHF.

  ==> Iterations <==

                           Total Energy        Delta E     RMS |[F,P]|

   @DF-RHF iter SAD:  -403.29012611129622   -4.03290e+02   0.00000e+00 
   @DF-RHF iter   1:  -404.04349532508252   -7.53369e-01   1.47015e-03 DIIS
   @DF-RHF iter   2:  -404.36982035307204   -3.26325e-01   7.72883e-04 DIIS
   @DF-RHF iter   3:  -404.45592209531594   -8.61017e-02   1.58670e-04 DIIS
   @DF-RHF iter   4:  -404.46130001292448   -5.37792e-03   7.72904e-05 DIIS
   @DF-RHF iter   5:  -404.46239023683910   -1.09022e-03   1.16742e-05 DIIS
   @DF-RHF iter   6:  -404.46244493933261   -5.47025e-05   4.54797e-06 DIIS
   @DF-RHF iter   7:  -404.46245210606043   -7.16673e-06   1.73124e-06 DIIS
   @DF-RHF iter   8:  -404.46245363523451   -1.52917e-06   6.13339e-07 DIIS
   @DF-RHF iter   9:  -404.46245386294163   -2.27707e-07   1.57135e-07 DIIS
   @DF-RHF iter  10:  -404.46245387697138   -1.40298e-08   4.64295e-08 DIIS
   @DF-RHF iter  11:  -404.46245387778060   -8.09223e-10   1.45054e-08 DIIS
   @DF-RHF iter  12:  -404.46245387785314   -7.25322e-11   4.02282e-09 DIIS
  Energy and wave function converged.


  ==> Post-Iterations <==

    Orbital Energies [Eh]
    ---------------------

    Doubly Occupied:                                                      

       1A    -20.520766     2A    -15.584969     3A    -11.352547  
       4A    -11.243017     5A    -11.215563     6A    -11.209277  
       7A    -11.205120     8A    -11.203880     9A    -11.199071  
      10A     -1.380307    11A     -1.212926    12A     -1.066004  
      13A     -1.054073    14A     -0.975114    15A     -0.895630  
      16A     -0.854826    17A     -0.782974    18A     -0.781705  
      19A     -0.720641    20A     -0.674294    21A     -0.651424  
      22A     -0.624294    23A     -0.602594    24A     -0.579191  
      25A     -0.570634    26A     -0.569051    27A     -0.546308  
      28A     -0.528203    29A     -0.518329    30A     -0.508673  
      31A     -0.497253    32A     -0.488888    33A     -0.463151  
      34A     -0.455978    35A     -0.450223    36A     -0.426443  
      37A     -0.415789  

    Virtual:                                                              

      38A      0.039689    39A      0.050017    40A      0.056407  
      41A      0.057778    42A      0.070877    43A      0.072570  
      44A      0.078010    45A      0.082174    46A      0.089205  
      47A      0.104309    48A      0.109002    49A      0.111919  
      50A      0.115960    51A      0.118729    52A      0.121099  
      53A      0.132286    54A      0.140348    55A      0.142988  
      56A      0.147212    57A      0.150431    58A      0.162516  
      59A      0.163142    60A      0.178282    61A      0.180379  
      62A      0.188790    63A      0.191880    64A      0.199880  
      65A      0.200291    66A      0.208151    67A      0.214246  
      68A      0.219580    69A      0.229606    70A      0.246301  
      71A      0.255515    72A      0.268467    73A      0.277413  
      74A      0.280279    75A      0.281525    76A      0.287098  
      77A      0.290224    78A      0.295644    79A      0.302646  
      80A      0.308411    81A      0.312877    82A      0.317629  
      83A      0.322648    84A      0.325321    85A      0.328302  
      86A      0.331743    87A      0.340495    88A      0.342132  
      89A      0.348366    90A      0.356191    91A      0.356971  
      92A      0.366930    93A      0.375040    94A      0.377304  
      95A      0.387116    96A      0.394880    97A      0.396864  
      98A      0.399371    99A      0.408917   100A      0.414880  
     101A      0.422166   102A      0.424242   103A      0.438307  
     104A      0.443324   105A      0.445854   106A      0.452453  
     107A      0.460913   108A      0.464777   109A      0.473479  
     110A      0.481363   111A      0.492286   112A      0.498134  
     113A      0.501435   114A      0.512430   115A      0.525143  
     116A      0.528623   117A      0.531920   118A      0.540707  
     119A      0.550143   120A      0.552020   121A      0.558018  
     122A      0.570195   123A      0.574038   124A      0.576350  
     125A      0.581476   126A      0.589240   127A      0.597007  
     128A      0.602218   129A      0.608385   130A      0.617740  
     131A      0.621046   132A      0.631421   133A      0.639935  
     134A      0.646884   135A      0.655457   136A      0.657258  
     137A      0.673598   138A      0.677397   139A      0.681074  
     140A      0.706768   141A      0.715287   142A      0.721400  
     143A      0.733224   144A      0.740863   145A      0.758325  
     146A      0.759477   147A      0.768275   148A      0.770193  
     149A      0.779991   150A      0.783959   151A      0.796554  
     152A      0.805909   153A      0.810371   154A      0.817152  
     155A      0.822217   156A      0.830851   157A      0.834790  
     158A      0.849551   159A      0.857323   160A      0.860798  
     161A      0.866503   162A      0.868908   163A      0.871585  
     164A      0.875757   165A      0.879935   166A      0.897845  
     167A      0.898954   168A      0.903345   169A      0.916438  
     170A      0.931088   171A      0.939176   172A      0.950322  
     173A      0.954242   174A      0.954896   175A      0.963255  
     176A      0.985435   177A      0.988155   178A      1.002795  
     179A      1.007466   180A      1.022782   181A      1.039329  
     182A      1.042029   183A      1.054108   184A      1.067380  
     185A      1.093954   186A      1.099034   187A      1.111053  
     188A      1.113237   189A      1.124579   190A      1.126756  
     191A      1.153367   192A      1.156268   193A      1.167483  
     194A      1.196906   195A      1.200270   196A      1.204954  
     197A      1.213672   198A      1.220509   199A      1.247040  
     200A      1.251357   201A      1.258516   202A      1.277003  
     203A      1.287712   204A      1.299916   205A      1.304514  
     206A      1.323075   207A      1.328253   208A      1.338134  
     209A      1.341663   210A      1.362881   211A      1.371306  
     212A      1.372914   213A      1.376676   214A      1.394786  
     215A      1.405583   216A      1.411565   217A      1.422243  
     218A      1.428174   219A      1.439359   220A      1.443159  
     221A      1.458692   222A      1.461194   223A      1.467351  
     224A      1.473839   225A      1.482018   226A      1.494900  
     227A      1.503313   228A      1.513357   229A      1.514882  
     230A      1.517992   231A      1.531494   232A      1.536402  
     233A      1.537272   234A      1.550343   235A      1.566056  
     236A      1.580376   237A      1.589426   238A      1.593185  
     239A      1.604183   240A      1.607204   241A      1.615728  
     242A      1.626271   243A      1.632668   244A      1.639658  
     245A      1.643867   246A      1.647126   247A      1.660746  
     248A      1.671271   249A      1.675698   250A      1.686322  
     251A      1.699317   252A      1.717057   253A      1.725968  
     254A      1.738967   255A      1.754786   256A      1.766444  
     257A      1.776275   258A      1.783337   259A      1.792430  
     260A      1.817061   261A      1.818450   262A      1.841198  
     263A      1.849881   264A      1.863342   265A      1.892537  
     266A      1.903205   267A      1.909186   268A      1.915711  
     269A      1.930543   270A      1.950786   271A      1.951362  
     272A      1.959804   273A      1.962153   274A      1.979935  
     275A      1.993277   276A      1.999924   277A      2.018199  
     278A      2.033591   279A      2.061554   280A      2.086020  
     281A      2.100475   282A      2.123284   283A      2.184720  
     284A      2.218627   285A      2.281310   286A      2.294813  
     287A      2.485255   288A      2.503733   289A      2.520497  
     290A      2.553645   291A      2.741038   292A      2.753620  
     293A      2.767869   294A      2.773612   295A      2.787789  
     296A      2.803603   297A      2.836062   298A      2.855189  
     299A      2.870062   300A      2.880387   301A      2.888977  
     302A      2.894368   303A      2.923476   304A      2.928327  
     305A      2.932947   306A      2.942943   307A      2.951878  
     308A      2.970642   309A      2.988891   310A      2.996880  
     311A      3.018660   312A      3.032843   313A      3.037887  
     314A      3.045721   315A      3.052303   316A      3.099618  
     317A      3.109519   318A      3.123855   319A      3.135891  
     320A      3.137364   321A      3.147087   322A      3.152719  
     323A      3.159538   324A      3.162146   325A      3.181317  
     326A      3.185569   327A      3.197229   328A      3.209482  
     329A      3.237288   330A      3.254864   331A      3.269991  
     332A      3.285231   333A      3.296352   334A      3.305462  
     335A      3.316688   336A      3.321364   337A      3.332681  
     338A      3.342830   339A      3.343453   340A      3.353400  
     341A      3.361220   342A      3.377567   343A      3.385820  
     344A      3.394863   345A      3.411721   346A      3.418472  
     347A      3.424965   348A      3.430012   349A      3.437368  
     350A      3.439138   351A      3.450607   352A      3.458709  
     353A      3.469902   354A      3.473946   355A      3.479912  
     356A      3.491813   357A      3.495019   358A      3.505737  
     359A      3.514214   360A      3.523752   361A      3.532074  
     362A      3.536216   363A      3.541417   364A      3.559055  
     365A      3.561608   366A      3.578783   367A      3.585621  
     368A      3.588914   369A      3.601560   370A      3.616643  
     371A      3.623407   372A      3.630008   373A      3.635721  
     374A      3.643530   375A      3.649390   376A      3.656540  
     377A      3.666324   378A      3.670158   379A      3.687464  
     380A      3.701893   381A      3.712447   382A      3.726860  
     383A      3.732177   384A      3.760278   385A      3.766041  
     386A      3.772023   387A      3.799325   388A      3.808548  
     389A      3.821898   390A      3.831689   391A      3.839432  
     392A      3.849303   393A      3.858886   394A      3.867122  
     395A      3.878368   396A      3.887584   397A      3.894890  
     398A      3.912569   399A      3.943518   400A      3.949516  
     401A      3.951896   402A      3.961586   403A      3.968404  
     404A      3.978141   405A      3.981428   406A      3.992988  
     407A      4.004425   408A      4.011372   409A      4.027228  
     410A      4.049311   411A      4.061790   412A      4.084495  
     413A      4.096695   414A      4.116821   415A      4.143560  
     416A      4.159388   417A      4.179742   418A      4.185689  
     419A      4.193761   420A      4.216263   421A      4.229543  
     422A      4.231296   423A      4.242985   424A      4.253170  
     425A      4.258935   426A      4.269231   427A      4.278219  
     428A      4.287623   429A      4.297788   430A      4.309644  
     431A      4.314798   432A      4.321732   433A      4.327142  
     434A      4.340598   435A      4.347491   436A      4.355902  
     437A      4.369301   438A      4.384445   439A      4.388448  
     440A      4.398725   441A      4.411055   442A      4.417508  
     443A      4.430948   444A      4.440128   445A      4.444099  
     446A      4.459224   447A      4.463823   448A      4.470441  
     449A      4.476244   450A      4.479083   451A      4.502231  
     452A      4.518147   453A      4.531284   454A      4.537228  
     455A      4.551209   456A      4.553846   457A      4.570059  
     458A      4.581754   459A      4.596060   460A      4.605939  
     461A      4.616240   462A      4.618498   463A      4.626518  
     464A      4.634095   465A      4.662910   466A      4.670137  
     467A      4.679157   468A      4.684223   469A      4.697596  
     470A      4.716097   471A      4.718051   472A      4.731734  
     473A      4.744365   474A      4.758538   475A      4.764778  
     476A      4.768253   477A      4.836525   478A      4.845896  
     479A      4.847742   480A      4.860162   481A      4.872568  
     482A      4.913783   483A      4.919885   484A      4.938164  
     485A      4.951286   486A      4.972014   487A      4.976447  
     488A      5.038848   489A      5.043983   490A      5.055246  
     491A      5.080644   492A      5.114809   493A      5.127146  
     494A      5.140591   495A      5.143978   496A      5.158609  
     497A      5.168182   498A      5.186495   499A      5.229300  
     500A      5.257266   501A      5.259900   502A      5.273721  
     503A      5.275422   504A      5.283846   505A      5.293778  
     506A      5.301187   507A      5.310040   508A      5.327685  
     509A      5.333262   510A      5.352628   511A      5.366197  
     512A      5.370269   513A      5.373965   514A      5.383310  
     515A      5.414901   516A      5.421063   517A      5.452076  
     518A      5.462158   519A      5.474986   520A      5.493114  
     521A      5.525944   522A      5.553077   523A      5.567835  
     524A      5.628462   525A      5.637522   526A      5.654552  
     527A      5.663834   528A      5.679713   529A      5.683728  
     530A      5.701373   531A      5.746475   532A      5.754354  
     533A      5.760014   534A      5.768901   535A      5.782349  
     536A      5.791692   537A      5.808055   538A      5.816245  
     539A      5.831113   540A      5.853620   541A      5.868173  
     542A      5.884058   543A      5.906277   544A      5.920986  
     545A      5.927295   546A      5.947787   547A      5.966800  
     548A      5.978444   549A      5.993645   550A      6.017679  
     551A      6.029372   552A      6.045756   553A      6.082436  
     554A      6.099155   555A      6.117378   556A      6.198008  
     557A      6.208060   558A      6.250277   559A      6.382849  
     560A      6.497228   561A      6.503135   562A      6.527930  
     563A      6.539081   564A      6.545197   565A      6.564286  
     566A      6.564763   567A      6.589885   568A      6.623694  
     569A      6.664379   570A      6.676634   571A      6.799523  
     572A      6.866765   573A      7.217623   574A      7.346159  
     575A      7.397702   576A      7.455730   577A      7.477967  
     578A      7.539884   579A      7.765746   580A      7.807370  
     581A     12.230658   582A     13.764316   583A     14.114809  
     584A     14.294775   585A     14.413541   586A     14.569161  
     587A     14.746755   588A     14.828936   589A     15.534071  

    Final Occupation by Irrep:
              A 
    DOCC [    37 ]

  @DF-RHF Final Energy:  -404.46245387785314

   => Energetics <=

    Nuclear Repulsion Energy =            484.3891900658351233
    One-Electron Energy =               -1509.6450181468444498
    Two-Electron Energy =                 620.7933742031563042
    Total Energy =                       -404.4624538778531360

Computation Completed


Properties will be evaluated at   0.000000,   0.000000,   0.000000 [a0]

Properties computed using the SCF density matrix

  Nuclear Dipole Moment: [e a0]
     X:     6.9926      Y:     4.5168      Z:    -3.4283

  Electronic Dipole Moment: [e a0]
     X:    -7.3396      Y:    -4.6427      Z:     2.0162

  Dipole Moment: [e a0]
     X:    -0.3470      Y:    -0.1259      Z:    -1.4122     Total:     1.4596

  Dipole Moment: [D]
     X:    -0.8820      Y:    -0.3201      Z:    -3.5894     Total:     3.7100


*** tstop() called on r282 at Sat Sep 11 01:49:30 2021
Module time:
	user time   =     127.21 seconds =       2.12 minutes
	system time =       2.36 seconds =       0.04 minutes
	total time  =        130 seconds =       2.17 minutes
Total time:
	user time   =     127.21 seconds =       2.12 minutes
	system time =       2.36 seconds =       0.04 minutes
	total time  =        130 seconds =       2.17 minutes

  //>>>>>>>>>>>>>>>>>>>>>>>>>>>>>>>>>>>//
  //            Monomer A HF           //
  //<<<<<<<<<<<<<<<<<<<<<<<<<<<<<<<<<<<//


*** tstart() called on r282
*** at Sat Sep 11 01:49:30 2021

   => Loading Basis Set <=

    Name: JUN-CC-PVTZ
    Role: ORBITAL
    Keyword: BASIS
    atoms 1-2, 7, 13, 17, 20, 23                entry C          line   217 file /home/r08543048/miniconda3/share/psi4/basis/jun-cc-pvtz.gbs 
    atoms 3                                     entry O          line   305 file /home/r08543048/miniconda3/share/psi4/basis/jun-cc-pvtz.gbs 
    atoms 4                                     entry N          line   261 file /home/r08543048/miniconda3/share/psi4/basis/jun-cc-pvtz.gbs 
    atoms 5-6, 8-12, 14-16, 18-19, 21-22, 24-26 entry H          line    36 file /home/r08543048/miniconda3/share/psi4/basis/jun-cc-pvtz.gbs 


         ---------------------------------------------------------
                                   SCF
               by Justin Turney, Rob Parrish, Andy Simmonett
                          and Daniel G. A. Smith
                              RHF Reference
                        1 Threads,  20980 MiB Core
         ---------------------------------------------------------

  ==> Geometry <==

    Molecular point group: c1
    Full point group: C1

    Geometry (in Angstrom), charge = 0, multiplicity = 1:

       Center              X                  Y                   Z               Mass       
    ------------   -----------------  -----------------  -----------------  -----------------
         C           -1.826918665918     0.713302762275    -0.642680242722    12.000000000000
         C           -1.502153665918    -0.581375237725     0.076281757278    12.000000000000
         O           -1.146919665918    -0.628514237725     1.246113757278    15.994914619570
         N           -1.646546665918    -1.708958237725    -0.681330242722    14.003074004430
         H           -1.313518665918    -2.577364237725    -0.297868242722     1.007825032230
         H           -1.797909665918    -1.648940237725    -1.671729242722     1.007825032230
         C           -1.850156665918     1.904534762275     0.299123757278    12.000000000000
         H           -0.889443665918     2.018790762275     0.796019757278     1.007825032230
         H           -2.070660665918     2.818934762275    -0.249559242722     1.007825032230
         H           -2.605697665918     1.769623762275     1.070478757278     1.007825032230
         H           -1.074955665918     0.853151762275    -1.424532242722     1.007825032230
         H           -2.785351665918     0.595566762275    -1.153353242722     1.007825032230
      Gh(C)           1.997227334082    -1.824630237725     0.228391757278    12.000000000000
      Gh(H)           1.151624334082    -1.874600237725     0.915607757278     1.007825032230
      Gh(H)           2.911884334082    -1.915186237725     0.816092757278     1.007825032230
      Gh(H)           1.949088334082    -2.681522237725    -0.444586242722     1.007825032230
      Gh(C)           1.979509334082    -0.507191237725    -0.536652242722    12.000000000000
      Gh(H)           2.822474334082    -0.466008237725    -1.232841242722     1.007825032230
      Gh(H)           1.073815334082    -0.450141237725    -1.148308242722     1.007825032230
      Gh(C)           2.031735334082     0.701771762275     0.389395757278    12.000000000000
      Gh(H)           2.944333334082     0.649866762275     0.989696757278     1.007825032230
      Gh(H)           1.193752334082     0.645226762275     1.088589757278     1.007825032230
      Gh(C)           1.994375334082     2.021089762275    -0.371907242722    12.000000000000
      Gh(H)           1.080817334082     2.102775762275    -0.963721242722     1.007825032230
      Gh(H)           2.030060334082     2.876913762275     0.302190757278     1.007825032230
      Gh(H)           2.839491334082     2.098898762275    -1.057699242722     1.007825032230

  Running in c1 symmetry.

  Rotational constants: A =      0.05278  B =      0.03411  C =      0.02445 [cm^-1]
  Rotational constants: A =   1582.17688  B =   1022.74009  C =    732.91406 [MHz]
  Nuclear repulsion =  179.118989052141416

  Charge       = 0
  Multiplicity = 1
  Electrons    = 40
  Nalpha       = 20
  Nbeta        = 20

  ==> Algorithm <==

  SCF Algorithm Type is DF.
  DIIS enabled.
  MOM disabled.
  Fractional occupation disabled.
  Guess Type is SAD.
  Energy threshold   = 1.00e-08
  Density threshold  = 1.00e-08
  Integral threshold = 0.00e+00

  ==> Primary Basis <==

  Basis Set: JUN-CC-PVTZ
    Blend: JUN-CC-PVTZ
    Number of shells: 219
    Number of basis function: 589
    Number of Cartesian functions: 660
    Spherical Harmonics?: true
    Max angular momentum: 3

   => Loading Basis Set <=

    Name: (JUN-CC-PVTZ AUX)
    Role: JKFIT
    Keyword: DF_BASIS_SCF
    atoms 1-2, 7, 13, 17, 20, 23                entry C          line   152 file /home/r08543048/miniconda3/share/psi4/basis/jun-cc-pvtz-jkfit.gbs 
    atoms 3                                     entry O          line   272 file /home/r08543048/miniconda3/share/psi4/basis/jun-cc-pvtz-jkfit.gbs 
    atoms 4                                     entry N          line   212 file /home/r08543048/miniconda3/share/psi4/basis/jun-cc-pvtz-jkfit.gbs 
    atoms 5-6, 8-12, 14-16, 18-19, 21-22, 24-26 entry H          line    70 file /home/r08543048/miniconda3/share/psi4/basis/jun-cc-pvtz-jkfit.gbs 

  ==> Pre-Iterations <==

   -------------------------------------------------------
    Irrep   Nso     Nmo     Nalpha   Nbeta   Ndocc  Nsocc
   -------------------------------------------------------
     A        589     589       0       0       0       0
   -------------------------------------------------------
    Total     589     589      20      20      20       0
   -------------------------------------------------------

  ==> Integral Setup <==

  ==> DiskDFJK: Density-Fitted J/K Matrices <==

    J tasked:                  Yes
    K tasked:                  Yes
    wK tasked:                  No
    OpenMP threads:              1
    Integrals threads:           1
    Memory [MiB]:            15735
    Algorithm:                Core
    Integral Cache:           LOAD
    Schwarz Cutoff:          1E-12
    Fitting Condition:       1E-10

   => Auxiliary Basis Set <=

  Basis Set: (JUN-CC-PVTZ AUX)
    Blend: JUN-CC-PVTZ-JKFIT
    Number of shells: 431
    Number of basis function: 1365
    Number of Cartesian functions: 1639
    Spherical Harmonics?: true
    Max angular momentum: 4

  Minimum eigenvalue in the overlap matrix is 2.5639557685E-05.
  Using Symmetric Orthogonalization.

  SCF Guess: Superposition of Atomic Densities via on-the-fly atomic UHF.

  ==> Iterations <==

                           Total Energy        Delta E     RMS |[F,P]|

   @DF-RHF iter SAD:  -246.30082420389280   -2.46301e+02   0.00000e+00 
   @DF-RHF iter   1:  -246.89394354572136   -5.93119e-01   1.11287e-03 DIIS
   @DF-RHF iter   2:  -247.05629641237468   -1.62353e-01   6.39014e-04 DIIS
   @DF-RHF iter   3:  -247.10657523085675   -5.02788e-02   1.24444e-04 DIIS
   @DF-RHF iter   4:  -247.10959349071410   -3.01826e-03   5.51467e-05 DIIS
   @DF-RHF iter   5:  -247.11024384187812   -6.50351e-04   8.81086e-06 DIIS
   @DF-RHF iter   6:  -247.11028278603982   -3.89442e-05   3.63800e-06 DIIS
   @DF-RHF iter   7:  -247.11028787163690   -5.08560e-06   1.59404e-06 DIIS
   @DF-RHF iter   8:  -247.11028904099697   -1.16936e-06   5.98443e-07 DIIS
   @DF-RHF iter   9:  -247.11028923575014   -1.94753e-07   1.29218e-07 DIIS
   @DF-RHF iter  10:  -247.11028924523171   -9.48157e-09   2.97991e-08 DIIS
   @DF-RHF iter  11:  -247.11028924556905   -3.37337e-10   8.70499e-09 DIIS
  Energy and wave function converged.


  ==> Post-Iterations <==

    Orbital Energies [Eh]
    ---------------------

    Doubly Occupied:                                                      

       1A    -20.518525     2A    -15.583635     3A    -11.350240  
       4A    -11.241975     5A    -11.214776     6A     -1.376987  
       7A     -1.211051     8A     -1.052654     9A     -0.894100  
      10A     -0.780983    11A     -0.718982    12A     -0.671761  
      13A     -0.638790    14A     -0.600300    15A     -0.550979  
      16A     -0.526919    17A     -0.517070    18A     -0.494422  
      19A     -0.424268    20A     -0.414540  

    Virtual:                                                              

      21A      0.028766    22A      0.042854    23A      0.046255  
      24A      0.054759    25A      0.066885    26A      0.068850  
      27A      0.073775    28A      0.080628    29A      0.085406  
      30A      0.100943    31A      0.102255    32A      0.106547  
      33A      0.111849    34A      0.116990    35A      0.118955  
      36A      0.121455    37A      0.131715    38A      0.137519  
      39A      0.141437    40A      0.145831    41A      0.148328  
      42A      0.153613    43A      0.163553    44A      0.170005  
      45A      0.173427    46A      0.178379    47A      0.182881  
      48A      0.184375    49A      0.197890    50A      0.204885  
      51A      0.209343    52A      0.216031    53A      0.226634  
      54A      0.245710    55A      0.251503    56A      0.266342  
      57A      0.272837    58A      0.283055    59A      0.284983  
      60A      0.287725    61A      0.295646    62A      0.295777  
      63A      0.301485    64A      0.307570    65A      0.310023  
      66A      0.315568    67A      0.323726    68A      0.330970  
      69A      0.336315    70A      0.342247    71A      0.345461  
      72A      0.350817    73A      0.355038    74A      0.361135  
      75A      0.369537    76A      0.371242    77A      0.379115  
      78A      0.385762    79A      0.388557    80A      0.398079  
      81A      0.406302    82A      0.410418    83A      0.420277  
      84A      0.424737    85A      0.431089    86A      0.441531  
      87A      0.445215    88A      0.453619    89A      0.455561  
      90A      0.465582    91A      0.470292    92A      0.482936  
      93A      0.486678    94A      0.498293    95A      0.508685  
      96A      0.519932    97A      0.524967    98A      0.529687  
      99A      0.530190   100A      0.544652   101A      0.546512  
     102A      0.550905   103A      0.564535   104A      0.570517  
     105A      0.575713   106A      0.579448   107A      0.584373  
     108A      0.589176   109A      0.598168   110A      0.603921  
     111A      0.611966   112A      0.618389   113A      0.620084  
     114A      0.627870   115A      0.631169   116A      0.640148  
     117A      0.650259   118A      0.651936   119A      0.659071  
     120A      0.669637   121A      0.671304   122A      0.681404  
     123A      0.683692   124A      0.690440   125A      0.702906  
     126A      0.709290   127A      0.716548   128A      0.720898  
     129A      0.730216   130A      0.740097   131A      0.747285  
     132A      0.758695   133A      0.781183   134A      0.784876  
     135A      0.790957   136A      0.797809   137A      0.810542  
     138A      0.818088   139A      0.827132   140A      0.836211  
     141A      0.847812   142A      0.860277   143A      0.879751  
     144A      0.882742   145A      0.890965   146A      0.907739  
     147A      0.917318   148A      0.927030   149A      0.935687  
     150A      0.943160   151A      0.973790   152A      0.989106  
     153A      1.001621   154A      1.034330   155A      1.039968  
     156A      1.049049   157A      1.070145   158A      1.083747  
     159A      1.087568   160A      1.102575   161A      1.110796  
     162A      1.115810   163A      1.117341   164A      1.127662  
     165A      1.135334   166A      1.143378   167A      1.157222  
     168A      1.166257   169A      1.182396   170A      1.191321  
     171A      1.193021   172A      1.201166   173A      1.214169  
     174A      1.229035   175A      1.237392   176A      1.242287  
     177A      1.247697   178A      1.261663   179A      1.269408  
     180A      1.276579   181A      1.283107   182A      1.299824  
     183A      1.302790   184A      1.314715   185A      1.319432  
     186A      1.322332   187A      1.336539   188A      1.345638  
     189A      1.350615   190A      1.357060   191A      1.367527  
     192A      1.373414   193A      1.378762   194A      1.388599  
     195A      1.390909   196A      1.396869   197A      1.409039  
     198A      1.416070   199A      1.418016   200A      1.433611  
     201A      1.440373   202A      1.454897   203A      1.455759  
     204A      1.458868   205A      1.475427   206A      1.485575  
     207A      1.490092   208A      1.500873   209A      1.509037  
     210A      1.524301   211A      1.530614   212A      1.538566  
     213A      1.542249   214A      1.550952   215A      1.555332  
     216A      1.568040   217A      1.578112   218A      1.586292  
     219A      1.593061   220A      1.604031   221A      1.606980  
     222A      1.615261   223A      1.627874   224A      1.635157  
     225A      1.643310   226A      1.654316   227A      1.660425  
     228A      1.669504   229A      1.683372   230A      1.690029  
     231A      1.707805   232A      1.718168   233A      1.733653  
     234A      1.737041   235A      1.744369   236A      1.759347  
     237A      1.761589   238A      1.769804   239A      1.786261  
     240A      1.799812   241A      1.808085   242A      1.838388  
     243A      1.846747   244A      1.852561   245A      1.861805  
     246A      1.884977   247A      1.897775   248A      1.917797  
     249A      1.928215   250A      1.934467   251A      1.958259  
     252A      1.976592   253A      1.977405   254A      1.984369  
     255A      2.001694   256A      2.022448   257A      2.027210  
     258A      2.079625   259A      2.115059   260A      2.120147  
     261A      2.121524   262A      2.146200   263A      2.184746  
     264A      2.187919   265A      2.207649   266A      2.233811  
     267A      2.273525   268A      2.278785   269A      2.306663  
     270A      2.338070   271A      2.342644   272A      2.344599  
     273A      2.425590   274A      2.431143   275A      2.472077  
     276A      2.479696   277A      2.492290   278A      2.513715  
     279A      2.525210   280A      2.549603   281A      2.558531  
     282A      2.578989   283A      2.631426   284A      2.648423  
     285A      2.684614   286A      2.691898   287A      2.774347  
     288A      2.787526   289A      2.835636   290A      2.886399  
     291A      2.905011   292A      2.932312   293A      2.942106  
     294A      2.983873   295A      2.994138   296A      3.036348  
     297A      3.055130   298A      3.070795   299A      3.121656  
     300A      3.141221   301A      3.164707   302A      3.175576  
     303A      3.219870   304A      3.260870   305A      3.304575  
     306A      3.322967   307A      3.332164   308A      3.358174  
     309A      3.383708   310A      3.398273   311A      3.405038  
     312A      3.422934   313A      3.435227   314A      3.447504  
     315A      3.458168   316A      3.471496   317A      3.481706  
     318A      3.508851   319A      3.518155   320A      3.532801  
     321A      3.541673   322A      3.555557   323A      3.561845  
     324A      3.569529   325A      3.579787   326A      3.592540  
     327A      3.598424   328A      3.604553   329A      3.613393  
     330A      3.622353   331A      3.627205   332A      3.633523  
     333A      3.646106   334A      3.655991   335A      3.659575  
     336A      3.666996   337A      3.671433   338A      3.699319  
     339A      3.708450   340A      3.729140   341A      3.743346  
     342A      3.750647   343A      3.784816   344A      3.790336  
     345A      3.804178   346A      3.811079   347A      3.813932  
     348A      3.827048   349A      3.842979   350A      3.855468  
     351A      3.866296   352A      3.869338   353A      3.877389  
     354A      3.887259   355A      3.895341   356A      3.901895  
     357A      3.909398   358A      3.922189   359A      3.931763  
     360A      3.941944   361A      3.944512   362A      3.954870  
     363A      3.957532   364A      3.972230   365A      3.984383  
     366A      4.015505   367A      4.024134   368A      4.040052  
     369A      4.055369   370A      4.076012   371A      4.087602  
     372A      4.104215   373A      4.118220   374A      4.127968  
     375A      4.138685   376A      4.168360   377A      4.173362  
     378A      4.179652   379A      4.190310   380A      4.200025  
     381A      4.218280   382A      4.229272   383A      4.238759  
     384A      4.264889   385A      4.270367   386A      4.282751  
     387A      4.297019   388A      4.303271   389A      4.311178  
     390A      4.325333   391A      4.338647   392A      4.351206  
     393A      4.356422   394A      4.381574   395A      4.386999  
     396A      4.397265   397A      4.402276   398A      4.424537  
     399A      4.428436   400A      4.441039   401A      4.455311  
     402A      4.468050   403A      4.478421   404A      4.486091  
     405A      4.496115   406A      4.506017   407A      4.513978  
     408A      4.529794   409A      4.533566   410A      4.542040  
     411A      4.556868   412A      4.561604   413A      4.588227  
     414A      4.600578   415A      4.602837   416A      4.606228  
     417A      4.612823   418A      4.618224   419A      4.633529  
     420A      4.645510   421A      4.656531   422A      4.666911  
     423A      4.680893   424A      4.686658   425A      4.695958  
     426A      4.705696   427A      4.717855   428A      4.724351  
     429A      4.729094   430A      4.741513   431A      4.746187  
     432A      4.758736   433A      4.760681   434A      4.772007  
     435A      4.788766   436A      4.800985   437A      4.807198  
     438A      4.815343   439A      4.830507   440A      4.838493  
     441A      4.850699   442A      4.861807   443A      4.865605  
     444A      4.896379   445A      4.899092   446A      4.904778  
     447A      4.918128   448A      4.921110   449A      4.927276  
     450A      4.939695   451A      4.944994   452A      4.956655  
     453A      4.965270   454A      4.967349   455A      4.979153  
     456A      4.989034   457A      5.004550   458A      5.005312  
     459A      5.019422   460A      5.035518   461A      5.040085  
     462A      5.055937   463A      5.065109   464A      5.082066  
     465A      5.095541   466A      5.119585   467A      5.125875  
     468A      5.134959   469A      5.159307   470A      5.172229  
     471A      5.187244   472A      5.197560   473A      5.216670  
     474A      5.231611   475A      5.245096   476A      5.268747  
     477A      5.278895   478A      5.285786   479A      5.297672  
     480A      5.301982   481A      5.318886   482A      5.335690  
     483A      5.354720   484A      5.359762   485A      5.386946  
     486A      5.404988   487A      5.417637   488A      5.429222  
     489A      5.464881   490A      5.478488   491A      5.491654  
     492A      5.510086   493A      5.539293   494A      5.567892  
     495A      5.577436   496A      5.630470   497A      5.651448  
     498A      5.659632   499A      5.670934   500A      5.689222  
     501A      5.699346   502A      5.706382   503A      5.753674  
     504A      5.762627   505A      5.776028   506A      5.813180  
     507A      5.823794   508A      5.824631   509A      5.838845  
     510A      5.859636   511A      5.881432   512A      5.913890  
     513A      5.924229   514A      5.949996   515A      5.965459  
     516A      6.007649   517A      6.033166   518A      6.041602  
     519A      6.048018   520A      6.074268   521A      6.086965  
     522A      6.114328   523A      6.124349   524A      6.146092  
     525A      6.202044   526A      6.249194   527A      6.278726  
     528A      6.332819   529A      6.360390   530A      6.382364  
     531A      6.391466   532A      6.401860   533A      6.406853  
     534A      6.436871   535A      6.489415   536A      6.494094  
     537A      6.505122   538A      6.521553   539A      6.544163  
     540A      6.547266   541A      6.570609   542A      6.589022  
     543A      6.678298   544A      6.748977   545A      6.797098  
     546A      6.804721   547A      6.828763   548A      6.866440  
     549A      6.954598   550A      7.065068   551A      7.220778  
     552A      7.274361   553A      7.350481   554A      7.399086  
     555A      7.457515   556A      7.475726   557A      7.519504  
     558A      7.534473   559A      7.563431   560A      7.589553  
     561A      7.609919   562A      7.612414   563A      7.691790  
     564A      7.725247   565A      7.757321   566A      7.770511  
     567A      7.813009   568A      7.820006   569A      7.822581  
     570A      7.852093   571A      7.941103   572A      7.956256  
     573A      8.126593   574A      8.320562   575A      8.457161  
     576A      8.655109   577A      9.613329   578A      9.711626  
     579A      9.918301   580A      9.954948   581A     12.251689  
     582A     14.115854   583A     14.434073   584A     14.787548  
     585A     15.532737   586A     43.908785   587A     45.508568  
     588A     45.650041   589A     45.845323  

    Final Occupation by Irrep:
              A 
    DOCC [    20 ]

  @DF-RHF Final Energy:  -247.11028924556905

   => Energetics <=

    Nuclear Repulsion Energy =            179.1189890521414156
    One-Electron Energy =                -690.8926384347510066
    Two-Electron Energy =                 264.6633601370405700
    Total Energy =                       -247.1102892455690494

Computation Completed


Properties will be evaluated at   0.000000,   0.000000,   0.000000 [a0]

Properties computed using the SCF density matrix

  Nuclear Dipole Moment: [e a0]
     X:  -121.5360      Y:    -1.7807      Z:     1.2574

  Electronic Dipole Moment: [e a0]
     X:   121.2583      Y:     1.6665      Z:    -2.8208

  Dipole Moment: [e a0]
     X:    -0.2777      Y:    -0.1141      Z:    -1.5633     Total:     1.5919

  Dipole Moment: [D]
     X:    -0.7058      Y:    -0.2901      Z:    -3.9736     Total:     4.0462


*** tstop() called on r282 at Sat Sep 11 01:50:30 2021
Module time:
	user time   =      59.07 seconds =       0.98 minutes
	system time =       1.06 seconds =       0.02 minutes
	total time  =         60 seconds =       1.00 minutes
Total time:
	user time   =     186.28 seconds =       3.10 minutes
	system time =       3.42 seconds =       0.06 minutes
	total time  =        190 seconds =       3.17 minutes

  //>>>>>>>>>>>>>>>>>>>>>>>>>>>>>>>>>>>//
  //            Monomer B HF           //
  //<<<<<<<<<<<<<<<<<<<<<<<<<<<<<<<<<<<//


*** tstart() called on r282
*** at Sat Sep 11 01:50:30 2021

   => Loading Basis Set <=

    Name: JUN-CC-PVTZ
    Role: ORBITAL
    Keyword: BASIS
    atoms 1-2, 7, 13, 17, 20, 23                entry C          line   217 file /home/r08543048/miniconda3/share/psi4/basis/jun-cc-pvtz.gbs 
    atoms 3                                     entry O          line   305 file /home/r08543048/miniconda3/share/psi4/basis/jun-cc-pvtz.gbs 
    atoms 4                                     entry N          line   261 file /home/r08543048/miniconda3/share/psi4/basis/jun-cc-pvtz.gbs 
    atoms 5-6, 8-12, 14-16, 18-19, 21-22, 24-26 entry H          line    36 file /home/r08543048/miniconda3/share/psi4/basis/jun-cc-pvtz.gbs 


         ---------------------------------------------------------
                                   SCF
               by Justin Turney, Rob Parrish, Andy Simmonett
                          and Daniel G. A. Smith
                              RHF Reference
                        1 Threads,  20980 MiB Core
         ---------------------------------------------------------

  ==> Geometry <==

    Molecular point group: c1
    Full point group: C1

    Geometry (in Angstrom), charge = 0, multiplicity = 1:

       Center              X                  Y                   Z               Mass       
    ------------   -----------------  -----------------  -----------------  -----------------
      Gh(C)          -1.826918665918     0.713302762275    -0.642680242722    12.000000000000
      Gh(C)          -1.502153665918    -0.581375237725     0.076281757278    12.000000000000
      Gh(O)          -1.146919665918    -0.628514237725     1.246113757278    15.994914619570
      Gh(N)          -1.646546665918    -1.708958237725    -0.681330242722    14.003074004430
      Gh(H)          -1.313518665918    -2.577364237725    -0.297868242722     1.007825032230
      Gh(H)          -1.797909665918    -1.648940237725    -1.671729242722     1.007825032230
      Gh(C)          -1.850156665918     1.904534762275     0.299123757278    12.000000000000
      Gh(H)          -0.889443665918     2.018790762275     0.796019757278     1.007825032230
      Gh(H)          -2.070660665918     2.818934762275    -0.249559242722     1.007825032230
      Gh(H)          -2.605697665918     1.769623762275     1.070478757278     1.007825032230
      Gh(H)          -1.074955665918     0.853151762275    -1.424532242722     1.007825032230
      Gh(H)          -2.785351665918     0.595566762275    -1.153353242722     1.007825032230
         C            1.997227334082    -1.824630237725     0.228391757278    12.000000000000
         H            1.151624334082    -1.874600237725     0.915607757278     1.007825032230
         H            2.911884334082    -1.915186237725     0.816092757278     1.007825032230
         H            1.949088334082    -2.681522237725    -0.444586242722     1.007825032230
         C            1.979509334082    -0.507191237725    -0.536652242722    12.000000000000
         H            2.822474334082    -0.466008237725    -1.232841242722     1.007825032230
         H            1.073815334082    -0.450141237725    -1.148308242722     1.007825032230
         C            2.031735334082     0.701771762275     0.389395757278    12.000000000000
         H            2.944333334082     0.649866762275     0.989696757278     1.007825032230
         H            1.193752334082     0.645226762275     1.088589757278     1.007825032230
         C            1.994375334082     2.021089762275    -0.371907242722    12.000000000000
         H            1.080817334082     2.102775762275    -0.963721242722     1.007825032230
         H            2.030060334082     2.876913762275     0.302190757278     1.007825032230
         H            2.839491334082     2.098898762275    -1.057699242722     1.007825032230

  Running in c1 symmetry.

  Rotational constants: A =      0.05278  B =      0.03411  C =      0.02445 [cm^-1]
  Rotational constants: A =   1582.17688  B =   1022.74009  C =    732.91406 [MHz]
  Nuclear repulsion =  131.097677496448398

  Charge       = 0
  Multiplicity = 1
  Electrons    = 34
  Nalpha       = 17
  Nbeta        = 17

  ==> Algorithm <==

  SCF Algorithm Type is DF.
  DIIS enabled.
  MOM disabled.
  Fractional occupation disabled.
  Guess Type is SAD.
  Energy threshold   = 1.00e-08
  Density threshold  = 1.00e-08
  Integral threshold = 0.00e+00

  ==> Primary Basis <==

  Basis Set: JUN-CC-PVTZ
    Blend: JUN-CC-PVTZ
    Number of shells: 219
    Number of basis function: 589
    Number of Cartesian functions: 660
    Spherical Harmonics?: true
    Max angular momentum: 3

   => Loading Basis Set <=

    Name: (JUN-CC-PVTZ AUX)
    Role: JKFIT
    Keyword: DF_BASIS_SCF
    atoms 1-2, 7, 13, 17, 20, 23                entry C          line   152 file /home/r08543048/miniconda3/share/psi4/basis/jun-cc-pvtz-jkfit.gbs 
    atoms 3                                     entry O          line   272 file /home/r08543048/miniconda3/share/psi4/basis/jun-cc-pvtz-jkfit.gbs 
    atoms 4                                     entry N          line   212 file /home/r08543048/miniconda3/share/psi4/basis/jun-cc-pvtz-jkfit.gbs 
    atoms 5-6, 8-12, 14-16, 18-19, 21-22, 24-26 entry H          line    70 file /home/r08543048/miniconda3/share/psi4/basis/jun-cc-pvtz-jkfit.gbs 

  ==> Pre-Iterations <==

   -------------------------------------------------------
    Irrep   Nso     Nmo     Nalpha   Nbeta   Ndocc  Nsocc
   -------------------------------------------------------
     A        589     589       0       0       0       0
   -------------------------------------------------------
    Total     589     589      17      17      17       0
   -------------------------------------------------------

  ==> Integral Setup <==

  ==> DiskDFJK: Density-Fitted J/K Matrices <==

    J tasked:                  Yes
    K tasked:                  Yes
    wK tasked:                  No
    OpenMP threads:              1
    Integrals threads:           1
    Memory [MiB]:            15735
    Algorithm:                Core
    Integral Cache:           LOAD
    Schwarz Cutoff:          1E-12
    Fitting Condition:       1E-10

   => Auxiliary Basis Set <=

  Basis Set: (JUN-CC-PVTZ AUX)
    Blend: JUN-CC-PVTZ-JKFIT
    Number of shells: 431
    Number of basis function: 1365
    Number of Cartesian functions: 1639
    Spherical Harmonics?: true
    Max angular momentum: 4

  Minimum eigenvalue in the overlap matrix is 2.5639557685E-05.
  Using Symmetric Orthogonalization.

  SCF Guess: Superposition of Atomic Densities via on-the-fly atomic UHF.

  ==> Iterations <==

                           Total Energy        Delta E     RMS |[F,P]|

   @DF-RHF iter SAD:  -156.79436717201409   -1.56794e+02   0.00000e+00 
   @DF-RHF iter   1:  -157.14973100522033   -3.55364e-01   9.78552e-04 DIIS
   @DF-RHF iter   2:  -157.31611186373860   -1.66381e-01   4.54953e-04 DIIS
   @DF-RHF iter   3:  -157.35336906139938   -3.72572e-02   8.02008e-05 DIIS
   @DF-RHF iter   4:  -157.35576306036586   -2.39400e-03   1.87217e-05 DIIS
   @DF-RHF iter   5:  -157.35585479166699   -9.17313e-05   4.83991e-06 DIIS
   @DF-RHF iter   6:  -157.35586245312322   -7.66146e-06   6.05775e-07 DIIS
   @DF-RHF iter   7:  -157.35586263299504   -1.79872e-07   1.06834e-07 DIIS
   @DF-RHF iter   8:  -157.35586263800764   -5.01259e-09   2.39122e-08 DIIS
   @DF-RHF iter   9:  -157.35586263827935   -2.71712e-10   5.47901e-09 DIIS
  Energy and wave function converged.


  ==> Post-Iterations <==

    Orbital Energies [Eh]
    ---------------------

    Doubly Occupied:                                                      

       1A    -11.213422     2A    -11.212779     3A    -11.207711  
       4A    -11.207643     5A     -1.071433     6A     -0.980154  
       7A     -0.859954     8A     -0.787339     9A     -0.639207  
      10A     -0.584137    11A     -0.575435    12A     -0.566964  
      13A     -0.513974    14A     -0.494130    15A     -0.469359  
      16A     -0.461728    17A     -0.455582  

    Virtual:                                                              

      18A      0.031232    19A      0.046203    20A      0.048899  
      21A      0.054678    22A      0.066030    23A      0.071375  
      24A      0.075310    25A      0.079649    26A      0.083295  
      27A      0.100116    28A      0.101337    29A      0.108169  
      30A      0.110002    31A      0.116527    32A      0.118387  
      33A      0.119557    34A      0.125279    35A      0.140446  
      36A      0.144572    37A      0.146862    38A      0.154633  
      39A      0.158986    40A      0.159678    41A      0.167940  
      42A      0.175980    43A      0.180514    44A      0.185885  
      45A      0.197536    46A      0.203134    47A      0.209161  
      48A      0.212331    49A      0.221878    50A      0.225282  
      51A      0.233346    52A      0.247110    53A      0.259565  
      54A      0.271005    55A      0.278463    56A      0.279508  
      57A      0.296649    58A      0.300470    59A      0.303832  
      60A      0.311929    61A      0.313456    62A      0.317156  
      63A      0.320542    64A      0.323152    65A      0.331585  
      66A      0.340790    67A      0.345141    68A      0.347572  
      69A      0.354364    70A      0.359963    71A      0.364947  
      72A      0.370625    73A      0.372083    74A      0.377405  
      75A      0.384900    76A      0.393325    77A      0.398113  
      78A      0.405944    79A      0.411000    80A      0.416172  
      81A      0.418036    82A      0.423798    83A      0.430862  
      84A      0.441216    85A      0.445405    86A      0.448228  
      87A      0.457599    88A      0.463010    89A      0.473246  
      90A      0.481582    91A      0.492148    92A      0.499748  
      93A      0.506429    94A      0.521834    95A      0.522222  
      96A      0.530008    97A      0.532298    98A      0.543180  
      99A      0.546906   100A      0.548205   101A      0.563531  
     102A      0.568946   103A      0.576022   104A      0.578057  
     105A      0.588884   106A      0.598490   107A      0.604500  
     108A      0.607658   109A      0.610580   110A      0.619814  
     111A      0.629961   112A      0.637125   113A      0.648759  
     114A      0.656041   115A      0.658831   116A      0.670580  
     117A      0.679137   118A      0.684438   119A      0.691178  
     120A      0.704258   121A      0.708968   122A      0.724736  
     123A      0.728718   124A      0.738074   125A      0.747731  
     126A      0.759097   127A      0.771922   128A      0.779858  
     129A      0.792424   130A      0.797325   131A      0.807538  
     132A      0.813326   133A      0.823460   134A      0.829708  
     135A      0.840066   136A      0.847872   137A      0.851221  
     138A      0.859699   139A      0.862052   140A      0.870004  
     141A      0.878989   142A      0.880009   143A      0.890259  
     144A      0.898025   145A      0.904496   146A      0.923746  
     147A      0.927471   148A      0.938365   149A      0.942396  
     150A      0.953740   151A      0.966920   152A      0.974482  
     153A      0.991923   154A      1.000949   155A      1.016540  
     156A      1.028996   157A      1.036582   158A      1.040097  
     159A      1.067380   160A      1.079670   161A      1.087294  
     162A      1.102642   163A      1.115093   164A      1.117224  
     165A      1.136231   166A      1.154581   167A      1.167573  
     168A      1.172251   169A      1.191356   170A      1.201696  
     171A      1.207586   172A      1.211170   173A      1.227987  
     174A      1.233691   175A      1.241829   176A      1.258256  
     177A      1.273902   178A      1.277062   179A      1.281331  
     180A      1.299311   181A      1.304110   182A      1.316260  
     183A      1.324990   184A      1.331333   185A      1.338553  
     186A      1.350583   187A      1.352793   188A      1.362711  
     189A      1.377840   190A      1.381201   191A      1.387042  
     192A      1.396691   193A      1.413456   194A      1.419615  
     195A      1.429936   196A      1.439184   197A      1.441232  
     198A      1.447915   199A      1.461429   200A      1.479623  
     201A      1.481959   202A      1.497838   203A      1.505217  
     204A      1.511781   205A      1.517649   206A      1.526958  
     207A      1.534369   208A      1.550197   209A      1.554229  
     210A      1.561229   211A      1.565458   212A      1.580623  
     213A      1.583533   214A      1.594752   215A      1.608488  
     216A      1.611114   217A      1.614175   218A      1.623818  
     219A      1.627701   220A      1.641682   221A      1.651071  
     222A      1.661791   223A      1.664041   224A      1.669082  
     225A      1.677550   226A      1.692249   227A      1.698118  
     228A      1.702905   229A      1.723753   230A      1.729660  
     231A      1.745083   232A      1.749437   233A      1.767872  
     234A      1.776933   235A      1.780746   236A      1.796814  
     237A      1.814905   238A      1.824115   239A      1.845056  
     240A      1.854878   241A      1.875594   242A      1.881203  
     243A      1.898425   244A      1.913053   245A      1.930514  
     246A      1.932266   247A      1.945027   248A      1.954161  
     249A      1.965593   250A      1.985927   251A      2.015809  
     252A      2.023698   253A      2.039931   254A      2.051256  
     255A      2.058237   256A      2.062479   257A      2.091307  
     258A      2.116611   259A      2.154911   260A      2.173292  
     261A      2.209124   262A      2.226366   263A      2.233184  
     264A      2.288902   265A      2.326767   266A      2.395572  
     267A      2.403654   268A      2.422314   269A      2.445931  
     270A      2.506019   271A      2.534561   272A      2.561752  
     273A      2.581845   274A      2.679661   275A      2.702918  
     276A      2.732241   277A      2.751747   278A      2.774069  
     279A      2.794466   280A      2.823134   281A      2.832241  
     282A      2.851425   283A      2.865437   284A      2.883917  
     285A      2.891486   286A      2.914527   287A      2.920074  
     288A      2.927772   289A      2.946370   290A      2.972009  
     291A      2.978534   292A      3.001124   293A      3.027415  
     294A      3.054360   295A      3.059047   296A      3.091037  
     297A      3.097905   298A      3.120211   299A      3.139316  
     300A      3.151299   301A      3.159282   302A      3.160039  
     303A      3.167096   304A      3.189099   305A      3.210869  
     306A      3.231566   307A      3.262403   308A      3.291820  
     309A      3.297091   310A      3.307988   311A      3.331347  
     312A      3.339478   313A      3.348217   314A      3.365229  
     315A      3.391826   316A      3.413661   317A      3.420063  
     318A      3.421021   319A      3.435333   320A      3.454282  
     321A      3.475338   322A      3.481302   323A      3.500816  
     324A      3.507105   325A      3.515961   326A      3.521012  
     327A      3.545053   328A      3.554407   329A      3.562068  
     330A      3.582821   331A      3.585696   332A      3.592071  
     333A      3.604264   334A      3.614682   335A      3.630518  
     336A      3.638525   337A      3.642449   338A      3.659146  
     339A      3.662593   340A      3.669173   341A      3.680949  
     342A      3.691729   343A      3.707544   344A      3.717825  
     345A      3.743813   346A      3.745392   347A      3.757839  
     348A      3.766273   349A      3.804384   350A      3.814330  
     351A      3.824881   352A      3.831940   353A      3.843784  
     354A      3.855640   355A      3.862637   356A      3.871320  
     357A      3.880710   358A      3.901210   359A      3.921734  
     360A      3.924307   361A      3.936112   362A      3.953491  
     363A      3.963132   364A      3.965668   365A      3.974875  
     366A      3.983790   367A      3.991676   368A      4.000754  
     369A      4.008970   370A      4.017776   371A      4.034243  
     372A      4.063962   373A      4.070020   374A      4.094622  
     375A      4.117653   376A      4.134703   377A      4.152693  
     378A      4.169540   379A      4.184884   380A      4.187950  
     381A      4.195912   382A      4.215862   383A      4.229757  
     384A      4.250783   385A      4.262425   386A      4.266426  
     387A      4.271957   388A      4.293061   389A      4.301172  
     390A      4.305056   391A      4.318199   392A      4.341443  
     393A      4.346114   394A      4.359819   395A      4.374326  
     396A      4.389034   397A      4.391435   398A      4.399966  
     399A      4.406145   400A      4.426472   401A      4.435533  
     402A      4.447435   403A      4.465178   404A      4.476639  
     405A      4.485591   406A      4.503609   407A      4.508074  
     408A      4.512330   409A      4.525193   410A      4.539524  
     411A      4.546424   412A      4.552633   413A      4.556551  
     414A      4.565270   415A      4.584682   416A      4.586436  
     417A      4.600118   418A      4.626151   419A      4.628852  
     420A      4.646955   421A      4.651651   422A      4.661898  
     423A      4.668757   424A      4.681845   425A      4.693285  
     426A      4.712764   427A      4.715320   428A      4.730765  
     429A      4.738335   430A      4.741723   431A      4.754088  
     432A      4.760924   433A      4.777107   434A      4.786773  
     435A      4.805605   436A      4.818000   437A      4.826840  
     438A      4.836455   439A      4.837532   440A      4.849429  
     441A      4.853821   442A      4.871775   443A      4.880080  
     444A      4.892176   445A      4.901090   446A      4.907812  
     447A      4.914927   448A      4.919046   449A      4.936644  
     450A      4.941471   451A      4.952147   452A      4.956717  
     453A      4.976422   454A      4.984563   455A      4.990217  
     456A      5.019506   457A      5.026988   458A      5.036246  
     459A      5.050707   460A      5.063814   461A      5.080121  
     462A      5.082107   463A      5.102827   464A      5.109415  
     465A      5.132841   466A      5.140834   467A      5.147175  
     468A      5.180832   469A      5.207246   470A      5.214985  
     471A      5.246791   472A      5.258109   473A      5.272841  
     474A      5.275005   475A      5.293039   476A      5.298867  
     477A      5.309661   478A      5.321860   479A      5.340513  
     480A      5.362978   481A      5.368903   482A      5.379722  
     483A      5.391263   484A      5.395087   485A      5.455274  
     486A      5.468782   487A      5.471797   488A      5.503694  
     489A      5.548787   490A      5.563152   491A      5.594625  
     492A      5.598990   493A      5.634008   494A      5.659860  
     495A      5.675312   496A      5.680354   497A      5.727176  
     498A      5.747655   499A      5.758925   500A      5.762261  
     501A      5.776186   502A      5.790769   503A      5.807682  
     504A      5.816322   505A      5.841516   506A      5.864079  
     507A      5.872093   508A      5.914002   509A      5.919182  
     510A      5.959347   511A      5.972441   512A      5.981395  
     513A      5.998722   514A      6.009124   515A      6.023514  
     516A      6.094796   517A      6.113346   518A      6.138111  
     519A      6.195881   520A      6.210403   521A      6.289607  
     522A      6.300243   523A      6.347054   524A      6.399786  
     525A      6.416649   526A      6.456157   527A      6.474886  
     528A      6.491256   529A      6.503854   530A      6.518295  
     531A      6.548962   532A      6.553942   533A      6.566297  
     534A      6.593115   535A      6.607471   536A      6.614252  
     537A      6.636661   538A      6.668070   539A      6.760952  
     540A      6.792760   541A      6.885743   542A      6.982315  
     543A      7.017776   544A      7.096145   545A      7.293695  
     546A      7.324196   547A      7.419360   548A      7.459790  
     549A      7.529699   550A      7.561526   551A      7.637490  
     552A      7.680098   553A      7.721968   554A      7.811910  
     555A      7.822836   556A      7.893973   557A      7.930534  
     558A      8.012841   559A      8.034163   560A      8.286094  
     561A      8.411646   562A      8.427617   563A      8.816070  
     564A      9.109996   565A      9.158758   566A      9.233561  
     567A      9.603571   568A      9.760652   569A      9.891501  
     570A      9.936039   571A      9.968176   572A      9.987970  
     573A     10.121555   574A     10.501009   575A     10.960710  
     576A     11.400655   577A     11.565582   578A     11.766037  
     579A     12.063507   580A     13.766862   581A     13.875937  
     582A     14.292095   583A     14.599912   584A     14.714585  
     585A     42.942480   586A     45.248885   587A     46.029948  
     588A     54.800503   589A     61.748692  

    Final Occupation by Irrep:
              A 
    DOCC [    17 ]

  @DF-RHF Final Energy:  -157.35586263827935

   => Energetics <=

    Nuclear Repulsion Energy =            131.0976774964483980
    One-Electron Energy =                -470.3051773806180336
    Two-Electron Energy =                 181.8516372458902879
    Total Energy =                       -157.3558626382793477

Computation Completed


Properties will be evaluated at   0.000000,   0.000000,   0.000000 [a0]

Properties computed using the SCF density matrix

  Nuclear Dipole Moment: [e a0]
     X:   128.5286      Y:     6.2974      Z:    -4.6858

  Electronic Dipole Moment: [e a0]
     X:  -128.5271      Y:    -6.2965      Z:     4.6856

  Dipole Moment: [e a0]
     X:     0.0016      Y:     0.0009      Z:    -0.0002     Total:     0.0018

  Dipole Moment: [D]
     X:     0.0040      Y:     0.0024      Z:    -0.0006     Total:     0.0047


*** tstop() called on r282 at Sat Sep 11 01:51:33 2021
Module time:
	user time   =      62.06 seconds =       1.03 minutes
	system time =       0.93 seconds =       0.02 minutes
	total time  =         63 seconds =       1.05 minutes
Total time:
	user time   =     248.34 seconds =       4.14 minutes
	system time =       4.35 seconds =       0.07 minutes
	total time  =        253 seconds =       4.22 minutes
  Constructing Basis Sets for SAPT...

   => Loading Basis Set <=

    Name: (JUN-CC-PVTZ AUX)
    Role: RIFIT
    Keyword: DF_BASIS_SAPT
    atoms 1-2, 7, 13, 17, 20, 23                entry C          line   132 file /home/r08543048/miniconda3/share/psi4/basis/jun-cc-pvtz-ri.gbs 
    atoms 3                                     entry O          line   244 file /home/r08543048/miniconda3/share/psi4/basis/jun-cc-pvtz-ri.gbs 
    atoms 4                                     entry N          line   188 file /home/r08543048/miniconda3/share/psi4/basis/jun-cc-pvtz-ri.gbs 
    atoms 5-6, 8-12, 14-16, 18-19, 21-22, 24-26 entry H          line    30 file /home/r08543048/miniconda3/share/psi4/basis/jun-cc-pvtz-ri.gbs 


  //>>>>>>>>>>>>>>>>>>>>>>>>>>>>>>>>>>>//
  //               SAPT0               //
  //<<<<<<<<<<<<<<<<<<<<<<<<<<<<<<<<<<<//


*** tstart() called on r282
*** at Sat Sep 11 01:51:33 2021

        SAPT0  
    Ed Hohenstein
     6 June 2009

      Orbital Information
  --------------------------
    NSO        =       589
    NMO        =       589
    NRI        =      1383
    NOCC A     =        20
    NOCC B     =        17
    FOCC A     =         0
    FOCC B     =         0
    NVIR A     =       569
    NVIR B     =       572

    Elst10,r            =    -0.003628050704 [Eh]
    Exch10              =     0.008847358458 [Eh]
    Exch10 (S^2)        =     0.008836265690 [Eh]

    Iter     Energy [mEh]          dE [mEh]         Residual      Time [s]
       1      -0.53825383       0.538253833       3.161906218             1
       2      -0.65682974       0.118575908       0.802120171             3
       3      -0.65890084       0.002071101       0.255062239             5
       4      -0.65688628      -0.002014562       0.103188641             7
       5      -0.65660678      -0.000279505       0.030750628             8
       6      -0.65681822       0.000211447       0.014068099            10
       7      -0.65684624       0.000028019       0.005093614            12
       8      -0.65681838      -0.000027867       0.001541150            14
       9      -0.65681687      -0.000001504       0.000445925            15
      10      -0.65681899       0.000002113       0.000117177            17
      11      -0.65681879      -0.000000194       0.000033379            19
      12      -0.65681872      -0.000000074       0.000011516            21
      13      -0.65681874       0.000000021       0.000004765            22
      14      -0.65681875       0.000000009       0.000001708            24
      15      -0.65681874      -0.000000005       0.000000549            26

    CHF Iterations converged


    Iter     Energy [mEh]          dE [mEh]         Residual      Time [s]
       1      -1.62552936       1.625529359       6.258452467             2
       2      -1.88024717       0.254717807       2.274298587             3
       3      -1.93365040       0.053403229       0.512854984             5
       4      -1.92908742      -0.004562977       0.164384844             7
       5      -1.92621674      -0.002870680       0.026241040             8
       6      -1.92654425       0.000327511       0.007986455            10
       7      -1.92660971       0.000065462       0.001592900            12
       8      -1.92659362      -0.000016095       0.000370550            13
       9      -1.92659285      -0.000000770       0.000087464            15
      10      -1.92659353       0.000000686       0.000020514            17
      11      -1.92659354       0.000000009       0.000005600            18
      12      -1.92659351      -0.000000028       0.000001524            20
      13      -1.92659351      -0.000000004       0.000000344            22

    CHF Iterations converged

    Ind20,r (A<-B)      =    -0.000656818743 [Eh]
    Ind20,r (B<-A)      =    -0.001926593510 [Eh]
    Ind20,r             =    -0.002583412253 [Eh]
    Exch-Ind20,r (A<-B) =     0.000548268650 [Eh]
    Exch-Ind20,r (B<-A) =     0.001128373818 [Eh]
    Exch-Ind20,r        =     0.001676642469 [Eh]
    Disp20              =    -0.011180795230 [Eh]
    Disp20 (SS)         =    -0.005590397615 [Eh]
    Disp20 (OS)         =    -0.005590397615 [Eh]
    Exch-Disp20         =     0.001025138315 [Eh]
    Exch-Disp20 (SS)    =     0.000662827499 [Eh]
    Exch-Disp20 (OS)    =     0.000362310817 [Eh]

    SAPT Results 
  --------------------------------------------------------------------------------------------------------
    Electrostatics                 -3.62805070 [mEh]      -2.27663619 [kcal/mol]      -9.52544581 [kJ/mol]
      Elst10,r                     -3.62805070 [mEh]      -2.27663619 [kcal/mol]      -9.52544581 [kJ/mol]

    Exchange                        8.84735846 [mEh]       5.55180125 [kcal/mol]      23.22873643 [kJ/mol]
      Exch10                        8.84735846 [mEh]       5.55180125 [kcal/mol]      23.22873643 [kJ/mol]
      Exch10(S^2)                   8.83626569 [mEh]       5.54484043 [kcal/mol]      23.19961237 [kJ/mol]

    Induction                      -1.52130176 [mEh]      -0.95463127 [kcal/mol]      -3.99417722 [kJ/mol]
      Ind20,r                      -2.58341225 [mEh]      -1.62111566 [kcal/mol]      -6.78274794 [kJ/mol]
      Exch-Ind20,r                  1.67664247 [mEh]       1.05210903 [kcal/mol]       4.40202419 [kJ/mol]
      delta HF,r (2)               -0.61453197 [mEh]      -0.38562464 [kcal/mol]      -1.61345348 [kJ/mol]

    Dispersion                    -10.15565691 [mEh]      -6.37277093 [kcal/mol]     -26.66367356 [kJ/mol]
      Disp20                      -11.18079523 [mEh]      -7.01605493 [kcal/mol]     -29.35517383 [kJ/mol]
      Exch-Disp20                   1.02513832 [mEh]       0.64328400 [kcal/mol]       2.69150028 [kJ/mol]
      Disp20 (SS)                  -5.59039761 [mEh]      -3.50802747 [kcal/mol]     -14.67758692 [kJ/mol]
      Disp20 (OS)                  -5.59039761 [mEh]      -3.50802747 [kcal/mol]     -14.67758692 [kJ/mol]
      Exch-Disp20 (SS)              0.66282750 [mEh]       0.41593053 [kcal/mol]       1.74025336 [kJ/mol]
      Exch-Disp20 (OS)              0.36231082 [mEh]       0.22735347 [kcal/mol]       0.95124692 [kJ/mol]

  Total HF                          3.69800600 [mEh]       2.32053380 [kcal/mol]       9.70911340 [kJ/mol]
  Total SAPT0                      -6.45765092 [mEh]      -4.05223713 [kcal/mol]     -16.95456015 [kJ/mol]

  Special recipe for scaled SAPT0 (see Manual):
    Electrostatics sSAPT0          -3.62805070 [mEh]      -2.27663619 [kcal/mol]      -9.52544581 [kJ/mol]
    Exchange sSAPT0                 8.84735846 [mEh]       5.55180125 [kcal/mol]      23.22873643 [kJ/mol]
    Induction sSAPT0               -1.51497942 [mEh]      -0.95066394 [kcal/mol]      -3.97757791 [kJ/mol]
    Dispersion sSAPT0             -10.15179129 [mEh]      -6.37034521 [kcal/mol]     -26.65352435 [kJ/mol]
  Total sSAPT0                     -6.44746295 [mEh]      -4.04584408 [kcal/mol]     -16.92781164 [kJ/mol]
  --------------------------------------------------------------------------------------------------------

*** tstop() called on r282 at Sat Sep 11 01:55:15 2021
Module time:
	user time   =     191.44 seconds =       3.19 minutes
	system time =      29.52 seconds =       0.49 minutes
	total time  =        222 seconds =       3.70 minutes
Total time:
	user time   =     439.96 seconds =       7.33 minutes
	system time =      33.87 seconds =       0.56 minutes
	total time  =        475 seconds =       7.92 minutes

    Psi4 stopped on: Saturday, 11 September 2021 01:55AM
    Psi4 wall time for execution: 0:07:55.33

*** Psi4 exiting successfully. Buy a developer a beer!
