
    -----------------------------------------------------------------------
          Psi4: An Open-Source Ab Initio Electronic Structure Package
                               Psi4 1.3.2 release

                         Git: Rev {HEAD} ecbda83 


    R. M. Parrish, L. A. Burns, D. G. A. Smith, A. C. Simmonett,
    A. E. DePrince III, E. G. Hohenstein, U. Bozkaya, A. Yu. Sokolov,
    R. Di Remigio, R. M. Richard, J. F. Gonthier, A. M. James,
    H. R. McAlexander, A. Kumar, M. Saitow, X. Wang, B. P. Pritchard,
    P. Verma, H. F. Schaefer III, K. Patkowski, R. A. King, E. F. Valeev,
    F. A. Evangelista, J. M. Turney, T. D. Crawford, and C. D. Sherrill,
    J. Chem. Theory Comput. 13(7) pp 3185--3197 (2017).
    (doi: 10.1021/acs.jctc.7b00174)


                         Additional Contributions by
    P. Kraus, H. Kruse, M. H. Lechner, M. C. Schieber, R. A. Shaw,
    A. Alenaizan, R. Galvelis, Z. L. Glick, S. Lehtola, and J. P. Misiewicz

    -----------------------------------------------------------------------


    Psi4 started on: Saturday, 11 September 2021 01:33AM

    Process ID: 57458
    Host:       r282
    PSIDATADIR: /home/r08543048/miniconda3/share/psi4
    Memory:     500.0 MiB
    Threads:    1
    
  ==> Input File <==

--------------------------------------------------------------------------
# Any line starting with the # character is a comment line
#! Sample  computation

memory 22 gb

molecule Dimer {
0 1
 C -1.594798   -1.610247   -0.329733
 C -1.800645   -0.213009    0.203176
 O -1.535480    0.098553    1.356254
 N -2.344990    0.673712   -0.678549
 H -2.478542   -2.204370   -0.097722
 H -1.436525   -1.630319   -1.406574
 H -0.742460   -2.052773    0.177227
 H -2.468636    1.625600   -0.378636
 H -2.463823    0.448091   -1.648114







    
    
 --
0 1
 C   1.032852    2.089322    0.024720
 H   1.856797    2.566472    0.557262
 H   0.224531    1.923903    0.737976
 H   0.683749    2.785066   -0.739039
 C   1.483815    0.767476   -0.583987
 H   0.660767    0.322398   -1.151952
 H   2.290921    0.942093   -1.301719
 C   1.955011   -0.227555    0.469384
 H   1.139561   -0.408458    1.174235
 H   2.769003    0.222551    1.044343
 C   2.427081   -1.540994   -0.141999
 H   3.269199   -1.375313   -0.815631
 H   2.744119   -2.250784    0.621876
 H   1.630212   -2.008524   -0.723087





units angstrom

no_reorient
symmetry c1
}

set globals{
  basis jun-cc-pvtz
}

energy('sapt0')


--------------------------------------------------------------------------

  Memory set to  20.489 GiB by Python driver.

  //>>>>>>>>>>>>>>>>>>>>>>>>>>>>>>>>>>>//
  //              Dimer HF             //
  //<<<<<<<<<<<<<<<<<<<<<<<<<<<<<<<<<<<//


*** tstart() called on r282
*** at Sat Sep 11 01:33:59 2021

   => Loading Basis Set <=

    Name: JUN-CC-PVTZ
    Role: ORBITAL
    Keyword: BASIS
    atoms 1-2, 10, 14, 17, 20             entry C          line   217 file /home/r08543048/miniconda3/share/psi4/basis/jun-cc-pvtz.gbs 
    atoms 3                               entry O          line   305 file /home/r08543048/miniconda3/share/psi4/basis/jun-cc-pvtz.gbs 
    atoms 4                               entry N          line   261 file /home/r08543048/miniconda3/share/psi4/basis/jun-cc-pvtz.gbs 
    atoms 5-9, 11-13, 15-16, 18-19, 21-23 entry H          line    36 file /home/r08543048/miniconda3/share/psi4/basis/jun-cc-pvtz.gbs 


         ---------------------------------------------------------
                                   SCF
               by Justin Turney, Rob Parrish, Andy Simmonett
                          and Daniel G. A. Smith
                              RHF Reference
                        1 Threads,  20980 MiB Core
         ---------------------------------------------------------

  ==> Geometry <==

    Molecular point group: c1
    Full point group: C1

    Geometry (in Angstrom), charge = 0, multiplicity = 1:

       Center              X                  Y                   Z               Mass       
    ------------   -----------------  -----------------  -----------------  -----------------
         C           -1.529749424699    -1.619531617483    -0.363116038207    12.000000000000
         C           -1.735596424699    -0.222293617483     0.169792961793    12.000000000000
         O           -1.470431424699     0.089268382517     1.322870961793    15.994914619570
         N           -2.279941424699     0.664427382517    -0.711932038207    14.003074004430
         H           -2.413493424699    -2.213654617483    -0.131105038207     1.007825032230
         H           -1.371476424699    -1.639603617483    -1.439957038207     1.007825032230
         H           -0.677411424699    -2.062057617483     0.143843961793     1.007825032230
         H           -2.403587424699     1.616315382517    -0.412019038207     1.007825032230
         H           -2.398774424699     0.438806382517    -1.681497038207     1.007825032230
         C            1.097900575301     2.080037382517    -0.008663038207    12.000000000000
         H            1.921845575301     2.557187382517     0.523878961793     1.007825032230
         H            0.289579575301     1.914618382517     0.704592961793     1.007825032230
         H            0.748797575301     2.775781382517    -0.772422038207     1.007825032230
         C            1.548863575301     0.758191382517    -0.617370038207    12.000000000000
         H            0.725815575301     0.313113382517    -1.185335038207     1.007825032230
         H            2.355969575301     0.932808382517    -1.335102038207     1.007825032230
         C            2.020059575301    -0.236839617483     0.436000961793    12.000000000000
         H            1.204609575301    -0.417742617483     1.140851961793     1.007825032230
         H            2.834051575301     0.213266382517     1.010959961793     1.007825032230
         C            2.492129575301    -1.550278617483    -0.175382038207    12.000000000000
         H            3.334247575301    -1.384597617483    -0.849014038207     1.007825032230
         H            2.809167575301    -2.260068617483     0.588492961793     1.007825032230
         H            1.695260575301    -2.017808617483    -0.756470038207     1.007825032230

  Running in c1 symmetry.

  Rotational constants: A =      0.07337  B =      0.03678  C =      0.02946 [cm^-1]
  Rotational constants: A =   2199.47097  B =   1102.78204  C =    883.04252 [MHz]
  Nuclear repulsion =  395.110472965541192

  Charge       = 0
  Multiplicity = 1
  Electrons    = 66
  Nalpha       = 33
  Nbeta        = 33

  ==> Algorithm <==

  SCF Algorithm Type is DF.
  DIIS enabled.
  MOM disabled.
  Fractional occupation disabled.
  Guess Type is SAD.
  Energy threshold   = 1.00e-08
  Density threshold  = 1.00e-08
  Integral threshold = 0.00e+00

  ==> Primary Basis <==

  Basis Set: JUN-CC-PVTZ
    Blend: JUN-CC-PVTZ
    Number of shells: 194
    Number of basis function: 522
    Number of Cartesian functions: 585
    Spherical Harmonics?: true
    Max angular momentum: 3

   => Loading Basis Set <=

    Name: (JUN-CC-PVTZ AUX)
    Role: JKFIT
    Keyword: DF_BASIS_SCF
    atoms 1-2, 10, 14, 17, 20             entry C          line   152 file /home/r08543048/miniconda3/share/psi4/basis/jun-cc-pvtz-jkfit.gbs 
    atoms 3                               entry O          line   272 file /home/r08543048/miniconda3/share/psi4/basis/jun-cc-pvtz-jkfit.gbs 
    atoms 4                               entry N          line   212 file /home/r08543048/miniconda3/share/psi4/basis/jun-cc-pvtz-jkfit.gbs 
    atoms 5-9, 11-13, 15-16, 18-19, 21-23 entry H          line    70 file /home/r08543048/miniconda3/share/psi4/basis/jun-cc-pvtz-jkfit.gbs 

  ==> Pre-Iterations <==

   -------------------------------------------------------
    Irrep   Nso     Nmo     Nalpha   Nbeta   Ndocc  Nsocc
   -------------------------------------------------------
     A        522     522       0       0       0       0
   -------------------------------------------------------
    Total     522     522      33      33      33       0
   -------------------------------------------------------

  ==> Integral Setup <==

  ==> DiskDFJK: Density-Fitted J/K Matrices <==

    J tasked:                  Yes
    K tasked:                  Yes
    wK tasked:                  No
    OpenMP threads:              1
    Integrals threads:           1
    Memory [MiB]:            15735
    Algorithm:                Core
    Integral Cache:           SAVE
    Schwarz Cutoff:          1E-12
    Fitting Condition:       1E-10

   => Auxiliary Basis Set <=

  Basis Set: (JUN-CC-PVTZ AUX)
    Blend: JUN-CC-PVTZ-JKFIT
    Number of shells: 382
    Number of basis function: 1210
    Number of Cartesian functions: 1453
    Spherical Harmonics?: true
    Max angular momentum: 4

  Minimum eigenvalue in the overlap matrix is 3.6867163301E-05.
  Using Symmetric Orthogonalization.

  SCF Guess: Superposition of Atomic Densities via on-the-fly atomic UHF.

  ==> Iterations <==

                           Total Energy        Delta E     RMS |[F,P]|

   @DF-RHF iter SAD:  -364.19672835449279   -3.64197e+02   0.00000e+00 
   @DF-RHF iter   1:  -365.03874641569678   -8.42018e-01   1.58665e-03 DIIS
   @DF-RHF iter   2:  -365.33160651083881   -2.92860e-01   8.43407e-04 DIIS
   @DF-RHF iter   3:  -365.40933415727324   -7.77276e-02   1.70863e-04 DIIS
   @DF-RHF iter   4:  -365.41417075535657   -4.83660e-03   8.07961e-05 DIIS
   @DF-RHF iter   5:  -365.41514906351443   -9.78308e-04   1.30920e-05 DIIS
   @DF-RHF iter   6:  -365.41519825616029   -4.91926e-05   5.32616e-06 DIIS
   @DF-RHF iter   7:  -365.41520560646421   -7.35030e-06   1.87050e-06 DIIS
   @DF-RHF iter   8:  -365.41520705207699   -1.44561e-06   6.48051e-07 DIIS
   @DF-RHF iter   9:  -365.41520725238576   -2.00309e-07   1.98973e-07 DIIS
   @DF-RHF iter  10:  -365.41520726560486   -1.32191e-08   6.61696e-08 DIIS
   @DF-RHF iter  11:  -365.41520726703288   -1.42802e-09   1.84897e-08 DIIS
   @DF-RHF iter  12:  -365.41520726712565   -9.27685e-11   5.01678e-09 DIIS
  Energy and wave function converged.


  ==> Post-Iterations <==

    Orbital Energies [Eh]
    ---------------------

    Doubly Occupied:                                                      

       1A    -20.519508     2A    -15.588414     3A    -11.356682  
       4A    -11.239704     5A    -11.209074     6A    -11.205097  
       7A    -11.204048     8A    -11.198026     9A     -1.379949  
      10A     -1.215134    11A     -1.065687    12A     -1.009229  
      13A     -0.974689    14A     -0.854525    15A     -0.802502  
      16A     -0.781566    17A     -0.729287    18A     -0.667544  
      19A     -0.641881    20A     -0.611288    21A     -0.588183  
      22A     -0.578971    23A     -0.570280    24A     -0.568440  
      25A     -0.560103    26A     -0.525637    27A     -0.508169  
      28A     -0.488505    29A     -0.463030    30A     -0.456876  
      31A     -0.449981    32A     -0.427817    33A     -0.416456  

    Virtual:                                                              

      34A      0.040532    35A      0.050862    36A      0.058192  
      37A      0.062042    38A      0.071082    39A      0.078187  
      40A      0.081500    41A      0.089359    42A      0.091709  
      43A      0.105755    44A      0.111766    45A      0.116085  
      46A      0.123099    47A      0.126128    48A      0.130152  
      49A      0.134391    50A      0.144810    51A      0.154478  
      52A      0.161381    53A      0.167241    54A      0.175177  
      55A      0.183379    56A      0.189052    57A      0.195847  
      58A      0.201630    59A      0.208379    60A      0.210406  
      61A      0.228470    62A      0.231605    63A      0.247436  
      64A      0.255822    65A      0.265978    66A      0.275759  
      67A      0.278796    68A      0.287450    69A      0.295256  
      70A      0.296228    71A      0.300172    72A      0.307714  
      73A      0.315009    74A      0.318391    75A      0.324716  
      76A      0.330340    77A      0.333197    78A      0.335054  
      79A      0.344957    80A      0.349004    81A      0.352883  
      82A      0.358084    83A      0.370084    84A      0.371688  
      85A      0.381129    86A      0.387953    87A      0.395022  
      88A      0.396933    89A      0.403256    90A      0.416075  
      91A      0.418074    92A      0.422133    93A      0.429878  
      94A      0.442319    95A      0.452116    96A      0.458625  
      97A      0.467676    98A      0.479255    99A      0.485682  
     100A      0.498681   101A      0.510903   102A      0.514695  
     103A      0.523041   104A      0.526343   105A      0.536534  
     106A      0.539446   107A      0.544200   108A      0.552672  
     109A      0.557843   110A      0.568404   111A      0.574706  
     112A      0.585207   113A      0.591175   114A      0.595605  
     115A      0.604029   116A      0.611921   117A      0.620984  
     118A      0.626665   119A      0.633514   120A      0.648382  
     121A      0.665706   122A      0.669581   123A      0.686485  
     124A      0.699659   125A      0.709737   126A      0.715604  
     127A      0.716574   128A      0.746083   129A      0.747326  
     130A      0.754713   131A      0.760099   132A      0.777319  
     133A      0.786990   134A      0.793489   135A      0.796400  
     136A      0.804811   137A      0.814713   138A      0.818532  
     139A      0.832160   140A      0.834719   141A      0.845684  
     142A      0.848534   143A      0.855911   144A      0.859734  
     145A      0.867901   146A      0.873744   147A      0.881321  
     148A      0.890772   149A      0.907847   150A      0.914731  
     151A      0.924526   152A      0.939215   153A      0.940750  
     154A      0.956901   155A      0.967526   156A      0.975335  
     157A      0.985135   158A      0.998944   159A      1.004608  
     160A      1.015613   161A      1.019151   162A      1.034472  
     163A      1.050855   164A      1.058801   165A      1.085857  
     166A      1.103891   167A      1.113178   168A      1.126464  
     169A      1.134370   170A      1.145608   171A      1.152303  
     172A      1.172062   173A      1.179113   174A      1.202266  
     175A      1.211498   176A      1.227434   177A      1.229812  
     178A      1.248097   179A      1.255114   180A      1.260240  
     181A      1.270497   182A      1.295835   183A      1.301327  
     184A      1.314894   185A      1.328311   186A      1.343059  
     187A      1.354442   188A      1.363691   189A      1.372047  
     190A      1.381265   191A      1.392122   192A      1.396431  
     193A      1.411073   194A      1.415213   195A      1.423066  
     196A      1.440624   197A      1.447731   198A      1.455003  
     199A      1.462670   200A      1.477854   201A      1.483564  
     202A      1.491544   203A      1.504794   204A      1.517045  
     205A      1.524543   206A      1.530522   207A      1.535306  
     208A      1.549891   209A      1.550592   210A      1.570423  
     211A      1.575903   212A      1.577310   213A      1.594475  
     214A      1.612827   215A      1.619127   216A      1.628649  
     217A      1.632975   218A      1.639364   219A      1.644514  
     220A      1.655887   221A      1.663074   222A      1.669228  
     223A      1.682559   224A      1.698178   225A      1.712289  
     226A      1.742331   227A      1.746583   228A      1.749696  
     229A      1.766141   230A      1.792485   231A      1.802705  
     232A      1.823719   233A      1.830853   234A      1.850854  
     235A      1.868225   236A      1.894394   237A      1.905695  
     238A      1.906884   239A      1.926270   240A      1.936435  
     241A      1.952660   242A      1.962061   243A      1.975724  
     244A      1.992657   245A      2.020033   246A      2.038627  
     247A      2.054256   248A      2.072520   249A      2.095335  
     250A      2.170891   251A      2.188361   252A      2.226094  
     253A      2.277987   254A      2.462137   255A      2.477252  
     256A      2.502870   257A      2.527821   258A      2.719505  
     259A      2.738682   260A      2.755418   261A      2.762568  
     262A      2.783745   263A      2.790873   264A      2.829557  
     265A      2.857473   266A      2.862324   267A      2.887508  
     268A      2.898125   269A      2.910371   270A      2.919696  
     271A      2.933409   272A      2.947157   273A      2.959258  
     274A      2.962260   275A      2.975369   276A      3.030202  
     277A      3.032418   278A      3.043453   279A      3.067171  
     280A      3.074303   281A      3.108906   282A      3.113227  
     283A      3.134635   284A      3.143153   285A      3.154179  
     286A      3.157543   287A      3.172333   288A      3.185039  
     289A      3.193956   290A      3.201953   291A      3.216188  
     292A      3.232237   293A      3.250776   294A      3.259958  
     295A      3.270484   296A      3.287271   297A      3.291637  
     298A      3.306244   299A      3.314376   300A      3.327823  
     301A      3.340286   302A      3.348345   303A      3.358629  
     304A      3.364834   305A      3.394956   306A      3.409008  
     307A      3.420011   308A      3.422989   309A      3.427026  
     310A      3.435810   311A      3.447612   312A      3.454548  
     313A      3.458724   314A      3.472834   315A      3.478473  
     316A      3.484194   317A      3.494567   318A      3.510325  
     319A      3.519065   320A      3.524653   321A      3.534766  
     322A      3.548325   323A      3.554681   324A      3.568594  
     325A      3.577990   326A      3.584303   327A      3.599801  
     328A      3.607527   329A      3.613173   330A      3.626987  
     331A      3.636207   332A      3.639335   333A      3.658981  
     334A      3.670653   335A      3.680709   336A      3.689141  
     337A      3.706516   338A      3.716632   339A      3.742414  
     340A      3.745254   341A      3.764741   342A      3.776711  
     343A      3.779986   344A      3.800237   345A      3.807489  
     346A      3.837121   347A      3.838384   348A      3.841481  
     349A      3.847203   350A      3.867103   351A      3.880825  
     352A      3.889454   353A      3.908390   354A      3.941484  
     355A      3.955767   356A      3.961533   357A      3.970123  
     358A      3.972317   359A      3.980087   360A      3.991463  
     361A      3.993136   362A      4.015380   363A      4.021371  
     364A      4.037280   365A      4.080813   366A      4.093896  
     367A      4.112256   368A      4.148679   369A      4.161375  
     370A      4.180141   371A      4.188343   372A      4.194869  
     373A      4.209856   374A      4.218931   375A      4.232659  
     376A      4.244837   377A      4.256402   378A      4.265464  
     379A      4.279048   380A      4.281904   381A      4.307522  
     382A      4.320476   383A      4.328585   384A      4.340756  
     385A      4.350409   386A      4.364555   387A      4.372287  
     388A      4.381424   389A      4.385316   390A      4.395774  
     391A      4.406215   392A      4.414747   393A      4.431103  
     394A      4.433109   395A      4.444678   396A      4.464981  
     397A      4.479003   398A      4.480556   399A      4.495103  
     400A      4.502617   401A      4.508660   402A      4.533238  
     403A      4.548475   404A      4.549298   405A      4.562364  
     406A      4.566965   407A      4.588162   408A      4.607287  
     409A      4.620005   410A      4.630663   411A      4.639708  
     412A      4.647479   413A      4.664360   414A      4.671005  
     415A      4.683092   416A      4.693279   417A      4.718475  
     418A      4.729302   419A      4.750259   420A      4.755589  
     421A      4.794355   422A      4.820477   423A      4.834092  
     424A      4.854279   425A      4.860469   426A      4.892085  
     427A      4.897543   428A      4.916695   429A      4.929694  
     430A      4.959415   431A      4.973043   432A      5.045526  
     433A      5.069430   434A      5.117079   435A      5.123540  
     436A      5.136901   437A      5.143488   438A      5.145554  
     439A      5.167559   440A      5.187891   441A      5.191603  
     442A      5.234054   443A      5.243869   444A      5.265147  
     445A      5.268553   446A      5.274625   447A      5.302855  
     448A      5.315357   449A      5.325858   450A      5.333978  
     451A      5.363999   452A      5.366965   453A      5.380806  
     454A      5.386047   455A      5.440598   456A      5.458095  
     457A      5.470751   458A      5.480506   459A      5.495592  
     460A      5.536963   461A      5.546150   462A      5.562447  
     463A      5.567548   464A      5.625093   465A      5.635484  
     466A      5.661117   467A      5.668492   468A      5.679315  
     469A      5.695334   470A      5.736228   471A      5.742784  
     472A      5.757549   473A      5.769904   474A      5.784931  
     475A      5.792697   476A      5.811462   477A      5.820549  
     478A      5.854061   479A      5.869055   480A      5.906855  
     481A      5.914477   482A      5.927537   483A      5.964480  
     484A      5.973692   485A      5.997226   486A      6.005522  
     487A      6.018255   488A      6.034986   489A      6.088926  
     490A      6.100776   491A      6.190957   492A      6.200830  
     493A      6.233582   494A      6.322775   495A      6.452903  
     496A      6.470344   497A      6.501255   498A      6.526693  
     499A      6.535293   500A      6.561344   501A      6.567329  
     502A      6.622440   503A      6.653101   504A      6.687925  
     505A      6.773390   506A      6.830437   507A      7.212827  
     508A      7.321395   509A      7.369451   510A      7.438143  
     511A      7.463946   512A      7.526340   513A      7.736390  
     514A      7.794586   515A     12.251915   516A     13.737127  
     517A     14.040111   518A     14.284006   519A     14.549335  
     520A     14.704527   521A     14.798343   522A     15.470682  

    Final Occupation by Irrep:
              A 
    DOCC [    33 ]

  @DF-RHF Final Energy:  -365.41520726712565

   => Energetics <=

    Nuclear Repulsion Energy =            395.1104729655411916
    One-Electron Energy =               -1279.3388015031723626
    Two-Electron Energy =                 518.8131212705054622
    Total Energy =                       -365.4152072671256519

Computation Completed


Properties will be evaluated at   0.000000,   0.000000,   0.000000 [a0]

Properties computed using the SCF density matrix

  Nuclear Dipole Moment: [e a0]
     X:     8.1130      Y:    -1.1580      Z:    -4.1636

  Electronic Dipole Moment: [e a0]
     X:    -8.5448      Y:     0.9880      Z:     2.6889

  Dipole Moment: [e a0]
     X:    -0.4318      Y:    -0.1700      Z:    -1.4747     Total:     1.5460

  Dipole Moment: [D]
     X:    -1.0975      Y:    -0.4321      Z:    -3.7484     Total:     3.9296


*** tstop() called on r282 at Sat Sep 11 01:35:24 2021
Module time:
	user time   =      82.97 seconds =       1.38 minutes
	system time =       1.65 seconds =       0.03 minutes
	total time  =         85 seconds =       1.42 minutes
Total time:
	user time   =      82.97 seconds =       1.38 minutes
	system time =       1.65 seconds =       0.03 minutes
	total time  =         85 seconds =       1.42 minutes

  //>>>>>>>>>>>>>>>>>>>>>>>>>>>>>>>>>>>//
  //            Monomer A HF           //
  //<<<<<<<<<<<<<<<<<<<<<<<<<<<<<<<<<<<//


*** tstart() called on r282
*** at Sat Sep 11 01:35:24 2021

   => Loading Basis Set <=

    Name: JUN-CC-PVTZ
    Role: ORBITAL
    Keyword: BASIS
    atoms 1-2, 10, 14, 17, 20             entry C          line   217 file /home/r08543048/miniconda3/share/psi4/basis/jun-cc-pvtz.gbs 
    atoms 3                               entry O          line   305 file /home/r08543048/miniconda3/share/psi4/basis/jun-cc-pvtz.gbs 
    atoms 4                               entry N          line   261 file /home/r08543048/miniconda3/share/psi4/basis/jun-cc-pvtz.gbs 
    atoms 5-9, 11-13, 15-16, 18-19, 21-23 entry H          line    36 file /home/r08543048/miniconda3/share/psi4/basis/jun-cc-pvtz.gbs 


         ---------------------------------------------------------
                                   SCF
               by Justin Turney, Rob Parrish, Andy Simmonett
                          and Daniel G. A. Smith
                              RHF Reference
                        1 Threads,  20980 MiB Core
         ---------------------------------------------------------

  ==> Geometry <==

    Molecular point group: c1
    Full point group: C1

    Geometry (in Angstrom), charge = 0, multiplicity = 1:

       Center              X                  Y                   Z               Mass       
    ------------   -----------------  -----------------  -----------------  -----------------
         C           -1.529749424699    -1.619531617483    -0.363116038207    12.000000000000
         C           -1.735596424699    -0.222293617483     0.169792961793    12.000000000000
         O           -1.470431424699     0.089268382517     1.322870961793    15.994914619570
         N           -2.279941424699     0.664427382517    -0.711932038207    14.003074004430
         H           -2.413493424699    -2.213654617483    -0.131105038207     1.007825032230
         H           -1.371476424699    -1.639603617483    -1.439957038207     1.007825032230
         H           -0.677411424699    -2.062057617483     0.143843961793     1.007825032230
         H           -2.403587424699     1.616315382517    -0.412019038207     1.007825032230
         H           -2.398774424699     0.438806382517    -1.681497038207     1.007825032230
      Gh(C)           1.097900575301     2.080037382517    -0.008663038207    12.000000000000
      Gh(H)           1.921845575301     2.557187382517     0.523878961793     1.007825032230
      Gh(H)           0.289579575301     1.914618382517     0.704592961793     1.007825032230
      Gh(H)           0.748797575301     2.775781382517    -0.772422038207     1.007825032230
      Gh(C)           1.548863575301     0.758191382517    -0.617370038207    12.000000000000
      Gh(H)           0.725815575301     0.313113382517    -1.185335038207     1.007825032230
      Gh(H)           2.355969575301     0.932808382517    -1.335102038207     1.007825032230
      Gh(C)           2.020059575301    -0.236839617483     0.436000961793    12.000000000000
      Gh(H)           1.204609575301    -0.417742617483     1.140851961793     1.007825032230
      Gh(H)           2.834051575301     0.213266382517     1.010959961793     1.007825032230
      Gh(C)           2.492129575301    -1.550278617483    -0.175382038207    12.000000000000
      Gh(H)           3.334247575301    -1.384597617483    -0.849014038207     1.007825032230
      Gh(H)           2.809167575301    -2.260068617483     0.588492961793     1.007825032230
      Gh(H)           1.695260575301    -2.017808617483    -0.756470038207     1.007825032230

  Running in c1 symmetry.

  Rotational constants: A =      0.07337  B =      0.03678  C =      0.02946 [cm^-1]
  Rotational constants: A =   2199.47097  B =   1102.78204  C =    883.04252 [MHz]
  Nuclear repulsion =  121.768461620464720

  Charge       = 0
  Multiplicity = 1
  Electrons    = 32
  Nalpha       = 16
  Nbeta        = 16

  ==> Algorithm <==

  SCF Algorithm Type is DF.
  DIIS enabled.
  MOM disabled.
  Fractional occupation disabled.
  Guess Type is SAD.
  Energy threshold   = 1.00e-08
  Density threshold  = 1.00e-08
  Integral threshold = 0.00e+00

  ==> Primary Basis <==

  Basis Set: JUN-CC-PVTZ
    Blend: JUN-CC-PVTZ
    Number of shells: 194
    Number of basis function: 522
    Number of Cartesian functions: 585
    Spherical Harmonics?: true
    Max angular momentum: 3

   => Loading Basis Set <=

    Name: (JUN-CC-PVTZ AUX)
    Role: JKFIT
    Keyword: DF_BASIS_SCF
    atoms 1-2, 10, 14, 17, 20             entry C          line   152 file /home/r08543048/miniconda3/share/psi4/basis/jun-cc-pvtz-jkfit.gbs 
    atoms 3                               entry O          line   272 file /home/r08543048/miniconda3/share/psi4/basis/jun-cc-pvtz-jkfit.gbs 
    atoms 4                               entry N          line   212 file /home/r08543048/miniconda3/share/psi4/basis/jun-cc-pvtz-jkfit.gbs 
    atoms 5-9, 11-13, 15-16, 18-19, 21-23 entry H          line    70 file /home/r08543048/miniconda3/share/psi4/basis/jun-cc-pvtz-jkfit.gbs 

  ==> Pre-Iterations <==

   -------------------------------------------------------
    Irrep   Nso     Nmo     Nalpha   Nbeta   Ndocc  Nsocc
   -------------------------------------------------------
     A        522     522       0       0       0       0
   -------------------------------------------------------
    Total     522     522      16      16      16       0
   -------------------------------------------------------

  ==> Integral Setup <==

  ==> DiskDFJK: Density-Fitted J/K Matrices <==

    J tasked:                  Yes
    K tasked:                  Yes
    wK tasked:                  No
    OpenMP threads:              1
    Integrals threads:           1
    Memory [MiB]:            15735
    Algorithm:                Core
    Integral Cache:           LOAD
    Schwarz Cutoff:          1E-12
    Fitting Condition:       1E-10

   => Auxiliary Basis Set <=

  Basis Set: (JUN-CC-PVTZ AUX)
    Blend: JUN-CC-PVTZ-JKFIT
    Number of shells: 382
    Number of basis function: 1210
    Number of Cartesian functions: 1453
    Spherical Harmonics?: true
    Max angular momentum: 4

  Minimum eigenvalue in the overlap matrix is 3.6867163301E-05.
  Using Symmetric Orthogonalization.

  SCF Guess: Superposition of Atomic Densities via on-the-fly atomic UHF.

  ==> Iterations <==

                           Total Energy        Delta E     RMS |[F,P]|

   @DF-RHF iter SAD:  -207.24289803463120   -2.07243e+02   0.00000e+00 
   @DF-RHF iter   1:  -207.88897927319769   -6.46081e-01   1.15681e-03 DIIS
   @DF-RHF iter   2:  -208.01693497498528   -1.27956e-01   6.88424e-04 DIIS
   @DF-RHF iter   3:  -208.05932314957346   -4.23882e-02   1.27072e-04 DIIS
   @DF-RHF iter   4:  -208.06175972366552   -2.43657e-03   5.25033e-05 DIIS
   @DF-RHF iter   5:  -208.06226297854496   -5.03255e-04   9.87763e-06 DIIS
   @DF-RHF iter   6:  -208.06229545194410   -3.24734e-05   4.78571e-06 DIIS
   @DF-RHF iter   7:  -208.06230160485552   -6.15291e-06   1.81984e-06 DIIS
   @DF-RHF iter   8:  -208.06230293574981   -1.33089e-06   5.70586e-07 DIIS
   @DF-RHF iter   9:  -208.06230308879927   -1.53049e-07   1.43293e-07 DIIS
   @DF-RHF iter  10:  -208.06230309603370   -7.23443e-09   4.63364e-08 DIIS
   @DF-RHF iter  11:  -208.06230309667868   -6.44974e-10   1.21517e-08 DIIS
   @DF-RHF iter  12:  -208.06230309672154   -4.28599e-11   2.52316e-09 DIIS
  Energy and wave function converged.


  ==> Post-Iterations <==

    Orbital Energies [Eh]
    ---------------------

    Doubly Occupied:                                                      

       1A    -20.517171     2A    -15.587186     3A    -11.354404  
       4A    -11.238665     5A     -1.376608     6A     -1.213316  
       7A     -1.007481     8A     -0.800636     9A     -0.727689  
      10A     -0.664767    11A     -0.616764    12A     -0.585536  
      13A     -0.563471    14A     -0.525378    15A     -0.425388  
      16A     -0.415352  

    Virtual:                                                              

      17A      0.028868    18A      0.043370    19A      0.047753  
      20A      0.057584    21A      0.067560    22A      0.072558  
      23A      0.080383    24A      0.085148    25A      0.086267  
      26A      0.103976    27A      0.107457    28A      0.110711  
      29A      0.115529    30A      0.121458    31A      0.124464  
      32A      0.131609    33A      0.133303    34A      0.146062  
      35A      0.147755    36A      0.155023    37A      0.162813  
      38A      0.169857    39A      0.173093    40A      0.177949  
      41A      0.183473    42A      0.184837    43A      0.203926  
      44A      0.208861    45A      0.220953    46A      0.239177  
      47A      0.249440    48A      0.257836    49A      0.266680  
      50A      0.273556    51A      0.275843    52A      0.281785  
      53A      0.288318    54A      0.297021    55A      0.302670  
      56A      0.306404    57A      0.312570    58A      0.320203  
      59A      0.328804    60A      0.335523    61A      0.343331  
      62A      0.348183    63A      0.349664    64A      0.356013  
      65A      0.358127    66A      0.372336    67A      0.372675  
      68A      0.381151    69A      0.388832    70A      0.399457  
      71A      0.401969    72A      0.405460    73A      0.414531  
      74A      0.420300    75A      0.423866    76A      0.434567  
      77A      0.450904    78A      0.455907    79A      0.475251  
      80A      0.479188    81A      0.488468    82A      0.495759  
      83A      0.508105    84A      0.513312    85A      0.517881  
      86A      0.527629    87A      0.533066    88A      0.545746  
      89A      0.546591    90A      0.555968    91A      0.562758  
      92A      0.567655    93A      0.577091    94A      0.582747  
      95A      0.594457    96A      0.602551    97A      0.605212  
      98A      0.611945    99A      0.617276   100A      0.620156  
     101A      0.630844   102A      0.645416   103A      0.648292  
     104A      0.654860   105A      0.661506   106A      0.670018  
     107A      0.677996   108A      0.684893   109A      0.691950  
     110A      0.699192   111A      0.700486   112A      0.710801  
     113A      0.719993   114A      0.735698   115A      0.737482  
     116A      0.761998   117A      0.782927   118A      0.784799  
     119A      0.796099   120A      0.803414   121A      0.815658  
     122A      0.826739   123A      0.835233   124A      0.843997  
     125A      0.868319   126A      0.890897   127A      0.894636  
     128A      0.908440   129A      0.927004   130A      0.957323  
     131A      0.973464   132A      0.979480   133A      0.991386  
     134A      1.024608   135A      1.050270   136A      1.057826  
     137A      1.074347   138A      1.079719   139A      1.086930  
     140A      1.093784   141A      1.108739   142A      1.118397  
     143A      1.126478   144A      1.132576   145A      1.143643  
     146A      1.150602   147A      1.164236   148A      1.176010  
     149A      1.192750   150A      1.199541   151A      1.218764  
     152A      1.220317   153A      1.226942   154A      1.233735  
     155A      1.244316   156A      1.254476   157A      1.261726  
     158A      1.274739   159A      1.278799   160A      1.285681  
     161A      1.295546   162A      1.298785   163A      1.314481  
     164A      1.322802   165A      1.334883   166A      1.350571  
     167A      1.353033   168A      1.363132   169A      1.370257  
     170A      1.377909   171A      1.387190   172A      1.392196  
     173A      1.398841   174A      1.400333   175A      1.402251  
     176A      1.416725   177A      1.435115   178A      1.438269  
     179A      1.447350   180A      1.456078   181A      1.465085  
     182A      1.475055   183A      1.493182   184A      1.505170  
     185A      1.510888   186A      1.523487   187A      1.533169  
     188A      1.547728   189A      1.557173   190A      1.565473  
     191A      1.572304   192A      1.575233   193A      1.575876  
     194A      1.593214   195A      1.601642   196A      1.613776  
     197A      1.631676   198A      1.637943   199A      1.639614  
     200A      1.650894   201A      1.659182   202A      1.671817  
     203A      1.685968   204A      1.703008   205A      1.707007  
     206A      1.720826   207A      1.741234   208A      1.753016  
     209A      1.756099   210A      1.771619   211A      1.781948  
     212A      1.806755   213A      1.833607   214A      1.844568  
     215A      1.855947   216A      1.866104   217A      1.883009  
     218A      1.922582   219A      1.934408   220A      1.947616  
     221A      1.953582   222A      1.960060   223A      1.999411  
     224A      2.009405   225A      2.018773   226A      2.078269  
     227A      2.109288   228A      2.115786   229A      2.131726  
     230A      2.174330   231A      2.180332   232A      2.187599  
     233A      2.219788   234A      2.244092   235A      2.265053  
     236A      2.292049   237A      2.315738   238A      2.335507  
     239A      2.338027   240A      2.394294   241A      2.420535  
     242A      2.451209   243A      2.473084   244A      2.489115  
     245A      2.495779   246A      2.518694   247A      2.528483  
     248A      2.544329   249A      2.551026   250A      2.627110  
     251A      2.647599   252A      2.672808   253A      2.685960  
     254A      2.767374   255A      2.775614   256A      2.794533  
     257A      2.896685   258A      2.933473   259A      2.953142  
     260A      2.981897   261A      3.069311   262A      3.090037  
     263A      3.126399   264A      3.185885   265A      3.216078  
     266A      3.232633   267A      3.252593   268A      3.291674  
     269A      3.311198   270A      3.357083   271A      3.366824  
     272A      3.404467   273A      3.424983   274A      3.443576  
     275A      3.455805   276A      3.463161   277A      3.509128  
     278A      3.522454   279A      3.538274   280A      3.550694  
     281A      3.561241   282A      3.574283   283A      3.578637  
     284A      3.586199   285A      3.592324   286A      3.600769  
     287A      3.610231   288A      3.619304   289A      3.628933  
     290A      3.648812   291A      3.652126   292A      3.653625  
     293A      3.668443   294A      3.680849   295A      3.685665  
     296A      3.705592   297A      3.733597   298A      3.760172  
     299A      3.776444   300A      3.791205   301A      3.794720  
     302A      3.805969   303A      3.816771   304A      3.832206  
     305A      3.837725   306A      3.847542   307A      3.857100  
     308A      3.863600   309A      3.873512   310A      3.888076  
     311A      3.890701   312A      3.905519   313A      3.915236  
     314A      3.926551   315A      3.935797   316A      3.949223  
     317A      3.955016   318A      3.968106   319A      3.982660  
     320A      4.005699   321A      4.024382   322A      4.032356  
     323A      4.070845   324A      4.080213   325A      4.102750  
     326A      4.114792   327A      4.146244   328A      4.152378  
     329A      4.161199   330A      4.170456   331A      4.179699  
     332A      4.186036   333A      4.203556   334A      4.216143  
     335A      4.240676   336A      4.248515   337A      4.276114  
     338A      4.289233   339A      4.307246   340A      4.322590  
     341A      4.337124   342A      4.346774   343A      4.366715  
     344A      4.372035   345A      4.384624   346A      4.385428  
     347A      4.397141   348A      4.416703   349A      4.434898  
     350A      4.444179   351A      4.465043   352A      4.476832  
     353A      4.485392   354A      4.492105   355A      4.507529  
     356A      4.521347   357A      4.531987   358A      4.539213  
     359A      4.556495   360A      4.561613   361A      4.578667  
     362A      4.591092   363A      4.593534   364A      4.613072  
     365A      4.622396   366A      4.628283   367A      4.636985  
     368A      4.648919   369A      4.660688   370A      4.675832  
     371A      4.677745   372A      4.684344   373A      4.706802  
     374A      4.720734   375A      4.736087   376A      4.747559  
     377A      4.752017   378A      4.758093   379A      4.769528  
     380A      4.786280   381A      4.788867   382A      4.801039  
     383A      4.804370   384A      4.820526   385A      4.829754  
     386A      4.849807   387A      4.852167   388A      4.872311  
     389A      4.879869   390A      4.897726   391A      4.898741  
     392A      4.907355   393A      4.909417   394A      4.924392  
     395A      4.942241   396A      4.948043   397A      4.951152  
     398A      4.953318   399A      4.966518   400A      4.985528  
     401A      4.993374   402A      5.010207   403A      5.013761  
     404A      5.033130   405A      5.054586   406A      5.070231  
     407A      5.083081   408A      5.098169   409A      5.131783  
     410A      5.133465   411A      5.152574   412A      5.158487  
     413A      5.175910   414A      5.187600   415A      5.202093  
     416A      5.214829   417A      5.230929   418A      5.246018  
     419A      5.261069   420A      5.270907   421A      5.297655  
     422A      5.324915   423A      5.345425   424A      5.378723  
     425A      5.384813   426A      5.400597   427A      5.445043  
     428A      5.466349   429A      5.481244   430A      5.497121  
     431A      5.519792   432A      5.534199   433A      5.553473  
     434A      5.569040   435A      5.577293   436A      5.627860  
     437A      5.650422   438A      5.662189   439A      5.668388  
     440A      5.697858   441A      5.700769   442A      5.741872  
     443A      5.745281   444A      5.792166   445A      5.803187  
     446A      5.817662   447A      5.837552   448A      5.861903  
     449A      5.917960   450A      5.921613   451A      5.961354  
     452A      6.004421   453A      6.030906   454A      6.035848  
     455A      6.039990   456A      6.074233   457A      6.100874  
     458A      6.116939   459A      6.144444   460A      6.193811  
     461A      6.234308   462A      6.267764   463A      6.323714  
     464A      6.328568   465A      6.352272   466A      6.381646  
     467A      6.400378   468A      6.402283   469A      6.432304  
     470A      6.456315   471A      6.467416   472A      6.482908  
     473A      6.503379   474A      6.518016   475A      6.549123  
     476A      6.565828   477A      6.689803   478A      6.746715  
     479A      6.774157   480A      6.797881   481A      6.822792  
     482A      6.831141   483A      6.953091   484A      7.058772  
     485A      7.216430   486A      7.272078   487A      7.324917  
     488A      7.371243   489A      7.438277   490A      7.465367  
     491A      7.515718   492A      7.526545   493A      7.553219  
     494A      7.587497   495A      7.600250   496A      7.610819  
     497A      7.690454   498A      7.722014   499A      7.743202  
     500A      7.752538   501A      7.800779   502A      7.816636  
     503A      7.819808   504A      7.851658   505A      7.940725  
     506A      7.949558   507A      8.125607   508A      8.308745  
     509A      8.451840   510A      8.651047   511A      9.604600  
     512A      9.703672   513A      9.894182   514A      9.952451  
     515A     12.266072   516A     14.054521   517A     14.774315  
     518A     15.466660   519A     43.841074   520A     45.464305  
     521A     45.565203   522A     45.847145  

    Final Occupation by Irrep:
              A 
    DOCC [    16 ]

  @DF-RHF Final Energy:  -208.06230309672154

   => Energetics <=

    Nuclear Repulsion Energy =            121.7684616204647199
    One-Electron Energy =                -524.4219068531180028
    Two-Electron Energy =                 194.5911421359317330
    Total Energy =                       -208.0623030967215357

Computation Completed


Properties will be evaluated at   0.000000,   0.000000,   0.000000 [a0]

Properties computed using the SCF density matrix

  Nuclear Dipole Moment: [e a0]
     X:  -106.9204      Y:   -18.0393      Z:     1.7362

  Electronic Dipole Moment: [e a0]
     X:   106.5586      Y:    17.8537      Z:    -3.3627

  Dipole Moment: [e a0]
     X:    -0.3619      Y:    -0.1856      Z:    -1.6264     Total:     1.6765

  Dipole Moment: [D]
     X:    -0.9197      Y:    -0.4718      Z:    -4.1340     Total:     4.2613


*** tstop() called on r282 at Sat Sep 11 01:36:13 2021
Module time:
	user time   =      47.75 seconds =       0.80 minutes
	system time =       0.80 seconds =       0.01 minutes
	total time  =         49 seconds =       0.82 minutes
Total time:
	user time   =     130.72 seconds =       2.18 minutes
	system time =       2.45 seconds =       0.04 minutes
	total time  =        134 seconds =       2.23 minutes

  //>>>>>>>>>>>>>>>>>>>>>>>>>>>>>>>>>>>//
  //            Monomer B HF           //
  //<<<<<<<<<<<<<<<<<<<<<<<<<<<<<<<<<<<//


*** tstart() called on r282
*** at Sat Sep 11 01:36:13 2021

   => Loading Basis Set <=

    Name: JUN-CC-PVTZ
    Role: ORBITAL
    Keyword: BASIS
    atoms 1-2, 10, 14, 17, 20             entry C          line   217 file /home/r08543048/miniconda3/share/psi4/basis/jun-cc-pvtz.gbs 
    atoms 3                               entry O          line   305 file /home/r08543048/miniconda3/share/psi4/basis/jun-cc-pvtz.gbs 
    atoms 4                               entry N          line   261 file /home/r08543048/miniconda3/share/psi4/basis/jun-cc-pvtz.gbs 
    atoms 5-9, 11-13, 15-16, 18-19, 21-23 entry H          line    36 file /home/r08543048/miniconda3/share/psi4/basis/jun-cc-pvtz.gbs 


         ---------------------------------------------------------
                                   SCF
               by Justin Turney, Rob Parrish, Andy Simmonett
                          and Daniel G. A. Smith
                              RHF Reference
                        1 Threads,  20980 MiB Core
         ---------------------------------------------------------

  ==> Geometry <==

    Molecular point group: c1
    Full point group: C1

    Geometry (in Angstrom), charge = 0, multiplicity = 1:

       Center              X                  Y                   Z               Mass       
    ------------   -----------------  -----------------  -----------------  -----------------
      Gh(C)          -1.529749424699    -1.619531617483    -0.363116038207    12.000000000000
      Gh(C)          -1.735596424699    -0.222293617483     0.169792961793    12.000000000000
      Gh(O)          -1.470431424699     0.089268382517     1.322870961793    15.994914619570
      Gh(N)          -2.279941424699     0.664427382517    -0.711932038207    14.003074004430
      Gh(H)          -2.413493424699    -2.213654617483    -0.131105038207     1.007825032230
      Gh(H)          -1.371476424699    -1.639603617483    -1.439957038207     1.007825032230
      Gh(H)          -0.677411424699    -2.062057617483     0.143843961793     1.007825032230
      Gh(H)          -2.403587424699     1.616315382517    -0.412019038207     1.007825032230
      Gh(H)          -2.398774424699     0.438806382517    -1.681497038207     1.007825032230
         C            1.097900575301     2.080037382517    -0.008663038207    12.000000000000
         H            1.921845575301     2.557187382517     0.523878961793     1.007825032230
         H            0.289579575301     1.914618382517     0.704592961793     1.007825032230
         H            0.748797575301     2.775781382517    -0.772422038207     1.007825032230
         C            1.548863575301     0.758191382517    -0.617370038207    12.000000000000
         H            0.725815575301     0.313113382517    -1.185335038207     1.007825032230
         H            2.355969575301     0.932808382517    -1.335102038207     1.007825032230
         C            2.020059575301    -0.236839617483     0.436000961793    12.000000000000
         H            1.204609575301    -0.417742617483     1.140851961793     1.007825032230
         H            2.834051575301     0.213266382517     1.010959961793     1.007825032230
         C            2.492129575301    -1.550278617483    -0.175382038207    12.000000000000
         H            3.334247575301    -1.384597617483    -0.849014038207     1.007825032230
         H            2.809167575301    -2.260068617483     0.588492961793     1.007825032230
         H            1.695260575301    -2.017808617483    -0.756470038207     1.007825032230

  Running in c1 symmetry.

  Rotational constants: A =      0.07337  B =      0.03678  C =      0.02946 [cm^-1]
  Rotational constants: A =   2199.47097  B =   1102.78204  C =    883.04252 [MHz]
  Nuclear repulsion =  131.097399160196488

  Charge       = 0
  Multiplicity = 1
  Electrons    = 34
  Nalpha       = 17
  Nbeta        = 17

  ==> Algorithm <==

  SCF Algorithm Type is DF.
  DIIS enabled.
  MOM disabled.
  Fractional occupation disabled.
  Guess Type is SAD.
  Energy threshold   = 1.00e-08
  Density threshold  = 1.00e-08
  Integral threshold = 0.00e+00

  ==> Primary Basis <==

  Basis Set: JUN-CC-PVTZ
    Blend: JUN-CC-PVTZ
    Number of shells: 194
    Number of basis function: 522
    Number of Cartesian functions: 585
    Spherical Harmonics?: true
    Max angular momentum: 3

   => Loading Basis Set <=

    Name: (JUN-CC-PVTZ AUX)
    Role: JKFIT
    Keyword: DF_BASIS_SCF
    atoms 1-2, 10, 14, 17, 20             entry C          line   152 file /home/r08543048/miniconda3/share/psi4/basis/jun-cc-pvtz-jkfit.gbs 
    atoms 3                               entry O          line   272 file /home/r08543048/miniconda3/share/psi4/basis/jun-cc-pvtz-jkfit.gbs 
    atoms 4                               entry N          line   212 file /home/r08543048/miniconda3/share/psi4/basis/jun-cc-pvtz-jkfit.gbs 
    atoms 5-9, 11-13, 15-16, 18-19, 21-23 entry H          line    70 file /home/r08543048/miniconda3/share/psi4/basis/jun-cc-pvtz-jkfit.gbs 

  ==> Pre-Iterations <==

   -------------------------------------------------------
    Irrep   Nso     Nmo     Nalpha   Nbeta   Ndocc  Nsocc
   -------------------------------------------------------
     A        522     522       0       0       0       0
   -------------------------------------------------------
    Total     522     522      17      17      17       0
   -------------------------------------------------------

  ==> Integral Setup <==

  ==> DiskDFJK: Density-Fitted J/K Matrices <==

    J tasked:                  Yes
    K tasked:                  Yes
    wK tasked:                  No
    OpenMP threads:              1
    Integrals threads:           1
    Memory [MiB]:            15735
    Algorithm:                Core
    Integral Cache:           LOAD
    Schwarz Cutoff:          1E-12
    Fitting Condition:       1E-10

   => Auxiliary Basis Set <=

  Basis Set: (JUN-CC-PVTZ AUX)
    Blend: JUN-CC-PVTZ-JKFIT
    Number of shells: 382
    Number of basis function: 1210
    Number of Cartesian functions: 1453
    Spherical Harmonics?: true
    Max angular momentum: 4

  Minimum eigenvalue in the overlap matrix is 3.6867163301E-05.
  Using Symmetric Orthogonalization.

  SCF Guess: Superposition of Atomic Densities via on-the-fly atomic UHF.

  ==> Iterations <==

                           Total Energy        Delta E     RMS |[F,P]|

   @DF-RHF iter SAD:  -156.79438515579653   -1.56794e+02   0.00000e+00 
   @DF-RHF iter   1:  -157.14973756988465   -3.55352e-01   1.10413e-03 DIIS
   @DF-RHF iter   2:  -157.31611372155666   -1.66376e-01   5.13324e-04 DIIS
   @DF-RHF iter   3:  -157.35336624923909   -3.72525e-02   9.04933e-05 DIIS
   @DF-RHF iter   4:  -157.35576008233659   -2.39383e-03   2.11320e-05 DIIS
   @DF-RHF iter   5:  -157.35585184953928   -9.17672e-05   5.45985e-06 DIIS
   @DF-RHF iter   6:  -157.35585950913466   -7.65960e-06   6.83347e-07 DIIS
   @DF-RHF iter   7:  -157.35585968885621   -1.79722e-07   1.20524e-07 DIIS
   @DF-RHF iter   8:  -157.35585969386250   -5.00629e-09   2.69805e-08 DIIS
   @DF-RHF iter   9:  -157.35585969413430   -2.71797e-10   6.15403e-09 DIIS
  Energy and wave function converged.


  ==> Post-Iterations <==

    Orbital Energies [Eh]
    ---------------------

    Doubly Occupied:                                                      

       1A    -11.213428     2A    -11.212796     3A    -11.207673  
       4A    -11.207638     5A     -1.071418     6A     -0.980159  
       7A     -0.860015     8A     -0.787408     9A     -0.639028  
      10A     -0.584258    11A     -0.575532    12A     -0.566787  
      13A     -0.514172    14A     -0.494036    15A     -0.469485  
      16A     -0.461575    17A     -0.455624  

    Virtual:                                                              

      18A      0.035053    19A      0.047152    20A      0.054574  
      21A      0.055565    22A      0.067587    23A      0.076401  
      24A      0.076910    25A      0.085126    26A      0.087942  
      27A      0.104713    28A      0.109505    29A      0.111157  
      30A      0.113697    31A      0.120867    32A      0.124851  
      33A      0.126598    34A      0.139661    35A      0.149801  
      36A      0.152759    37A      0.162253    38A      0.172295  
      39A      0.175184    40A      0.180456    41A      0.183140  
      42A      0.198392    43A      0.202131    44A      0.210783  
      45A      0.214826    46A      0.224935    47A      0.231820  
      48A      0.243944    49A      0.257204    50A      0.264252  
      51A      0.268944    52A      0.279575    53A      0.285434  
      54A      0.293698    55A      0.302049    56A      0.310695  
      57A      0.316607    58A      0.319579    59A      0.322919  
      60A      0.326880    61A      0.341736    62A      0.346206  
      63A      0.348221    64A      0.355271    65A      0.360903  
      66A      0.368776    67A      0.371705    68A      0.377482  
      69A      0.379830    70A      0.386015    71A      0.394321  
      72A      0.397171    73A      0.403621    74A      0.408132  
      75A      0.415473    76A      0.427473    77A      0.432252  
      78A      0.444306    79A      0.447214    80A      0.456069  
      81A      0.468281    82A      0.479400    83A      0.484686  
      84A      0.494167    85A      0.509015    86A      0.517223  
      87A      0.521614    88A      0.534004    89A      0.535502  
      90A      0.542618    91A      0.549695    92A      0.552331  
      93A      0.555372    94A      0.571400    95A      0.581903  
      96A      0.589013    97A      0.592191    98A      0.595928  
      99A      0.604195   100A      0.609583   101A      0.624495  
     102A      0.629829   103A      0.648788   104A      0.663075  
     105A      0.671646   106A      0.673685   107A      0.685567  
     108A      0.700044   109A      0.712547   110A      0.716735  
     111A      0.723793   112A      0.736986   113A      0.754522  
     114A      0.762496   115A      0.773558   116A      0.774136  
     117A      0.784779   118A      0.802838   119A      0.808932  
     120A      0.813309   121A      0.823080   122A      0.832459  
     123A      0.842414   124A      0.846724   125A      0.855717  
     126A      0.857252   127A      0.869519   128A      0.879130  
     129A      0.886817   130A      0.895002   131A      0.904890  
     132A      0.908180   133A      0.919256   134A      0.941465  
     135A      0.942957   136A      0.957333   137A      0.961189  
     138A      0.978043   139A      1.001491   140A      1.008923  
     141A      1.014007   142A      1.024928   143A      1.040880  
     144A      1.046494   145A      1.060605   146A      1.070448  
     147A      1.088473   148A      1.109674   149A      1.119054  
     150A      1.141978   151A      1.147984   152A      1.169159  
     153A      1.173906   154A      1.195715   155A      1.204926  
     156A      1.206260   157A      1.213552   158A      1.225723  
     159A      1.237332   160A      1.244538   161A      1.267324  
     162A      1.285554   163A      1.299881   164A      1.305123  
     165A      1.308571   166A      1.321542   167A      1.338879  
     168A      1.339356   169A      1.346724   170A      1.357702  
     171A      1.375193   172A      1.391460   173A      1.394131  
     174A      1.395411   175A      1.416447   176A      1.422899  
     177A      1.438746   178A      1.441396   179A      1.459167  
     180A      1.467446   181A      1.484902   182A      1.493055  
     183A      1.506680   184A      1.510971   185A      1.525061  
     186A      1.526505   187A      1.543377   188A      1.549298  
     189A      1.564185   190A      1.569318   191A      1.579193  
     192A      1.582573   193A      1.593169   194A      1.599382  
     195A      1.607331   196A      1.614632   197A      1.621831  
     198A      1.626906   199A      1.643295   200A      1.653377  
     201A      1.663794   202A      1.667578   203A      1.686041  
     204A      1.699464   205A      1.702600   206A      1.727708  
     207A      1.736571   208A      1.747341   209A      1.767237  
     210A      1.787834   211A      1.790612   212A      1.797097  
     213A      1.806599   214A      1.823642   215A      1.843129  
     216A      1.864046   217A      1.869145   218A      1.896722  
     219A      1.904168   220A      1.912713   221A      1.934599  
     222A      1.945244   223A      1.961749   224A      1.975188  
     225A      1.994457   226A      2.004192   227A      2.028136  
     228A      2.039027   229A      2.059272   230A      2.075585  
     231A      2.105283   232A      2.118669   233A      2.168010  
     234A      2.205459   235A      2.275221   236A      2.335520  
     237A      2.358517   238A      2.391721   239A      2.428289  
     240A      2.482542   241A      2.524214   242A      2.608050  
     243A      2.679571   244A      2.705938   245A      2.743782  
     246A      2.744815   247A      2.771767   248A      2.783889  
     249A      2.817018   250A      2.830345   251A      2.833640  
     252A      2.863437   253A      2.873508   254A      2.891801  
     255A      2.904579   256A      2.913771   257A      2.928432  
     258A      2.940432   259A      2.954149   260A      2.980292  
     261A      3.004074   262A      3.035729   263A      3.049172  
     264A      3.065561   265A      3.092360   266A      3.113906  
     267A      3.135849   268A      3.138691   269A      3.146834  
     270A      3.150893   271A      3.153917   272A      3.169965  
     273A      3.192794   274A      3.219737   275A      3.256359  
     276A      3.266687   277A      3.292147   278A      3.300741  
     279A      3.324656   280A      3.337057   281A      3.340987  
     282A      3.361962   283A      3.389622   284A      3.410394  
     285A      3.416637   286A      3.416978   287A      3.427732  
     288A      3.448115   289A      3.464680   290A      3.473409  
     291A      3.481129   292A      3.496433   293A      3.509682  
     294A      3.517689   295A      3.526900   296A      3.547313  
     297A      3.574306   298A      3.578542   299A      3.593415  
     300A      3.598770   301A      3.605475   302A      3.629624  
     303A      3.634090   304A      3.642577   305A      3.655067  
     306A      3.662235   307A      3.671151   308A      3.677680  
     309A      3.699642   310A      3.722195   311A      3.735007  
     312A      3.740671   313A      3.765637   314A      3.790241  
     315A      3.805789   316A      3.830856   317A      3.840894  
     318A      3.842462   319A      3.859846   320A      3.870006  
     321A      3.878269   322A      3.892360   323A      3.906236  
     324A      3.924643   325A      3.948426   326A      3.956305  
     327A      3.959628   328A      3.971480   329A      3.978348  
     330A      3.985684   331A      4.008252   332A      4.019975  
     333A      4.025480   334A      4.062495   335A      4.076381  
     336A      4.085042   337A      4.124097   338A      4.152171  
     339A      4.167237   340A      4.189138   341A      4.205018  
     342A      4.219646   343A      4.235270   344A      4.249889  
     345A      4.250755   346A      4.263763   347A      4.268282  
     348A      4.285673   349A      4.296976   350A      4.302178  
     351A      4.314376   352A      4.323975   353A      4.331793  
     354A      4.346505   355A      4.357397   356A      4.371485  
     357A      4.386262   358A      4.392667   359A      4.399689  
     360A      4.422900   361A      4.439946   362A      4.442064  
     363A      4.444788   364A      4.460553   365A      4.486171  
     366A      4.493515   367A      4.513684   368A      4.516593  
     369A      4.539411   370A      4.544060   371A      4.552509  
     372A      4.554178   373A      4.577211   374A      4.590296  
     375A      4.604435   376A      4.628028   377A      4.630909  
     378A      4.639895   379A      4.642211   380A      4.660470  
     381A      4.666075   382A      4.687110   383A      4.692836  
     384A      4.708482   385A      4.735212   386A      4.744446  
     387A      4.752037   388A      4.759394   389A      4.780128  
     390A      4.792841   391A      4.799895   392A      4.809085  
     393A      4.820393   394A      4.830256   395A      4.844460  
     396A      4.871436   397A      4.872967   398A      4.883372  
     399A      4.895801   400A      4.908377   401A      4.925854  
     402A      4.932840   403A      4.940188   404A      4.959291  
     405A      4.974863   406A      4.988275   407A      5.002926  
     408A      5.028178   409A      5.035245   410A      5.052899  
     411A      5.073364   412A      5.095536   413A      5.113870  
     414A      5.126716   415A      5.130360   416A      5.139946  
     417A      5.161837   418A      5.169922   419A      5.199738  
     420A      5.227499   421A      5.260198   422A      5.264010  
     423A      5.267799   424A      5.277306   425A      5.301096  
     426A      5.316932   427A      5.328315   428A      5.361446  
     429A      5.362475   430A      5.378340   431A      5.416413  
     432A      5.443447   433A      5.466420   434A      5.472694  
     435A      5.540830   436A      5.560926   437A      5.594996  
     438A      5.630517   439A      5.651654   440A      5.663596  
     441A      5.674520   442A      5.724429   443A      5.752287  
     444A      5.758499   445A      5.782562   446A      5.800319  
     447A      5.812020   448A      5.818268   449A      5.861037  
     450A      5.879371   451A      5.908596   452A      5.915343  
     453A      5.956721   454A      5.965088   455A      5.979522  
     456A      5.988676   457A      6.006475   458A      6.078053  
     459A      6.085565   460A      6.092584   461A      6.128087  
     462A      6.180588   463A      6.205057   464A      6.232948  
     465A      6.325367   466A      6.349667   467A      6.427379  
     468A      6.471989   469A      6.476668   470A      6.497509  
     471A      6.516164   472A      6.539912   473A      6.559939  
     474A      6.577999   475A      6.592305   476A      6.611189  
     477A      6.622922   478A      6.654288   479A      6.692617  
     480A      6.733609   481A      6.856350   482A      6.968874  
     483A      7.070056   484A      7.260027   485A      7.344585  
     486A      7.429210   487A      7.470883   488A      7.549898  
     489A      7.613838   490A      7.683222   491A      7.826160  
     492A      7.855644   493A      7.876204   494A      7.900814  
     495A      7.982331   496A      8.269608   497A      8.425854  
     498A      8.760049   499A      9.112724   500A      9.117191  
     501A      9.181007   502A      9.631857   503A      9.867502  
     504A      9.889039   505A      9.908832   506A      9.949249  
     507A     10.091438   508A     10.481408   509A     10.930273  
     510A     11.389692   511A     11.569693   512A     11.740083  
     513A     11.983821   514A     13.739668   515A     13.848992  
     516A     14.275349   517A     14.545888   518A     14.710354  
     519A     42.652225   520A     46.183875   521A     54.572587  
     522A     61.448212  

    Final Occupation by Irrep:
              A 
    DOCC [    17 ]

  @DF-RHF Final Energy:  -157.35585969413430

   => Energetics <=

    Nuclear Repulsion Energy =            131.0973991601964883
    One-Electron Energy =                -470.3044539124531411
    Two-Electron Energy =                 181.8511950581223857
    Total Energy =                       -157.3558596941342955

Computation Completed


Properties will be evaluated at   0.000000,   0.000000,   0.000000 [a0]

Properties computed using the SCF density matrix

  Nuclear Dipole Moment: [e a0]
     X:   115.0334      Y:    16.8813      Z:    -5.8998

  Electronic Dipole Moment: [e a0]
     X:  -115.0321      Y:   -16.8816      Z:     5.8996

  Dipole Moment: [e a0]
     X:     0.0013      Y:    -0.0002      Z:    -0.0003     Total:     0.0014

  Dipole Moment: [D]
     X:     0.0033      Y:    -0.0006      Z:    -0.0006     Total:     0.0035


*** tstop() called on r282 at Sat Sep 11 01:36:54 2021
Module time:
	user time   =      40.37 seconds =       0.67 minutes
	system time =       0.73 seconds =       0.01 minutes
	total time  =         41 seconds =       0.68 minutes
Total time:
	user time   =     171.10 seconds =       2.85 minutes
	system time =       3.18 seconds =       0.05 minutes
	total time  =        175 seconds =       2.92 minutes
  Constructing Basis Sets for SAPT...

   => Loading Basis Set <=

    Name: (JUN-CC-PVTZ AUX)
    Role: RIFIT
    Keyword: DF_BASIS_SAPT
    atoms 1-2, 10, 14, 17, 20             entry C          line   132 file /home/r08543048/miniconda3/share/psi4/basis/jun-cc-pvtz-ri.gbs 
    atoms 3                               entry O          line   244 file /home/r08543048/miniconda3/share/psi4/basis/jun-cc-pvtz-ri.gbs 
    atoms 4                               entry N          line   188 file /home/r08543048/miniconda3/share/psi4/basis/jun-cc-pvtz-ri.gbs 
    atoms 5-9, 11-13, 15-16, 18-19, 21-23 entry H          line    30 file /home/r08543048/miniconda3/share/psi4/basis/jun-cc-pvtz-ri.gbs 


  //>>>>>>>>>>>>>>>>>>>>>>>>>>>>>>>>>>>//
  //               SAPT0               //
  //<<<<<<<<<<<<<<<<<<<<<<<<<<<<<<<<<<<//


*** tstart() called on r282
*** at Sat Sep 11 01:36:54 2021

        SAPT0  
    Ed Hohenstein
     6 June 2009

      Orbital Information
  --------------------------
    NSO        =       522
    NMO        =       522
    NRI        =      1226
    NOCC A     =        16
    NOCC B     =        17
    FOCC A     =         0
    FOCC B     =         0
    NVIR A     =       506
    NVIR B     =       505

    Elst10,r            =    -0.003246510099 [Eh]
    Exch10              =     0.007593816440 [Eh]
    Exch10 (S^2)        =     0.007583159715 [Eh]

    Iter     Energy [mEh]          dE [mEh]         Residual      Time [s]
       1      -0.46083863       0.460838630       2.938272274             1
       2      -0.56284130       0.102002665       0.753102287             2
       3      -0.56453477       0.001693477       0.246019021             3
       4      -0.56275840      -0.001776372       0.094285677             5
       5      -0.56253088      -0.000227522       0.028309022             6
       6      -0.56269361       0.000162736       0.013455665             7
       7      -0.56272762       0.000034009       0.004748237             8
       8      -0.56270371      -0.000023918       0.001528173             9
       9      -0.56270148      -0.000002225       0.000410158            10
      10      -0.56270342       0.000001940       0.000104193            11
      11      -0.56270323      -0.000000192       0.000031995            12
      12      -0.56270316      -0.000000063       0.000010551            13
      13      -0.56270318       0.000000018       0.000003683            14
      14      -0.56270319       0.000000005       0.000001091            15
      15      -0.56270318      -0.000000003       0.000000352            16

    CHF Iterations converged


    Iter     Energy [mEh]          dE [mEh]         Residual      Time [s]
       1      -1.52667544       1.526675441       6.054164690             1
       2      -1.76915877       0.242483332       2.183995259             3
       3      -1.81757897       0.048420195       0.496501377             4
       4      -1.81297160      -0.004607373       0.158711684             5
       5      -1.81037269      -0.002598903       0.025456439             6
       6      -1.81067220       0.000299504       0.007857866             7
       7      -1.81073617       0.000063977       0.001561989             8
       8      -1.81072080      -0.000015378       0.000350779            10
       9      -1.81072025      -0.000000548       0.000080927            11
      10      -1.81072084       0.000000596       0.000019766            12
      11      -1.81072086       0.000000015       0.000005349            13
      12      -1.81072083      -0.000000026       0.000001434            15
      13      -1.81072083      -0.000000003       0.000000329            16

    CHF Iterations converged

    Ind20,r (A<-B)      =    -0.000562703184 [Eh]
    Ind20,r (B<-A)      =    -0.001810720828 [Eh]
    Ind20,r             =    -0.002373424012 [Eh]
    Exch-Ind20,r (A<-B) =     0.000467793522 [Eh]
    Exch-Ind20,r (B<-A) =     0.001047851942 [Eh]
    Exch-Ind20,r        =     0.001515645464 [Eh]
    Disp20              =    -0.009412414082 [Eh]
    Disp20 (SS)         =    -0.004706207041 [Eh]
    Disp20 (OS)         =    -0.004706207041 [Eh]
    Exch-Disp20         =     0.000876038556 [Eh]
    Exch-Disp20 (SS)    =     0.000565302164 [Eh]
    Exch-Disp20 (OS)    =     0.000310736392 [Eh]

    SAPT Results 
  --------------------------------------------------------------------------------------------------------
    Electrostatics                 -3.24651010 [mEh]      -2.03721584 [kcal/mol]      -8.52371109 [kJ/mol]
      Elst10,r                     -3.24651010 [mEh]      -2.03721584 [kcal/mol]      -8.52371109 [kJ/mol]

    Exchange                        7.59381644 [mEh]       4.76519176 [kcal/mol]      19.93756232 [kJ/mol]
      Exch10                        7.59381644 [mEh]       4.76519176 [kcal/mol]      19.93756232 [kJ/mol]
      Exch10(S^2)                   7.58315972 [mEh]       4.75850456 [kcal/mol]      19.90958309 [kJ/mol]

    Induction                      -1.39178261 [mEh]      -0.87335677 [kcal/mol]      -3.65412474 [kJ/mol]
      Ind20,r                      -2.37342401 [mEh]      -1.48934605 [kcal/mol]      -6.23142388 [kJ/mol]
      Exch-Ind20,r                  1.51564546 [mEh]       0.95108189 [kcal/mol]       3.97932662 [kJ/mol]
      delta HF,r (2)               -0.53400406 [mEh]      -0.33509261 [kcal/mol]      -1.40202747 [kJ/mol]

    Dispersion                     -8.53637553 [mEh]      -5.35665651 [kcal/mol]     -22.41225086 [kJ/mol]
      Disp20                       -9.41241408 [mEh]      -5.90637901 [kcal/mol]     -24.71228977 [kJ/mol]
      Exch-Disp20                   0.87603856 [mEh]       0.54972249 [kcal/mol]       2.30003891 [kJ/mol]
      Disp20 (SS)                  -4.70620704 [mEh]      -2.95318950 [kcal/mol]     -12.35614488 [kJ/mol]
      Disp20 (OS)                  -4.70620704 [mEh]      -2.95318950 [kcal/mol]     -12.35614488 [kJ/mol]
      Exch-Disp20 (SS)              0.56530216 [mEh]       0.35473246 [kcal/mol]       1.48420063 [kJ/mol]
      Exch-Disp20 (OS)              0.31073639 [mEh]       0.19499003 [kcal/mol]       0.81583828 [kJ/mol]

  Total HF                          2.95552373 [mEh]       1.85461914 [kcal/mol]       7.75972648 [kJ/mol]
  Total SAPT0                      -5.58085180 [mEh]      -3.50203737 [kcal/mol]     -14.65252437 [kJ/mol]

  Special recipe for scaled SAPT0 (see Manual):
    Electrostatics sSAPT0          -3.24651010 [mEh]      -2.03721584 [kcal/mol]      -8.52371109 [kJ/mol]
    Exchange sSAPT0                 7.59381644 [mEh]       4.76519176 [kcal/mol]      19.93756232 [kJ/mol]
    Induction sSAPT0               -1.38538375 [mEh]      -0.86934143 [kcal/mol]      -3.63732454 [kJ/mol]
    Dispersion sSAPT0              -8.53267700 [mEh]      -5.35433566 [kcal/mol]     -22.40254039 [kJ/mol]
  Total sSAPT0                     -5.57075441 [mEh]      -3.49570117 [kcal/mol]     -14.62601370 [kJ/mol]
  --------------------------------------------------------------------------------------------------------

*** tstop() called on r282 at Sat Sep 11 01:39:17 2021
Module time:
	user time   =     120.65 seconds =       2.01 minutes
	system time =      20.00 seconds =       0.33 minutes
	total time  =        143 seconds =       2.38 minutes
Total time:
	user time   =     291.90 seconds =       4.87 minutes
	system time =      23.18 seconds =       0.39 minutes
	total time  =        318 seconds =       5.30 minutes

    Psi4 stopped on: Saturday, 11 September 2021 01:39AM
    Psi4 wall time for execution: 0:05:17.43

*** Psi4 exiting successfully. Buy a developer a beer!
