
    -----------------------------------------------------------------------
          Psi4: An Open-Source Ab Initio Electronic Structure Package
                               Psi4 1.3.2 release

                         Git: Rev {HEAD} ecbda83 


    R. M. Parrish, L. A. Burns, D. G. A. Smith, A. C. Simmonett,
    A. E. DePrince III, E. G. Hohenstein, U. Bozkaya, A. Yu. Sokolov,
    R. Di Remigio, R. M. Richard, J. F. Gonthier, A. M. James,
    H. R. McAlexander, A. Kumar, M. Saitow, X. Wang, B. P. Pritchard,
    P. Verma, H. F. Schaefer III, K. Patkowski, R. A. King, E. F. Valeev,
    F. A. Evangelista, J. M. Turney, T. D. Crawford, and C. D. Sherrill,
    J. Chem. Theory Comput. 13(7) pp 3185--3197 (2017).
    (doi: 10.1021/acs.jctc.7b00174)


                         Additional Contributions by
    P. Kraus, H. Kruse, M. H. Lechner, M. C. Schieber, R. A. Shaw,
    A. Alenaizan, R. Galvelis, Z. L. Glick, S. Lehtola, and J. P. Misiewicz

    -----------------------------------------------------------------------


    Psi4 started on: Saturday, 11 September 2021 02:04AM

    Process ID: 57491
    Host:       r282
    PSIDATADIR: /home/r08543048/miniconda3/share/psi4
    Memory:     500.0 MiB
    Threads:    1
    
  ==> Input File <==

--------------------------------------------------------------------------
# Any line starting with the # character is a comment line
#! Sample  computation

memory 22 gb

molecule Dimer {
0 1
 C 2.038890   -0.148479    0.002321
 O 1.427027   -1.202498   -0.004022
 N 1.462688    1.079776    0.000070
 H 2.024471    1.910782    0.005966
 H 0.459051    1.158045   -0.006983
 H 3.137678   -0.099969    0.010623
 
 
 
 
 
 




    
    
 --
0 1
 C   -2.218436   -0.764116    0.002982
 C   -2.169509    0.759830   -0.002054
 H   -1.216263   -1.190508    0.002674
 H   -2.744281   -1.137837   -0.874533
 H   -2.741445   -1.132120    0.884600
 H   -1.656912    1.134764   -0.889582
 H   -1.654506    1.140567    0.881587
 H   -3.168493    1.194418   -0.002159
   
   
   
   
   
   





units angstrom

no_reorient
symmetry c1
}

set globals{
  basis jun-cc-pvtz
}

energy('sapt0')


--------------------------------------------------------------------------

  Memory set to  20.489 GiB by Python driver.

  //>>>>>>>>>>>>>>>>>>>>>>>>>>>>>>>>>>>//
  //              Dimer HF             //
  //<<<<<<<<<<<<<<<<<<<<<<<<<<<<<<<<<<<//


*** tstart() called on r282
*** at Sat Sep 11 02:04:29 2021

   => Loading Basis Set <=

    Name: JUN-CC-PVTZ
    Role: ORBITAL
    Keyword: BASIS
    atoms 1, 7-8    entry C          line   217 file /home/r08543048/miniconda3/share/psi4/basis/jun-cc-pvtz.gbs 
    atoms 2         entry O          line   305 file /home/r08543048/miniconda3/share/psi4/basis/jun-cc-pvtz.gbs 
    atoms 3         entry N          line   261 file /home/r08543048/miniconda3/share/psi4/basis/jun-cc-pvtz.gbs 
    atoms 4-6, 9-14 entry H          line    36 file /home/r08543048/miniconda3/share/psi4/basis/jun-cc-pvtz.gbs 


         ---------------------------------------------------------
                                   SCF
               by Justin Turney, Rob Parrish, Andy Simmonett
                          and Daniel G. A. Smith
                              RHF Reference
                        1 Threads,  20980 MiB Core
         ---------------------------------------------------------

  ==> Geometry <==

    Molecular point group: c1
    Full point group: C1

    Geometry (in Angstrom), charge = 0, multiplicity = 1:

       Center              X                  Y                   Z               Mass       
    ------------   -----------------  -----------------  -----------------  -----------------
         C            1.938997379095    -0.109242743454     0.002481852217    12.000000000000
         O            1.327134379095    -1.163261743454    -0.003861147783    15.994914619570
         N            1.362795379095     1.119012256546     0.000230852217    14.003074004430
         H            1.924578379095     1.950018256546     0.006126852217     1.007825032230
         H            0.359158379095     1.197281256546    -0.006822147783     1.007825032230
         H            3.037785379095    -0.060732743454     0.010783852217     1.007825032230
         C           -2.318328620905    -0.724879743454     0.003142852217    12.000000000000
         C           -2.269401620905     0.799066256546    -0.001893147783    12.000000000000
         H           -1.316155620905    -1.151271743454     0.002834852217     1.007825032230
         H           -2.844173620905    -1.098600743454    -0.874372147783     1.007825032230
         H           -2.841337620905    -1.092883743454     0.884760852217     1.007825032230
         H           -1.756804620905     1.174000256546    -0.889421147783     1.007825032230
         H           -1.754398620905     1.179803256546     0.881747852217     1.007825032230
         H           -3.268385620905     1.233654256546    -0.001998147783     1.007825032230

  Running in c1 symmetry.

  Rotational constants: A =      0.24179  B =      0.06086  C =      0.04952 [cm^-1]
  Rotational constants: A =   7248.66994  B =   1824.58795  C =   1484.57106 [MHz]
  Nuclear repulsion =  170.551122855290316

  Charge       = 0
  Multiplicity = 1
  Electrons    = 42
  Nalpha       = 21
  Nbeta        = 21

  ==> Algorithm <==

  SCF Algorithm Type is DF.
  DIIS enabled.
  MOM disabled.
  Fractional occupation disabled.
  Guess Type is SAD.
  Energy threshold   = 1.00e-08
  Density threshold  = 1.00e-08
  Integral threshold = 0.00e+00

  ==> Primary Basis <==

  Basis Set: JUN-CC-PVTZ
    Blend: JUN-CC-PVTZ
    Number of shells: 119
    Number of basis function: 321
    Number of Cartesian functions: 360
    Spherical Harmonics?: true
    Max angular momentum: 3

   => Loading Basis Set <=

    Name: (JUN-CC-PVTZ AUX)
    Role: JKFIT
    Keyword: DF_BASIS_SCF
    atoms 1, 7-8    entry C          line   152 file /home/r08543048/miniconda3/share/psi4/basis/jun-cc-pvtz-jkfit.gbs 
    atoms 2         entry O          line   272 file /home/r08543048/miniconda3/share/psi4/basis/jun-cc-pvtz-jkfit.gbs 
    atoms 3         entry N          line   212 file /home/r08543048/miniconda3/share/psi4/basis/jun-cc-pvtz-jkfit.gbs 
    atoms 4-6, 9-14 entry H          line    70 file /home/r08543048/miniconda3/share/psi4/basis/jun-cc-pvtz-jkfit.gbs 

  ==> Pre-Iterations <==

   -------------------------------------------------------
    Irrep   Nso     Nmo     Nalpha   Nbeta   Ndocc  Nsocc
   -------------------------------------------------------
     A        321     321       0       0       0       0
   -------------------------------------------------------
    Total     321     321      21      21      21       0
   -------------------------------------------------------

  ==> Integral Setup <==

  ==> DiskDFJK: Density-Fitted J/K Matrices <==

    J tasked:                  Yes
    K tasked:                  Yes
    wK tasked:                  No
    OpenMP threads:              1
    Integrals threads:           1
    Memory [MiB]:            15735
    Algorithm:                Core
    Integral Cache:           SAVE
    Schwarz Cutoff:          1E-12
    Fitting Condition:       1E-10

   => Auxiliary Basis Set <=

  Basis Set: (JUN-CC-PVTZ AUX)
    Blend: JUN-CC-PVTZ-JKFIT
    Number of shells: 235
    Number of basis function: 745
    Number of Cartesian functions: 895
    Spherical Harmonics?: true
    Max angular momentum: 4

  Minimum eigenvalue in the overlap matrix is 1.2871167126E-04.
  Using Symmetric Orthogonalization.

  SCF Guess: Superposition of Atomic Densities via on-the-fly atomic UHF.

  ==> Iterations <==

                           Total Energy        Delta E     RMS |[F,P]|

   @DF-RHF iter SAD:  -246.95936479280911   -2.46959e+02   0.00000e+00 
   @DF-RHF iter   1:  -248.03350471353741   -1.07414e+00   2.12174e-03 DIIS
   @DF-RHF iter   2:  -248.19886378777238   -1.65359e-01   1.27328e-03 DIIS
   @DF-RHF iter   3:  -248.25975798132495   -6.08942e-02   2.34661e-04 DIIS
   @DF-RHF iter   4:  -248.26282825263183   -3.07027e-03   1.00290e-04 DIIS
   @DF-RHF iter   5:  -248.26346467143873   -6.36419e-04   1.70783e-05 DIIS
   @DF-RHF iter   6:  -248.26350387256315   -3.92011e-05   7.77578e-06 DIIS
   @DF-RHF iter   7:  -248.26351022270762   -6.35014e-06   3.10759e-06 DIIS
   @DF-RHF iter   8:  -248.26351180092172   -1.57821e-06   1.11511e-06 DIIS
   @DF-RHF iter   9:  -248.26351201501154   -2.14090e-07   2.60208e-07 DIIS
   @DF-RHF iter  10:  -248.26351202606091   -1.10494e-08   8.73160e-08 DIIS
   @DF-RHF iter  11:  -248.26351202688338   -8.22467e-10   2.65551e-08 DIIS
   @DF-RHF iter  12:  -248.26351202696750   -8.41283e-11   6.72142e-09 DIIS
  Energy and wave function converged.


  ==> Post-Iterations <==

    Orbital Energies [Eh]
    ---------------------

    Doubly Occupied:                                                      

       1A    -20.530441     2A    -15.596010     3A    -11.358255  
       4A    -11.215159     5A    -11.200916     6A     -1.384038  
       7A     -1.221753     8A     -1.017398     9A     -0.854585  
      10A     -0.840015    11A     -0.752808    12A     -0.677088  
      13A     -0.612308    14A     -0.597424    15A     -0.592241  
      16A     -0.571628    17A     -0.507786    18A     -0.486395  
      19A     -0.483381    20A     -0.437354    21A     -0.422310  

    Virtual:                                                              

      22A      0.046512    23A      0.059541    24A      0.068983  
      25A      0.075050    26A      0.077902    27A      0.091412  
      28A      0.091525    29A      0.112643    30A      0.112990  
      31A      0.124302    32A      0.133737    33A      0.149534  
      34A      0.154172    35A      0.179510    36A      0.180564  
      37A      0.194021    38A      0.219023    39A      0.229692  
      40A      0.233782    41A      0.255244    42A      0.261340  
      43A      0.274842    44A      0.275139    45A      0.283829  
      46A      0.285001    47A      0.305777    48A      0.311708  
      49A      0.326139    50A      0.329476    51A      0.330801  
      52A      0.350571    53A      0.352490    54A      0.354851  
      55A      0.364813    56A      0.365923    57A      0.379996  
      58A      0.385776    59A      0.395578    60A      0.434070  
      61A      0.444881    62A      0.451976    63A      0.489081  
      64A      0.492069    65A      0.495085    66A      0.515176  
      67A      0.519072    68A      0.537729    69A      0.551977  
      70A      0.574830    71A      0.576162    72A      0.591184  
      73A      0.602746    74A      0.620428    75A      0.625520  
      76A      0.652694    77A      0.684555    78A      0.707157  
      79A      0.716032    80A      0.727580    81A      0.744844  
      82A      0.762991    83A      0.771902    84A      0.783284  
      85A      0.795650    86A      0.800106    87A      0.811517  
      88A      0.828302    89A      0.837976    90A      0.847960  
      91A      0.866511    92A      0.873996    93A      0.890611  
      94A      0.893403    95A      0.918505    96A      0.931841  
      97A      0.955906    98A      0.972358    99A      0.984530  
     100A      1.004075   101A      1.013840   102A      1.043055  
     103A      1.048682   104A      1.050720   105A      1.069414  
     106A      1.070447   107A      1.091592   108A      1.105886  
     109A      1.123250   110A      1.160604   111A      1.175530  
     112A      1.247516   113A      1.259681   114A      1.280956  
     115A      1.293941   116A      1.324802   117A      1.332030  
     118A      1.334018   119A      1.339935   120A      1.354418  
     121A      1.379497   122A      1.380913   123A      1.391164  
     124A      1.397499   125A      1.409968   126A      1.430062  
     127A      1.432589   128A      1.451679   129A      1.477678  
     130A      1.494734   131A      1.523957   132A      1.545203  
     133A      1.585013   134A      1.594388   135A      1.620736  
     136A      1.645075   137A      1.660890   138A      1.685789  
     139A      1.687077   140A      1.733637   141A      1.735962  
     142A      1.764335   143A      1.765616   144A      1.779064  
     145A      1.842506   146A      1.856444   147A      1.881999  
     148A      1.893815   149A      1.919024   150A      1.987186  
     151A      2.034615   152A      2.107668   153A      2.148972  
     154A      2.216435   155A      2.304868   156A      2.315705  
     157A      2.394561   158A      2.511878   159A      2.525010  
     160A      2.683259   161A      2.699170   162A      2.711897  
     163A      2.713352   164A      2.752066   165A      2.780483  
     166A      2.816353   167A      2.825200   168A      2.856455  
     169A      2.898370   170A      3.004800   171A      3.016418  
     172A      3.066480   173A      3.096707   174A      3.099360  
     175A      3.119067   176A      3.139498   177A      3.166158  
     178A      3.180787   179A      3.193771   180A      3.195483  
     181A      3.217805   182A      3.245397   183A      3.259454  
     184A      3.295106   185A      3.331640   186A      3.347669  
     187A      3.377341   188A      3.392536   189A      3.422777  
     190A      3.429287   191A      3.435164   192A      3.444926  
     193A      3.451622   194A      3.462901   195A      3.483072  
     196A      3.487602   197A      3.498297   198A      3.520245  
     199A      3.532427   200A      3.533726   201A      3.563010  
     202A      3.583257   203A      3.593491   204A      3.598897  
     205A      3.637866   206A      3.639891   207A      3.669314  
     208A      3.699841   209A      3.771119   210A      3.782084  
     211A      3.812037   212A      3.819782   213A      3.826560  
     214A      3.840957   215A      3.865884   216A      3.875946  
     217A      3.898403   218A      3.903346   219A      3.929356  
     220A      3.941030   221A      3.959257   222A      3.983316  
     223A      4.073395   224A      4.110156   225A      4.151199  
     226A      4.177375   227A      4.177678   228A      4.195059  
     229A      4.201680   230A      4.234499   231A      4.245746  
     232A      4.250330   233A      4.261707   234A      4.281580  
     235A      4.293039   236A      4.313205   237A      4.363970  
     238A      4.383391   239A      4.396601   240A      4.418965  
     241A      4.431056   242A      4.473368   243A      4.474005  
     244A      4.493680   245A      4.499187   246A      4.501774  
     247A      4.505165   248A      4.516249   249A      4.529431  
     250A      4.625788   251A      4.640210   252A      4.668283  
     253A      4.671470   254A      4.681324   255A      4.725980  
     256A      4.731668   257A      4.771209   258A      4.796531  
     259A      4.805426   260A      4.847216   261A      4.935012  
     262A      4.998831   263A      5.023061   264A      5.146048  
     265A      5.169097   266A      5.182584   267A      5.202816  
     268A      5.215978   269A      5.218015   270A      5.254750  
     271A      5.269112   272A      5.289780   273A      5.293863  
     274A      5.298563   275A      5.318175   276A      5.341258  
     277A      5.363587   278A      5.456439   279A      5.491330  
     280A      5.502832   281A      5.689016   282A      5.705378  
     283A      5.705975   284A      5.712595   285A      5.753676  
     286A      5.758787   287A      5.766132   288A      5.781304  
     289A      5.802988   290A      5.881632   291A      5.899734  
     292A      5.930793   293A      5.939258   294A      5.955825  
     295A      5.981048   296A      6.040307   297A      6.064094  
     298A      6.162384   299A      6.255150   300A      6.351140  
     301A      6.444503   302A      6.476800   303A      6.483045  
     304A      6.515420   305A      6.566181   306A      6.675980  
     307A      6.785813   308A      6.924756   309A      7.136567  
     310A      7.204197   311A      7.275567   312A      7.387525  
     313A      7.427049   314A      7.602643   315A      7.716918  
     316A      7.810659   317A     12.503862   318A     14.106907  
     319A     14.229267   320A     14.662128   321A     15.680063  

    Final Occupation by Irrep:
              A 
    DOCC [    21 ]

  @DF-RHF Final Energy:  -248.26351202696750

   => Energetics <=

    Nuclear Repulsion Energy =            170.5511228552903162
    One-Electron Energy =                -674.9106816999262719
    Two-Electron Energy =                 256.0960468176684230
    Total Energy =                       -248.2635120269675326

Computation Completed


Properties will be evaluated at   0.000000,   0.000000,   0.000000 [a0]

Properties computed using the SCF density matrix

  Nuclear Dipole Moment: [e a0]
     X:    -7.9283      Y:     3.1141      Z:     0.0128

  Electronic Dipole Moment: [e a0]
     X:     8.3679      Y:    -1.5842      Z:    -0.0061

  Dipole Moment: [e a0]
     X:     0.4396      Y:     1.5299      Z:     0.0066     Total:     1.5918

  Dipole Moment: [D]
     X:     1.1174      Y:     3.8886      Z:     0.0169     Total:     4.0460


*** tstop() called on r282 at Sat Sep 11 02:04:42 2021
Module time:
	user time   =      12.87 seconds =       0.21 minutes
	system time =       0.43 seconds =       0.01 minutes
	total time  =         13 seconds =       0.22 minutes
Total time:
	user time   =      12.87 seconds =       0.21 minutes
	system time =       0.43 seconds =       0.01 minutes
	total time  =         13 seconds =       0.22 minutes

  //>>>>>>>>>>>>>>>>>>>>>>>>>>>>>>>>>>>//
  //            Monomer A HF           //
  //<<<<<<<<<<<<<<<<<<<<<<<<<<<<<<<<<<<//


*** tstart() called on r282
*** at Sat Sep 11 02:04:42 2021

   => Loading Basis Set <=

    Name: JUN-CC-PVTZ
    Role: ORBITAL
    Keyword: BASIS
    atoms 1, 7-8    entry C          line   217 file /home/r08543048/miniconda3/share/psi4/basis/jun-cc-pvtz.gbs 
    atoms 2         entry O          line   305 file /home/r08543048/miniconda3/share/psi4/basis/jun-cc-pvtz.gbs 
    atoms 3         entry N          line   261 file /home/r08543048/miniconda3/share/psi4/basis/jun-cc-pvtz.gbs 
    atoms 4-6, 9-14 entry H          line    36 file /home/r08543048/miniconda3/share/psi4/basis/jun-cc-pvtz.gbs 


         ---------------------------------------------------------
                                   SCF
               by Justin Turney, Rob Parrish, Andy Simmonett
                          and Daniel G. A. Smith
                              RHF Reference
                        1 Threads,  20980 MiB Core
         ---------------------------------------------------------

  ==> Geometry <==

    Molecular point group: c1
    Full point group: C1

    Geometry (in Angstrom), charge = 0, multiplicity = 1:

       Center              X                  Y                   Z               Mass       
    ------------   -----------------  -----------------  -----------------  -----------------
         C            1.938997379095    -0.109242743454     0.002481852217    12.000000000000
         O            1.327134379095    -1.163261743454    -0.003861147783    15.994914619570
         N            1.362795379095     1.119012256546     0.000230852217    14.003074004430
         H            1.924578379095     1.950018256546     0.006126852217     1.007825032230
         H            0.359158379095     1.197281256546    -0.006822147783     1.007825032230
         H            3.037785379095    -0.060732743454     0.010783852217     1.007825032230
      Gh(C)          -2.318328620905    -0.724879743454     0.003142852217    12.000000000000
      Gh(C)          -2.269401620905     0.799066256546    -0.001893147783    12.000000000000
      Gh(H)          -1.316155620905    -1.151271743454     0.002834852217     1.007825032230
      Gh(H)          -2.844173620905    -1.098600743454    -0.874372147783     1.007825032230
      Gh(H)          -2.841337620905    -1.092883743454     0.884760852217     1.007825032230
      Gh(H)          -1.756804620905     1.174000256546    -0.889421147783     1.007825032230
      Gh(H)          -1.754398620905     1.179803256546     0.881747852217     1.007825032230
      Gh(H)          -3.268385620905     1.233654256546    -0.001998147783     1.007825032230

  Running in c1 symmetry.

  Rotational constants: A =      0.24179  B =      0.06086  C =      0.04952 [cm^-1]
  Rotational constants: A =   7248.66994  B =   1824.58795  C =   1484.57106 [MHz]
  Nuclear repulsion =   71.152238175467957

  Charge       = 0
  Multiplicity = 1
  Electrons    = 24
  Nalpha       = 12
  Nbeta        = 12

  ==> Algorithm <==

  SCF Algorithm Type is DF.
  DIIS enabled.
  MOM disabled.
  Fractional occupation disabled.
  Guess Type is SAD.
  Energy threshold   = 1.00e-08
  Density threshold  = 1.00e-08
  Integral threshold = 0.00e+00

  ==> Primary Basis <==

  Basis Set: JUN-CC-PVTZ
    Blend: JUN-CC-PVTZ
    Number of shells: 119
    Number of basis function: 321
    Number of Cartesian functions: 360
    Spherical Harmonics?: true
    Max angular momentum: 3

   => Loading Basis Set <=

    Name: (JUN-CC-PVTZ AUX)
    Role: JKFIT
    Keyword: DF_BASIS_SCF
    atoms 1, 7-8    entry C          line   152 file /home/r08543048/miniconda3/share/psi4/basis/jun-cc-pvtz-jkfit.gbs 
    atoms 2         entry O          line   272 file /home/r08543048/miniconda3/share/psi4/basis/jun-cc-pvtz-jkfit.gbs 
    atoms 3         entry N          line   212 file /home/r08543048/miniconda3/share/psi4/basis/jun-cc-pvtz-jkfit.gbs 
    atoms 4-6, 9-14 entry H          line    70 file /home/r08543048/miniconda3/share/psi4/basis/jun-cc-pvtz-jkfit.gbs 

  ==> Pre-Iterations <==

   -------------------------------------------------------
    Irrep   Nso     Nmo     Nalpha   Nbeta   Ndocc  Nsocc
   -------------------------------------------------------
     A        321     321       0       0       0       0
   -------------------------------------------------------
    Total     321     321      12      12      12       0
   -------------------------------------------------------

  ==> Integral Setup <==

  ==> DiskDFJK: Density-Fitted J/K Matrices <==

    J tasked:                  Yes
    K tasked:                  Yes
    wK tasked:                  No
    OpenMP threads:              1
    Integrals threads:           1
    Memory [MiB]:            15735
    Algorithm:                Core
    Integral Cache:           LOAD
    Schwarz Cutoff:          1E-12
    Fitting Condition:       1E-10

   => Auxiliary Basis Set <=

  Basis Set: (JUN-CC-PVTZ AUX)
    Blend: JUN-CC-PVTZ-JKFIT
    Number of shells: 235
    Number of basis function: 745
    Number of Cartesian functions: 895
    Spherical Harmonics?: true
    Max angular momentum: 4

  Minimum eigenvalue in the overlap matrix is 1.2871167126E-04.
  Using Symmetric Orthogonalization.

  SCF Guess: Superposition of Atomic Densities via on-the-fly atomic UHF.

  ==> Iterations <==

                           Total Energy        Delta E     RMS |[F,P]|

   @DF-RHF iter SAD:  -168.21861624212391   -1.68219e+02   0.00000e+00 
   @DF-RHF iter   1:  -168.88160568267381   -6.62989e-01   1.66381e-03 DIIS
   @DF-RHF iter   2:  -168.95807977115288   -7.64741e-02   1.14476e-03 DIIS
   @DF-RHF iter   3:  -169.00214567156380   -4.40659e-02   1.60130e-04 DIIS
   @DF-RHF iter   4:  -169.00355365626490   -1.40798e-03   6.93791e-05 DIIS
   @DF-RHF iter   5:  -169.00384837495861   -2.94719e-04   1.42457e-05 DIIS
   @DF-RHF iter   6:  -169.00387943853698   -3.10636e-05   6.88349e-06 DIIS
   @DF-RHF iter   7:  -169.00388607600809   -6.63747e-06   2.77742e-06 DIIS
   @DF-RHF iter   8:  -169.00388722066378   -1.14466e-06   7.97053e-07 DIIS
   @DF-RHF iter   9:  -169.00388731654093   -9.58771e-08   2.14068e-07 DIIS
   @DF-RHF iter  10:  -169.00388732360835   -7.06743e-09   5.32901e-08 DIIS
   @DF-RHF iter  11:  -169.00388732397090   -3.62547e-10   9.55185e-09 DIIS
  Energy and wave function converged.


  ==> Post-Iterations <==

    Orbital Energies [Eh]
    ---------------------

    Doubly Occupied:                                                      

       1A    -20.530565     2A    -15.598104     3A    -11.358224  
       4A     -1.383506     5A     -1.222834     6A     -0.854792  
       7A     -0.753635     8A     -0.676732     9A     -0.609076  
      10A     -0.571845    11A     -0.437821    12A     -0.422897  

    Virtual:                                                              

      13A      0.034709    14A      0.051590    15A      0.059849  
      16A      0.068443    17A      0.075057    18A      0.086820  
      19A      0.088034    20A      0.108333    21A      0.109328  
      22A      0.119094    23A      0.122753    24A      0.141764  
      25A      0.152311    26A      0.161963    27A      0.180342  
      28A      0.181971    29A      0.198664    30A      0.221337  
      31A      0.230644    32A      0.237856    33A      0.248984  
      34A      0.252451    35A      0.261980    36A      0.269489  
      37A      0.286969    38A      0.291156    39A      0.307862  
      40A      0.321615    41A      0.328541    42A      0.334744  
      43A      0.342287    44A      0.369067    45A      0.372314  
      46A      0.375658    47A      0.382081    48A      0.392249  
      49A      0.411546    50A      0.419475    51A      0.445384  
      52A      0.455056    53A      0.456757    54A      0.465168  
      55A      0.492482    56A      0.506447    57A      0.511307  
      58A      0.521133    59A      0.524527    60A      0.546313  
      61A      0.565063    62A      0.577661    63A      0.579423  
      64A      0.592360    65A      0.596111    66A      0.605803  
      67A      0.612765    68A      0.622476    69A      0.644572  
      70A      0.658928    71A      0.662445    72A      0.669103  
      73A      0.751079    74A      0.758138    75A      0.783211  
      76A      0.829039    77A      0.831760    78A      0.849816  
      79A      0.874177    80A      0.889480    81A      0.893581  
      82A      0.943996    83A      0.982303    84A      1.007634  
      85A      1.020763    86A      1.021875    87A      1.048929  
      88A      1.052871    89A      1.059591    90A      1.086390  
      91A      1.095816    92A      1.104323    93A      1.106411  
      94A      1.140982    95A      1.142007    96A      1.143073  
      97A      1.175460    98A      1.200920    99A      1.206872  
     100A      1.207438   101A      1.217021   102A      1.234051  
     103A      1.240977   104A      1.245269   105A      1.263047  
     106A      1.274928   107A      1.291495   108A      1.303494  
     109A      1.320730   110A      1.341630   111A      1.344343  
     112A      1.370879   113A      1.382457   114A      1.383627  
     115A      1.397950   116A      1.425673   117A      1.426798  
     118A      1.428876   119A      1.499221   120A      1.516542  
     121A      1.527632   122A      1.541538   123A      1.557849  
     124A      1.566136   125A      1.577029   126A      1.607584  
     127A      1.625188   128A      1.649136   129A      1.702908  
     130A      1.717667   131A      1.744798   132A      1.751638  
     133A      1.765303   134A      1.775184   135A      1.820088  
     136A      1.852993   137A      1.871936   138A      1.970545  
     139A      1.977579   140A      2.035759   141A      2.057599  
     142A      2.066714   143A      2.127988   144A      2.169018  
     145A      2.200747   146A      2.238063   147A      2.271159  
     148A      2.298085   149A      2.314897   150A      2.368257  
     151A      2.392745   152A      2.398694   153A      2.425970  
     154A      2.499813   155A      2.528446   156A      2.531232  
     157A      2.569264   158A      2.715592   159A      2.721858  
     160A      2.851447   161A      3.015910   162A      3.119148  
     163A      3.139457   164A      3.166357   165A      3.248563  
     166A      3.307829   167A      3.379909   168A      3.417340  
     169A      3.420803   170A      3.463483   171A      3.476722  
     172A      3.480587   173A      3.511411   174A      3.514545  
     175A      3.525625   176A      3.531357   177A      3.553792  
     178A      3.567571   179A      3.570104   180A      3.590448  
     181A      3.597322   182A      3.633230   183A      3.649906  
     184A      3.657494   185A      3.697392   186A      3.743888  
     187A      3.775175   188A      3.790622   189A      3.797891  
     190A      3.808443   191A      3.821356   192A      3.837626  
     193A      3.875061   194A      3.879644   195A      3.920502  
     196A      3.926832   197A      3.933961   198A      3.966930  
     199A      4.004699   200A      4.021623   201A      4.062461  
     202A      4.067466   203A      4.099970   204A      4.118125  
     205A      4.149546   206A      4.171279   207A      4.194687  
     208A      4.211522   209A      4.246143   210A      4.273810  
     211A      4.335212   212A      4.348861   213A      4.360040  
     214A      4.388937   215A      4.407952   216A      4.425028  
     217A      4.456886   218A      4.464045   219A      4.476963  
     220A      4.495703   221A      4.496570   222A      4.510362  
     223A      4.518050   224A      4.529256   225A      4.569099  
     226A      4.579277   227A      4.607565   228A      4.622576  
     229A      4.644196   230A      4.662189   231A      4.703160  
     232A      4.713758   233A      4.718282   234A      4.726884  
     235A      4.744651   236A      4.744717   237A      4.764313  
     238A      4.773295   239A      4.793487   240A      4.831126  
     241A      4.849398   242A      4.868225   243A      4.888080  
     244A      4.915998   245A      4.931641   246A      4.951006  
     247A      4.983194   248A      4.987259   249A      5.004075  
     250A      5.008001   251A      5.034997   252A      5.039016  
     253A      5.056972   254A      5.113304   255A      5.171885  
     256A      5.180366   257A      5.217198   258A      5.239954  
     259A      5.261013   260A      5.284528   261A      5.383830  
     262A      5.389395   263A      5.408499   264A      5.460516  
     265A      5.488443   266A      5.502391   267A      5.643483  
     268A      5.654218   269A      5.705554   270A      5.712334  
     271A      5.719174   272A      5.744090   273A      5.890020  
     274A      5.934417   275A      5.958801   276A      5.995289  
     277A      5.998552   278A      6.039289   279A      6.068110  
     280A      6.159307   281A      6.230365   282A      6.255456  
     283A      6.309206   284A      6.317190   285A      6.344742  
     286A      6.355236   287A      6.369096   288A      6.405453  
     289A      6.455311   290A      6.456017   291A      6.548973  
     292A      6.673972   293A      6.786277   294A      6.798645  
     295A      6.890920   296A      6.921621   297A      7.135724  
     298A      7.205134   299A      7.274664   300A      7.352601  
     301A      7.385697   302A      7.427828   303A      7.484463  
     304A      7.509426   305A      7.607179   306A      7.629242  
     307A      7.678389   308A      7.723489   309A      7.780676  
     310A      7.803788   311A      7.810691   312A      7.884317  
     313A      7.913845   314A      8.275676   315A      9.710500  
     316A      9.912004   317A     12.504570   318A     14.127386  
     319A     15.675037   320A     45.029625   321A     45.613652  

    Final Occupation by Irrep:
              A 
    DOCC [    12 ]

  @DF-RHF Final Energy:  -169.00388732397090

   => Energetics <=

    Nuclear Repulsion Energy =             71.1522381754679571
    One-Electron Energy =                -371.4721876800356313
    Two-Electron Energy =                 131.3160621805967594
    Total Energy =                       -169.0038873239709005

Computation Completed


Properties will be evaluated at   0.000000,   0.000000,   0.000000 [a0]

Properties computed using the SCF density matrix

  Nuclear Dipole Moment: [e a0]
     X:    70.1318      Y:     1.8106      Z:    -0.0081

  Electronic Dipole Moment: [e a0]
     X:   -69.6870      Y:    -0.1693      Z:     0.0146

  Dipole Moment: [e a0]
     X:     0.4448      Y:     1.6413      Z:     0.0065     Total:     1.7005

  Dipole Moment: [D]
     X:     1.1306      Y:     4.1717      Z:     0.0165     Total:     4.3222


*** tstop() called on r282 at Sat Sep 11 02:04:48 2021
Module time:
	user time   =       5.88 seconds =       0.10 minutes
	system time =       0.16 seconds =       0.00 minutes
	total time  =          6 seconds =       0.10 minutes
Total time:
	user time   =      18.75 seconds =       0.31 minutes
	system time =       0.59 seconds =       0.01 minutes
	total time  =         19 seconds =       0.32 minutes

  //>>>>>>>>>>>>>>>>>>>>>>>>>>>>>>>>>>>//
  //            Monomer B HF           //
  //<<<<<<<<<<<<<<<<<<<<<<<<<<<<<<<<<<<//


*** tstart() called on r282
*** at Sat Sep 11 02:04:48 2021

   => Loading Basis Set <=

    Name: JUN-CC-PVTZ
    Role: ORBITAL
    Keyword: BASIS
    atoms 1, 7-8    entry C          line   217 file /home/r08543048/miniconda3/share/psi4/basis/jun-cc-pvtz.gbs 
    atoms 2         entry O          line   305 file /home/r08543048/miniconda3/share/psi4/basis/jun-cc-pvtz.gbs 
    atoms 3         entry N          line   261 file /home/r08543048/miniconda3/share/psi4/basis/jun-cc-pvtz.gbs 
    atoms 4-6, 9-14 entry H          line    36 file /home/r08543048/miniconda3/share/psi4/basis/jun-cc-pvtz.gbs 


         ---------------------------------------------------------
                                   SCF
               by Justin Turney, Rob Parrish, Andy Simmonett
                          and Daniel G. A. Smith
                              RHF Reference
                        1 Threads,  20980 MiB Core
         ---------------------------------------------------------

  ==> Geometry <==

    Molecular point group: c1
    Full point group: C1

    Geometry (in Angstrom), charge = 0, multiplicity = 1:

       Center              X                  Y                   Z               Mass       
    ------------   -----------------  -----------------  -----------------  -----------------
      Gh(C)           1.938997379095    -0.109242743454     0.002481852217    12.000000000000
      Gh(O)           1.327134379095    -1.163261743454    -0.003861147783    15.994914619570
      Gh(N)           1.362795379095     1.119012256546     0.000230852217    14.003074004430
      Gh(H)           1.924578379095     1.950018256546     0.006126852217     1.007825032230
      Gh(H)           0.359158379095     1.197281256546    -0.006822147783     1.007825032230
      Gh(H)           3.037785379095    -0.060732743454     0.010783852217     1.007825032230
         C           -2.318328620905    -0.724879743454     0.003142852217    12.000000000000
         C           -2.269401620905     0.799066256546    -0.001893147783    12.000000000000
         H           -1.316155620905    -1.151271743454     0.002834852217     1.007825032230
         H           -2.844173620905    -1.098600743454    -0.874372147783     1.007825032230
         H           -2.841337620905    -1.092883743454     0.884760852217     1.007825032230
         H           -1.756804620905     1.174000256546    -0.889421147783     1.007825032230
         H           -1.754398620905     1.179803256546     0.881747852217     1.007825032230
         H           -3.268385620905     1.233654256546    -0.001998147783     1.007825032230

  Running in c1 symmetry.

  Rotational constants: A =      0.24179  B =      0.06086  C =      0.04952 [cm^-1]
  Rotational constants: A =   7248.66994  B =   1824.58795  C =   1484.57106 [MHz]
  Nuclear repulsion =   42.325809309526697

  Charge       = 0
  Multiplicity = 1
  Electrons    = 18
  Nalpha       = 9
  Nbeta        = 9

  ==> Algorithm <==

  SCF Algorithm Type is DF.
  DIIS enabled.
  MOM disabled.
  Fractional occupation disabled.
  Guess Type is SAD.
  Energy threshold   = 1.00e-08
  Density threshold  = 1.00e-08
  Integral threshold = 0.00e+00

  ==> Primary Basis <==

  Basis Set: JUN-CC-PVTZ
    Blend: JUN-CC-PVTZ
    Number of shells: 119
    Number of basis function: 321
    Number of Cartesian functions: 360
    Spherical Harmonics?: true
    Max angular momentum: 3

   => Loading Basis Set <=

    Name: (JUN-CC-PVTZ AUX)
    Role: JKFIT
    Keyword: DF_BASIS_SCF
    atoms 1, 7-8    entry C          line   152 file /home/r08543048/miniconda3/share/psi4/basis/jun-cc-pvtz-jkfit.gbs 
    atoms 2         entry O          line   272 file /home/r08543048/miniconda3/share/psi4/basis/jun-cc-pvtz-jkfit.gbs 
    atoms 3         entry N          line   212 file /home/r08543048/miniconda3/share/psi4/basis/jun-cc-pvtz-jkfit.gbs 
    atoms 4-6, 9-14 entry H          line    70 file /home/r08543048/miniconda3/share/psi4/basis/jun-cc-pvtz-jkfit.gbs 

  ==> Pre-Iterations <==

   -------------------------------------------------------
    Irrep   Nso     Nmo     Nalpha   Nbeta   Ndocc  Nsocc
   -------------------------------------------------------
     A        321     321       0       0       0       0
   -------------------------------------------------------
    Total     321     321       9       9       9       0
   -------------------------------------------------------

  ==> Integral Setup <==

  ==> DiskDFJK: Density-Fitted J/K Matrices <==

    J tasked:                  Yes
    K tasked:                  Yes
    wK tasked:                  No
    OpenMP threads:              1
    Integrals threads:           1
    Memory [MiB]:            15735
    Algorithm:                Core
    Integral Cache:           LOAD
    Schwarz Cutoff:          1E-12
    Fitting Condition:       1E-10

   => Auxiliary Basis Set <=

  Basis Set: (JUN-CC-PVTZ AUX)
    Blend: JUN-CC-PVTZ-JKFIT
    Number of shells: 235
    Number of basis function: 745
    Number of Cartesian functions: 895
    Spherical Harmonics?: true
    Max angular momentum: 4

  Minimum eigenvalue in the overlap matrix is 1.2871167126E-04.
  Using Symmetric Orthogonalization.

  SCF Guess: Superposition of Atomic Densities via on-the-fly atomic UHF.

  ==> Iterations <==

                           Total Energy        Delta E     RMS |[F,P]|

   @DF-RHF iter SAD:   -78.65828221503276   -7.86583e+01   0.00000e+00 
   @DF-RHF iter   1:   -79.14813311996814   -4.89851e-01   1.35190e-03 DIIS
   @DF-RHF iter   2:   -79.23886338623140   -9.07303e-02   6.17356e-04 DIIS
   @DF-RHF iter   3:   -79.25877395835555   -1.99106e-02   1.00999e-04 DIIS
   @DF-RHF iter   4:   -79.26003924497323   -1.26529e-03   1.40053e-05 DIIS
   @DF-RHF iter   5:   -79.26006706876449   -2.78238e-05   2.51111e-06 DIIS
   @DF-RHF iter   6:   -79.26006791252662   -8.43762e-07   3.10682e-07 DIIS
   @DF-RHF iter   7:   -79.26006792564257   -1.31160e-08   5.86682e-08 DIIS
   @DF-RHF iter   8:   -79.26006792587857   -2.36000e-10   1.61468e-08 DIIS
   @DF-RHF iter   9:   -79.26006792590002   -2.14442e-11   2.55651e-09 DIIS
  Energy and wave function converged.


  ==> Post-Iterations <==

    Orbital Energies [Eh]
    ---------------------

    Doubly Occupied:                                                      

       1A    -11.210736     2A    -11.210089     3A     -1.018286  
       4A     -0.841369     5A     -0.597697     6A     -0.596364  
       7A     -0.509475     8A     -0.487070     9A     -0.486007  

    Virtual:                                                              

      10A      0.040648    11A      0.053260    12A      0.063608  
      13A      0.068346    14A      0.076163    15A      0.083907  
      16A      0.092652    17A      0.106227    18A      0.107846  
      19A      0.120489    20A      0.136503    21A      0.148044  
      22A      0.154733    23A      0.162706    24A      0.178082  
      25A      0.185713    26A      0.190770    27A      0.201094  
      28A      0.220814    29A      0.239643    30A      0.263946  
      31A      0.264371    32A      0.279808    33A      0.285735  
      34A      0.310758    35A      0.323071    36A      0.328637  
      37A      0.329741    38A      0.341292    39A      0.345701  
      40A      0.349984    41A      0.356977    42A      0.360415  
      43A      0.365412    44A      0.370254    45A      0.383889  
      46A      0.385145    47A      0.400493    48A      0.417113  
      49A      0.432501    50A      0.443877    51A      0.467469  
      52A      0.470379    53A      0.494358    54A      0.499301  
      55A      0.507599    56A      0.521165    57A      0.527598  
      58A      0.569481    59A      0.616723    60A      0.620114  
      61A      0.650693    62A      0.658363    63A      0.672987  
      64A      0.680620    65A      0.714553    66A      0.715330  
      67A      0.729169    68A      0.745160    69A      0.747311  
      70A      0.769404    71A      0.784903    72A      0.792208  
      73A      0.802313    74A      0.802440    75A      0.807822  
      76A      0.826223    77A      0.829587    78A      0.842514  
      79A      0.872040    80A      0.879720    81A      0.880018  
      82A      0.900976    83A      0.927022    84A      0.952775  
      85A      0.956848    86A      0.996180    87A      1.003594  
      88A      1.011037    89A      1.019441    90A      1.022783  
      91A      1.036709    92A      1.063888    93A      1.066589  
      94A      1.093685    95A      1.135231    96A      1.138330  
      97A      1.184916    98A      1.210787    99A      1.257108  
     100A      1.280196   101A      1.296951   102A      1.304169  
     103A      1.332383   104A      1.333646   105A      1.362918  
     106A      1.375162   107A      1.391958   108A      1.406032  
     109A      1.410506   110A      1.438009   111A      1.458136  
     112A      1.459302   113A      1.473445   114A      1.481776  
     115A      1.507554   116A      1.533909   117A      1.573878  
     118A      1.588583   119A      1.594901   120A      1.603754  
     121A      1.628289   122A      1.658619   123A      1.664074  
     124A      1.674267   125A      1.691098   126A      1.703982  
     127A      1.732777   128A      1.740242   129A      1.753673  
     130A      1.807538   131A      1.844563   132A      1.858853  
     133A      1.866893   134A      1.895043   135A      1.905972  
     136A      1.926760   137A      1.982602   138A      2.014960  
     139A      2.063427   140A      2.196107   141A      2.230841  
     142A      2.293473   143A      2.413529   144A      2.509487  
     145A      2.512989   146A      2.578508   147A      2.624796  
     148A      2.675424   149A      2.710268   150A      2.727117  
     151A      2.735938   152A      2.763571   153A      2.770853  
     154A      2.787557   155A      2.787986   156A      2.809865  
     157A      2.838674   158A      2.875925   159A      2.935907  
     160A      2.990057   161A      3.013158   162A      3.069604  
     163A      3.081083   164A      3.104847   165A      3.119071  
     166A      3.179797   167A      3.185547   168A      3.196229  
     169A      3.227240   170A      3.261832   171A      3.264189  
     172A      3.310219   173A      3.333058   174A      3.380118  
     175A      3.416482   176A      3.430308   177A      3.438199  
     178A      3.457197   179A      3.485945   180A      3.492555  
     181A      3.526534   182A      3.556627   183A      3.580419  
     184A      3.605009   185A      3.634027   186A      3.636839  
     187A      3.665820   188A      3.680242   189A      3.707599  
     190A      3.770439   191A      3.783729   192A      3.816838  
     193A      3.830526   194A      3.855756   195A      3.861518  
     196A      3.873408   197A      3.902509   198A      3.924108  
     199A      3.948640   200A      3.967733   201A      3.974860  
     202A      4.010302   203A      4.154437   204A      4.177823  
     205A      4.185951   206A      4.186289   207A      4.197233  
     208A      4.207175   209A      4.247100   210A      4.263355  
     211A      4.267585   212A      4.280131   213A      4.302845  
     214A      4.348287   215A      4.373982   216A      4.381370  
     217A      4.413820   218A      4.424457   219A      4.430200  
     220A      4.480312   221A      4.482056   222A      4.488401  
     223A      4.494785   224A      4.494890   225A      4.508360  
     226A      4.520531   227A      4.540955   228A      4.631824  
     229A      4.658857   230A      4.662437   231A      4.687128  
     232A      4.690880   233A      4.716262   234A      4.731355  
     235A      4.761094   236A      4.780967   237A      4.797508  
     238A      4.803185   239A      4.826306   240A      4.846563  
     241A      4.852950   242A      4.882688   243A      4.931844  
     244A      4.937783   245A      4.992035   246A      5.029478  
     247A      5.059220   248A      5.091229   249A      5.143140  
     250A      5.174891   251A      5.205968   252A      5.210136  
     253A      5.271635   254A      5.290914   255A      5.297882  
     256A      5.313396   257A      5.340030   258A      5.359700  
     259A      5.445048   260A      5.544525   261A      5.686022  
     262A      5.687194   263A      5.704420   264A      5.747652  
     265A      5.758674   266A      5.765834   267A      5.780833  
     268A      5.793334   269A      5.812256   270A      5.889683  
     271A      5.900933   272A      5.927218   273A      5.939673  
     274A      6.049757   275A      6.058668   276A      6.168275  
     277A      6.279454   278A      6.318645   279A      6.413608  
     280A      6.437613   281A      6.475786   282A      6.477035  
     283A      6.494387   284A      6.520098   285A      6.539131  
     286A      6.549263   287A      6.555369   288A      6.782137  
     289A      6.828766   290A      6.955394   291A      7.093600  
     292A      7.323705   293A      7.326720   294A      7.453026  
     295A      7.469847   296A      7.773288   297A      7.839924  
     298A      8.055703   299A      8.320464   300A      8.444204  
     301A      8.812743   302A      9.007872   303A      9.079468  
     304A      9.226695   305A      9.377066   306A      9.763803  
     307A      9.847523   308A      9.868471   309A     10.093788  
     310A     10.430583   311A     10.889064   312A     11.289435  
     313A     11.550732   314A     11.675523   315A     11.878003  
     316A     13.745459   317A     14.217032   318A     14.663315  
     319A     44.461850   320A     54.936470   321A     59.946463  

    Final Occupation by Irrep:
              A 
    DOCC [     9 ]

  @DF-RHF Final Energy:   -79.26006792590002

   => Energetics <=

    Nuclear Repulsion Energy =             42.3258093095266972
    One-Electron Energy =                -189.2575697474533172
    Two-Electron Energy =                  67.6716925120265955
    Total Energy =                        -79.2600679259000174

Computation Completed


Properties will be evaluated at   0.000000,   0.000000,   0.000000 [a0]

Properties computed using the SCF density matrix

  Nuclear Dipole Moment: [e a0]
     X:   -78.0601      Y:     1.3036      Z:     0.0209

  Electronic Dipole Moment: [e a0]
     X:    78.0570      Y:    -1.3041      Z:    -0.0209

  Dipole Moment: [e a0]
     X:    -0.0031      Y:    -0.0005      Z:    -0.0000     Total:     0.0032

  Dipole Moment: [D]
     X:    -0.0080      Y:    -0.0014      Z:    -0.0000     Total:     0.0081


*** tstop() called on r282 at Sat Sep 11 02:04:53 2021
Module time:
	user time   =       5.03 seconds =       0.08 minutes
	system time =       0.17 seconds =       0.00 minutes
	total time  =          5 seconds =       0.08 minutes
Total time:
	user time   =      23.78 seconds =       0.40 minutes
	system time =       0.76 seconds =       0.01 minutes
	total time  =         24 seconds =       0.40 minutes
  Constructing Basis Sets for SAPT...

   => Loading Basis Set <=

    Name: (JUN-CC-PVTZ AUX)
    Role: RIFIT
    Keyword: DF_BASIS_SAPT
    atoms 1, 7-8    entry C          line   132 file /home/r08543048/miniconda3/share/psi4/basis/jun-cc-pvtz-ri.gbs 
    atoms 2         entry O          line   244 file /home/r08543048/miniconda3/share/psi4/basis/jun-cc-pvtz-ri.gbs 
    atoms 3         entry N          line   188 file /home/r08543048/miniconda3/share/psi4/basis/jun-cc-pvtz-ri.gbs 
    atoms 4-6, 9-14 entry H          line    30 file /home/r08543048/miniconda3/share/psi4/basis/jun-cc-pvtz-ri.gbs 


  //>>>>>>>>>>>>>>>>>>>>>>>>>>>>>>>>>>>//
  //               SAPT0               //
  //<<<<<<<<<<<<<<<<<<<<<<<<<<<<<<<<<<<//


*** tstart() called on r282
*** at Sat Sep 11 02:04:53 2021

        SAPT0  
    Ed Hohenstein
     6 June 2009

      Orbital Information
  --------------------------
    NSO        =       321
    NMO        =       321
    NRI        =       755
    NOCC A     =        12
    NOCC B     =         9
    FOCC A     =         0
    FOCC B     =         0
    NVIR A     =       309
    NVIR B     =       312

    Elst10,r            =    -0.002440190205 [Eh]
    Exch10              =     0.004407114691 [Eh]
    Exch10 (S^2)        =     0.004399867773 [Eh]

    Iter     Energy [mEh]          dE [mEh]         Residual      Time [s]
       1      -0.26533947       0.265339474       2.143300419             0
       2      -0.32562656       0.060287089       0.448655175             0
       3      -0.32497371      -0.000652852       0.222991964             1
       4      -0.32395616      -0.001017548       0.072639568             1
       5      -0.32401441       0.000058253       0.036646723             1
       6      -0.32415903       0.000144619       0.011512863             1
       7      -0.32414405      -0.000014980       0.004442171             2
       8      -0.32413157      -0.000012485       0.001113481             2
       9      -0.32413250       0.000000934       0.000274783             2
      10      -0.32413316       0.000000658       0.000053738             2
      11      -0.32413301      -0.000000155       0.000010480             2
      12      -0.32413301       0.000000008       0.000002711             3
      13      -0.32413302       0.000000005       0.000000880             3

    CHF Iterations converged


    Iter     Energy [mEh]          dE [mEh]         Residual      Time [s]
       1      -1.17537677       1.175376772       5.843634897             0
       2      -1.49411844       0.318741666       1.565854680             0
       3      -1.50007784       0.005959406       0.483493789             1
       4      -1.49343451      -0.006643335       0.089061130             1
       5      -1.49357190       0.000137389       0.017495674             1
       6      -1.49370896       0.000137060       0.004526814             1
       7      -1.49370702      -0.000001938       0.001120461             2
       8      -1.49370040      -0.000006620       0.000288224             2
       9      -1.49370011      -0.000000293       0.000052642             2
      10      -1.49370051       0.000000402       0.000007232             2
      11      -1.49370044      -0.000000070       0.000001105             3
      12      -1.49370044       0.000000005       0.000000206             3

    CHF Iterations converged

    Ind20,r (A<-B)      =    -0.000324133018 [Eh]
    Ind20,r (B<-A)      =    -0.001493700443 [Eh]
    Ind20,r             =    -0.001817833461 [Eh]
    Exch-Ind20,r (A<-B) =     0.000278149883 [Eh]
    Exch-Ind20,r (B<-A) =     0.000455571761 [Eh]
    Exch-Ind20,r        =     0.000733721644 [Eh]
    Disp20              =    -0.004024117332 [Eh]
    Disp20 (SS)         =    -0.002012058666 [Eh]
    Disp20 (OS)         =    -0.002012058666 [Eh]
    Exch-Disp20         =     0.000389228188 [Eh]
    Exch-Disp20 (SS)    =     0.000252770548 [Eh]
    Exch-Disp20 (OS)    =     0.000136457640 [Eh]

    SAPT Results 
  --------------------------------------------------------------------------------------------------------
    Electrostatics                 -2.44019021 [mEh]      -1.53124247 [kcal/mol]      -6.40671850 [kJ/mol]
      Elst10,r                     -2.44019021 [mEh]      -1.53124247 [kcal/mol]      -6.40671850 [kJ/mol]

    Exchange                        4.40711469 [mEh]       2.76550622 [kcal/mol]      11.57087803 [kJ/mol]
      Exch10                        4.40711469 [mEh]       2.76550622 [kcal/mol]      11.57087803 [kJ/mol]
      Exch10(S^2)                   4.39986777 [mEh]       2.76095871 [kcal/mol]      11.55185125 [kJ/mol]

    Induction                      -1.52370158 [mEh]      -0.95613718 [kcal/mol]      -4.00047795 [kJ/mol]
      Ind20,r                      -1.81783346 [mEh]      -1.14070772 [kcal/mol]      -4.77272109 [kJ/mol]
      Exch-Ind20,r                  0.73372164 [mEh]       0.46041728 [kcal/mol]       1.92638591 [kJ/mol]
      delta HF,r (2)               -0.43958977 [mEh]      -0.27584674 [kcal/mol]      -1.15414277 [kJ/mol]

    Dispersion                     -3.63488914 [mEh]      -2.28092737 [kcal/mol]      -9.54340013 [kJ/mol]
      Disp20                       -4.02411733 [mEh]      -2.52517175 [kcal/mol]     -10.56531860 [kJ/mol]
      Exch-Disp20                   0.38922819 [mEh]       0.24424438 [kcal/mol]       1.02191847 [kJ/mol]
      Disp20 (SS)                  -2.01205867 [mEh]      -1.26258587 [kcal/mol]      -5.28265930 [kJ/mol]
      Disp20 (OS)                  -2.01205867 [mEh]      -1.26258587 [kcal/mol]      -5.28265930 [kJ/mol]
      Exch-Disp20 (SS)              0.25277055 [mEh]       0.15861591 [kcal/mol]       0.66364898 [kJ/mol]
      Exch-Disp20 (OS)              0.13645764 [mEh]       0.08562846 [kcal/mol]       0.35826948 [kJ/mol]

  Total HF                          0.44322290 [mEh]       0.27812657 [kcal/mol]       1.16368157 [kJ/mol]
  Total SAPT0                      -3.19166624 [mEh]      -2.00280080 [kcal/mol]      -8.37971856 [kJ/mol]

  Special recipe for scaled SAPT0 (see Manual):
    Electrostatics sSAPT0          -2.44019021 [mEh]      -1.53124247 [kcal/mol]      -6.40671850 [kJ/mol]
    Exchange sSAPT0                 4.40711469 [mEh]       2.76550622 [kcal/mol]      11.57087803 [kJ/mol]
    Induction sSAPT0               -1.52007012 [mEh]      -0.95385840 [kcal/mol]      -3.99094355 [kJ/mol]
    Dispersion sSAPT0              -3.63296271 [mEh]      -2.27971852 [kcal/mol]      -9.53834228 [kJ/mol]
  Total sSAPT0                     -3.18610834 [mEh]      -1.99931317 [kcal/mol]      -8.36512630 [kJ/mol]
  --------------------------------------------------------------------------------------------------------

*** tstop() called on r282 at Sat Sep 11 02:05:17 2021
Module time:
	user time   =      19.62 seconds =       0.33 minutes
	system time =       4.25 seconds =       0.07 minutes
	total time  =         24 seconds =       0.40 minutes
Total time:
	user time   =      43.50 seconds =       0.72 minutes
	system time =       5.01 seconds =       0.08 minutes
	total time  =         48 seconds =       0.80 minutes

    Psi4 stopped on: Saturday, 11 September 2021 02:05AM
    Psi4 wall time for execution: 0:00:48.61

*** Psi4 exiting successfully. Buy a developer a beer!
