
    -----------------------------------------------------------------------
          Psi4: An Open-Source Ab Initio Electronic Structure Package
                               Psi4 1.3.2 release

                         Git: Rev {HEAD} ecbda83 


    R. M. Parrish, L. A. Burns, D. G. A. Smith, A. C. Simmonett,
    A. E. DePrince III, E. G. Hohenstein, U. Bozkaya, A. Yu. Sokolov,
    R. Di Remigio, R. M. Richard, J. F. Gonthier, A. M. James,
    H. R. McAlexander, A. Kumar, M. Saitow, X. Wang, B. P. Pritchard,
    P. Verma, H. F. Schaefer III, K. Patkowski, R. A. King, E. F. Valeev,
    F. A. Evangelista, J. M. Turney, T. D. Crawford, and C. D. Sherrill,
    J. Chem. Theory Comput. 13(7) pp 3185--3197 (2017).
    (doi: 10.1021/acs.jctc.7b00174)


                         Additional Contributions by
    P. Kraus, H. Kruse, M. H. Lechner, M. C. Schieber, R. A. Shaw,
    A. Alenaizan, R. Galvelis, Z. L. Glick, S. Lehtola, and J. P. Misiewicz

    -----------------------------------------------------------------------


    Psi4 started on: Saturday, 11 September 2021 02:05AM

    Process ID: 57493
    Host:       r282
    PSIDATADIR: /home/r08543048/miniconda3/share/psi4
    Memory:     500.0 MiB
    Threads:    1
    
  ==> Input File <==

--------------------------------------------------------------------------
# Any line starting with the # character is a comment line
#! Sample  computation

memory 22 gb

molecule Dimer {
0 1
 C  1.363148    0.740785   -0.617534
 C  1.124868   -0.499724    0.220752
 O  0.680217   -0.465962    1.359423
 N  1.426923   -1.677770   -0.403048
 H  1.399228   -2.520689    0.144747
 H  1.911198   -1.689497   -1.281812
 C  0.869354    2.001474    0.070286
 H  1.366829    2.134829    1.028226
 H  1.063393    2.874716   -0.550604
 H -0.200012    1.940998    0.262469
 H  2.435499    0.805168   -0.820485
 H  0.872200    0.600251   -1.583102




    
    
 --
0 1
 C   -2.702325   -0.035396    0.538340
 C   -2.233871   -0.200050   -0.903161
 H   -3.388700    0.805470    0.634828
 H   -1.857745    0.131689    1.205206
 H   -3.223104   -0.928222    0.882807
 H   -1.736958    0.702011   -1.261473
 H   -3.069814   -0.400361   -1.573228
 H   -1.529252   -1.026809   -0.993726
   
   
   
   
   
   





units angstrom

no_reorient
symmetry c1
}

set globals{
  basis jun-cc-pvtz
}

energy('sapt0')


--------------------------------------------------------------------------

  Memory set to  20.489 GiB by Python driver.

  //>>>>>>>>>>>>>>>>>>>>>>>>>>>>>>>>>>>//
  //              Dimer HF             //
  //<<<<<<<<<<<<<<<<<<<<<<<<<<<<<<<<<<<//


*** tstart() called on r282
*** at Sat Sep 11 02:05:18 2021

   => Loading Basis Set <=

    Name: JUN-CC-PVTZ
    Role: ORBITAL
    Keyword: BASIS
    atoms 1-2, 7, 13-14    entry C          line   217 file /home/r08543048/miniconda3/share/psi4/basis/jun-cc-pvtz.gbs 
    atoms 3                entry O          line   305 file /home/r08543048/miniconda3/share/psi4/basis/jun-cc-pvtz.gbs 
    atoms 4                entry N          line   261 file /home/r08543048/miniconda3/share/psi4/basis/jun-cc-pvtz.gbs 
    atoms 5-6, 8-12, 15-20 entry H          line    36 file /home/r08543048/miniconda3/share/psi4/basis/jun-cc-pvtz.gbs 


         ---------------------------------------------------------
                                   SCF
               by Justin Turney, Rob Parrish, Andy Simmonett
                          and Daniel G. A. Smith
                              RHF Reference
                        1 Threads,  20980 MiB Core
         ---------------------------------------------------------

  ==> Geometry <==

    Molecular point group: c1
    Full point group: C1

    Geometry (in Angstrom), charge = 0, multiplicity = 1:

       Center              X                  Y                   Z               Mass       
    ------------   -----------------  -----------------  -----------------  -----------------
         C            1.305809765060     0.773816144067    -0.655045521300    12.000000000000
         C            1.067529765060    -0.466692855933     0.183240478700    12.000000000000
         O            0.622878765060    -0.432930855933     1.321911478700    15.994914619570
         N            1.369584765060    -1.644738855933    -0.440559521300    14.003074004430
         H            1.341889765060    -2.487657855933     0.107235478700     1.007825032230
         H            1.853859765060    -1.656465855933    -1.319323521300     1.007825032230
         C            0.812015765060     2.034505144067     0.032774478700    12.000000000000
         H            1.309490765060     2.167860144067     0.990714478700     1.007825032230
         H            1.006054765060     2.907747144067    -0.588115521300     1.007825032230
         H           -0.257350234940     1.974029144067     0.224957478700     1.007825032230
         H            2.378160765060     0.838199144067    -0.857996521300     1.007825032230
         H            0.814861765060     0.633282144067    -1.620613521300     1.007825032230
         C           -2.759663234940    -0.002364855933     0.500828478700    12.000000000000
         C           -2.291209234940    -0.167018855933    -0.940672521300    12.000000000000
         H           -3.446038234940     0.838501144067     0.597316478700     1.007825032230
         H           -1.915083234940     0.164720144067     1.167694478700     1.007825032230
         H           -3.280442234940    -0.895190855933     0.845295478700     1.007825032230
         H           -1.794296234940     0.735042144067    -1.298984521300     1.007825032230
         H           -3.127152234940    -0.367329855933    -1.610739521300     1.007825032230
         H           -1.586590234940    -0.993777855933    -1.031237521300     1.007825032230

  Running in c1 symmetry.

  Rotational constants: A =      0.08629  B =      0.04820  C =      0.04044 [cm^-1]
  Rotational constants: A =   2587.04063  B =   1444.91108  C =   1212.48716 [MHz]
  Nuclear repulsion =  317.556204454029171

  Charge       = 0
  Multiplicity = 1
  Electrons    = 58
  Nalpha       = 29
  Nbeta        = 29

  ==> Algorithm <==

  SCF Algorithm Type is DF.
  DIIS enabled.
  MOM disabled.
  Fractional occupation disabled.
  Guess Type is SAD.
  Energy threshold   = 1.00e-08
  Density threshold  = 1.00e-08
  Integral threshold = 0.00e+00

  ==> Primary Basis <==

  Basis Set: JUN-CC-PVTZ
    Blend: JUN-CC-PVTZ
    Number of shells: 169
    Number of basis function: 455
    Number of Cartesian functions: 510
    Spherical Harmonics?: true
    Max angular momentum: 3

   => Loading Basis Set <=

    Name: (JUN-CC-PVTZ AUX)
    Role: JKFIT
    Keyword: DF_BASIS_SCF
    atoms 1-2, 7, 13-14    entry C          line   152 file /home/r08543048/miniconda3/share/psi4/basis/jun-cc-pvtz-jkfit.gbs 
    atoms 3                entry O          line   272 file /home/r08543048/miniconda3/share/psi4/basis/jun-cc-pvtz-jkfit.gbs 
    atoms 4                entry N          line   212 file /home/r08543048/miniconda3/share/psi4/basis/jun-cc-pvtz-jkfit.gbs 
    atoms 5-6, 8-12, 15-20 entry H          line    70 file /home/r08543048/miniconda3/share/psi4/basis/jun-cc-pvtz-jkfit.gbs 

  ==> Pre-Iterations <==

   -------------------------------------------------------
    Irrep   Nso     Nmo     Nalpha   Nbeta   Ndocc  Nsocc
   -------------------------------------------------------
     A        455     455       0       0       0       0
   -------------------------------------------------------
    Total     455     455      29      29      29       0
   -------------------------------------------------------

  ==> Integral Setup <==

  ==> DiskDFJK: Density-Fitted J/K Matrices <==

    J tasked:                  Yes
    K tasked:                  Yes
    wK tasked:                  No
    OpenMP threads:              1
    Integrals threads:           1
    Memory [MiB]:            15735
    Algorithm:                Core
    Integral Cache:           SAVE
    Schwarz Cutoff:          1E-12
    Fitting Condition:       1E-10

   => Auxiliary Basis Set <=

  Basis Set: (JUN-CC-PVTZ AUX)
    Blend: JUN-CC-PVTZ-JKFIT
    Number of shells: 333
    Number of basis function: 1055
    Number of Cartesian functions: 1267
    Spherical Harmonics?: true
    Max angular momentum: 4

  Minimum eigenvalue in the overlap matrix is 2.9013233687E-05.
  Using Symmetric Orthogonalization.

  SCF Guess: Superposition of Atomic Densities via on-the-fly atomic UHF.

  ==> Iterations <==

                           Total Energy        Delta E     RMS |[F,P]|

   @DF-RHF iter SAD:  -325.08709979212199   -3.25087e+02   0.00000e+00 
   @DF-RHF iter   1:  -326.04225726867190   -9.55157e-01   1.71616e-03 DIIS
   @DF-RHF iter   2:  -326.29406987281345   -2.51813e-01   9.22662e-04 DIIS
   @DF-RHF iter   3:  -326.36289721094471   -6.88273e-02   1.87356e-04 DIIS
   @DF-RHF iter   4:  -326.36716415077115   -4.26694e-03   8.94515e-05 DIIS
   @DF-RHF iter   5:  -326.36809431264265   -9.30162e-04   1.29705e-05 DIIS
   @DF-RHF iter   6:  -326.36814137981992   -4.70672e-05   4.62429e-06 DIIS
   @DF-RHF iter   7:  -326.36814665311374   -5.27329e-06   1.95353e-06 DIIS
   @DF-RHF iter   8:  -326.36814772130208   -1.06819e-06   8.21401e-07 DIIS
   @DF-RHF iter   9:  -326.36814792887941   -2.07577e-07   2.06605e-07 DIIS
   @DF-RHF iter  10:  -326.36814794196687   -1.30875e-08   5.79406e-08 DIIS
   @DF-RHF iter  11:  -326.36814794273056   -7.63691e-10   1.85462e-08 DIIS
   @DF-RHF iter  12:  -326.36814794280406   -7.34985e-11   5.00597e-09 DIIS
  Energy and wave function converged.


  ==> Post-Iterations <==

    Orbital Energies [Eh]
    ---------------------

    Doubly Occupied:                                                      

       1A    -20.519903     2A    -15.584372     3A    -11.351551  
       4A    -11.241824     5A    -11.214825     6A    -11.203926  
       7A    -11.195628     8A     -1.379225     9A     -1.211977  
      10A     -1.053268    11A     -1.008844    12A     -0.894780  
      13A     -0.831964    14A     -0.781933    15A     -0.720092  
      16A     -0.672996    17A     -0.642409    18A     -0.603537  
      19A     -0.589877    20A     -0.584255    21A     -0.550390  
      22A     -0.527632    23A     -0.517673    24A     -0.499258  
      25A     -0.495802    26A     -0.477688    27A     -0.475248  
      28A     -0.425824    29A     -0.415260  

    Virtual:                                                              

      30A      0.040907    31A      0.054678    32A      0.059514  
      33A      0.062496    34A      0.072821    35A      0.082784  
      36A      0.091126    37A      0.093799    38A      0.097006  
      39A      0.116920    40A      0.119289    41A      0.120886  
      42A      0.124989    43A      0.131391    44A      0.136286  
      45A      0.142914    46A      0.159568    47A      0.172733  
      48A      0.178475    49A      0.192363    50A      0.198394  
      51A      0.200635    52A      0.209376    53A      0.214702  
      54A      0.242053    55A      0.245985    56A      0.252220  
      57A      0.263350    58A      0.273076    59A      0.278408  
      60A      0.282613    61A      0.297836    62A      0.301781  
      63A      0.303851    64A      0.309761    65A      0.313549  
      66A      0.319767    67A      0.326627    68A      0.332603  
      69A      0.342377    70A      0.346595    71A      0.354519  
      72A      0.356162    73A      0.365410    74A      0.367894  
      75A      0.377115    76A      0.384258    77A      0.390511  
      78A      0.401799    79A      0.404898    80A      0.409986  
      81A      0.416317    82A      0.427115    83A      0.436264  
      84A      0.445701    85A      0.456248    86A      0.469837  
      87A      0.474705    88A      0.497445    89A      0.502289  
      90A      0.511531    91A      0.515074    92A      0.524998  
      93A      0.530243    94A      0.541805    95A      0.552109  
      96A      0.556905    97A      0.571367    98A      0.574202  
      99A      0.586948   100A      0.593240   101A      0.603722  
     102A      0.625684   103A      0.637204   104A      0.648784  
     105A      0.661737   106A      0.670862   107A      0.687727  
     108A      0.701714   109A      0.705181   110A      0.715297  
     111A      0.741599   112A      0.745950   113A      0.751722  
     114A      0.754164   115A      0.764092   116A      0.780345  
     117A      0.783111   118A      0.788817   119A      0.795852  
     120A      0.805761   121A      0.817815   122A      0.826179  
     123A      0.831798   124A      0.842841   125A      0.852253  
     126A      0.859018   127A      0.870987   128A      0.878836  
     129A      0.880286   130A      0.885553   131A      0.895437  
     132A      0.913790   133A      0.924571   134A      0.927621  
     135A      0.953077   136A      0.962860   137A      0.973422  
     138A      0.987093   139A      0.991197   140A      0.998165  
     141A      1.011232   142A      1.036161   143A      1.042086  
     144A      1.057182   145A      1.087165   146A      1.100550  
     147A      1.106918   148A      1.116157   149A      1.137402  
     150A      1.146300   151A      1.160703   152A      1.169641  
     153A      1.188087   154A      1.213275   155A      1.231679  
     156A      1.246359   157A      1.257149   158A      1.295977  
     159A      1.298852   160A      1.302393   161A      1.328722  
     162A      1.331713   163A      1.346457   164A      1.357657  
     165A      1.362902   166A      1.364476   167A      1.377975  
     168A      1.391130   169A      1.393269   170A      1.410663  
     171A      1.424546   172A      1.432553   173A      1.440893  
     174A      1.456553   175A      1.462733   176A      1.476266  
     177A      1.485772   178A      1.490976   179A      1.503884  
     180A      1.518290   181A      1.526936   182A      1.536208  
     183A      1.551050   184A      1.562915   185A      1.566360  
     186A      1.579640   187A      1.593569   188A      1.606517  
     189A      1.620615   190A      1.634491   191A      1.648706  
     192A      1.652020   193A      1.670745   194A      1.692516  
     195A      1.700557   196A      1.711819   197A      1.718291  
     198A      1.729025   199A      1.738052   200A      1.763572  
     201A      1.778754   202A      1.807203   203A      1.823984  
     204A      1.847986   205A      1.858966   206A      1.868125  
     207A      1.891273   208A      1.915033   209A      1.919079  
     210A      1.938061   211A      1.955124   212A      1.960167  
     213A      1.976524   214A      2.000596   215A      2.040316  
     216A      2.081961   217A      2.096822   218A      2.162533  
     219A      2.238068   220A      2.285597   221A      2.414077  
     222A      2.437045   223A      2.502437   224A      2.526716  
     225A      2.689386   226A      2.747530   227A      2.763184  
     228A      2.766501   229A      2.775920   230A      2.790557  
     231A      2.800311   232A      2.815320   233A      2.844327  
     234A      2.845146   235A      2.876931   236A      2.898584  
     237A      2.929223   238A      2.954091   239A      2.978938  
     240A      2.987198   241A      2.988913   242A      3.030170  
     243A      3.049068   244A      3.073294   245A      3.088239  
     246A      3.107910   247A      3.129872   248A      3.133808  
     249A      3.142702   250A      3.154007   251A      3.160896  
     252A      3.187116   253A      3.205120   254A      3.210474  
     255A      3.229087   256A      3.246754   257A      3.254852  
     258A      3.270194   259A      3.299048   260A      3.310472  
     261A      3.321538   262A      3.328881   263A      3.351009  
     264A      3.359307   265A      3.363370   266A      3.380207  
     267A      3.401121   268A      3.406101   269A      3.421415  
     270A      3.433288   271A      3.442417   272A      3.447382  
     273A      3.459762   274A      3.466458   275A      3.470091  
     276A      3.492936   277A      3.501931   278A      3.508442  
     279A      3.523819   280A      3.527278   281A      3.534581  
     282A      3.547546   283A      3.555096   284A      3.564063  
     285A      3.585396   286A      3.596297   287A      3.603391  
     288A      3.618981   289A      3.624883   290A      3.634354  
     291A      3.663324   292A      3.668029   293A      3.681001  
     294A      3.700815   295A      3.727612   296A      3.733337  
     297A      3.771105   298A      3.791624   299A      3.799818  
     300A      3.810181   301A      3.841695   302A      3.849489  
     303A      3.851052   304A      3.864987   305A      3.868736  
     306A      3.877968   307A      3.893122   308A      3.912196  
     309A      3.921491   310A      3.925716   311A      3.943329  
     312A      3.955975   313A      3.971090   314A      3.977097  
     315A      3.994556   316A      4.019736   317A      4.053558  
     318A      4.063215   319A      4.084871   320A      4.134698  
     321A      4.177633   322A      4.185897   323A      4.202231  
     324A      4.205980   325A      4.217085   326A      4.226949  
     327A      4.237915   328A      4.245757   329A      4.252609  
     330A      4.276258   331A      4.278928   332A      4.289089  
     333A      4.297144   334A      4.309845   335A      4.320304  
     336A      4.340627   337A      4.345744   338A      4.375516  
     339A      4.393388   340A      4.414303   341A      4.422358  
     342A      4.430118   343A      4.435536   344A      4.450633  
     345A      4.462979   346A      4.469055   347A      4.484162  
     348A      4.496006   349A      4.510142   350A      4.513610  
     351A      4.532684   352A      4.540966   353A      4.554788  
     354A      4.568955   355A      4.604162   356A      4.618704  
     357A      4.639586   358A      4.647129   359A      4.666324  
     360A      4.679901   361A      4.686409   362A      4.704383  
     363A      4.714467   364A      4.719695   365A      4.740142  
     366A      4.743849   367A      4.792303   368A      4.817869  
     369A      4.834830   370A      4.839573   371A      4.860258  
     372A      4.904029   373A      4.927484   374A      4.965098  
     375A      4.984677   376A      5.011582   377A      5.053850  
     378A      5.109704   379A      5.153503   380A      5.165549  
     381A      5.196167   382A      5.215666   383A      5.226422  
     384A      5.237653   385A      5.256843   386A      5.264085  
     387A      5.282485   388A      5.291947   389A      5.302894  
     390A      5.303484   391A      5.317854   392A      5.330182  
     393A      5.343655   394A      5.349929   395A      5.372483  
     396A      5.381685   397A      5.411197   398A      5.430552  
     399A      5.474111   400A      5.514197   401A      5.616509  
     402A      5.652773   403A      5.671313   404A      5.695086  
     405A      5.704840   406A      5.724677   407A      5.740088  
     408A      5.755225   409A      5.765939   410A      5.775844  
     411A      5.781118   412A      5.786974   413A      5.794392  
     414A      5.811734   415A      5.823922   416A      5.849628  
     417A      5.868509   418A      5.918691   419A      5.927550  
     420A      5.933548   421A      5.949396   422A      5.949973  
     423A      5.994679   424A      6.035263   425A      6.080159  
     426A      6.110579   427A      6.193509   428A      6.238809  
     429A      6.367120   430A      6.471267   431A      6.488017  
     432A      6.496570   433A      6.510207   434A      6.514785  
     435A      6.532630   436A      6.547626   437A      6.580170  
     438A      6.677539   439A      6.799951   440A      6.855482  
     441A      7.202363   442A      7.295747   443A      7.366214  
     444A      7.446689   445A      7.453446   446A      7.521226  
     447A      7.749861   448A      7.792335   449A     12.091395  
     450A     14.053669   451A     14.267122   452A     14.335662  
     453A     14.683316   454A     14.763147   455A     15.386003  

    Final Occupation by Irrep:
              A 
    DOCC [    29 ]

  @DF-RHF Final Energy:  -326.36814794280406

   => Energetics <=

    Nuclear Repulsion Energy =            317.5562044540291708
    One-Electron Energy =               -1072.5047859147464351
    Two-Electron Energy =                 428.5804335179132067
    Total Energy =                       -326.3681479428040575

Computation Completed


Properties will be evaluated at   0.000000,   0.000000,   0.000000 [a0]

Properties computed using the SCF density matrix

  Nuclear Dipole Moment: [e a0]
     X:    -6.2845      Y:     3.6204      Z:    -4.1114

  Electronic Dipole Moment: [e a0]
     X:     7.0659      Y:    -3.8761      Z:     2.7972

  Dipole Moment: [e a0]
     X:     0.7814      Y:    -0.2557      Z:    -1.3142     Total:     1.5502

  Dipole Moment: [D]
     X:     1.9861      Y:    -0.6499      Z:    -3.3405     Total:     3.9403


*** tstop() called on r282 at Sat Sep 11 02:06:07 2021
Module time:
	user time   =      48.17 seconds =       0.80 minutes
	system time =       1.13 seconds =       0.02 minutes
	total time  =         49 seconds =       0.82 minutes
Total time:
	user time   =      48.17 seconds =       0.80 minutes
	system time =       1.13 seconds =       0.02 minutes
	total time  =         49 seconds =       0.82 minutes

  //>>>>>>>>>>>>>>>>>>>>>>>>>>>>>>>>>>>//
  //            Monomer A HF           //
  //<<<<<<<<<<<<<<<<<<<<<<<<<<<<<<<<<<<//


*** tstart() called on r282
*** at Sat Sep 11 02:06:07 2021

   => Loading Basis Set <=

    Name: JUN-CC-PVTZ
    Role: ORBITAL
    Keyword: BASIS
    atoms 1-2, 7, 13-14    entry C          line   217 file /home/r08543048/miniconda3/share/psi4/basis/jun-cc-pvtz.gbs 
    atoms 3                entry O          line   305 file /home/r08543048/miniconda3/share/psi4/basis/jun-cc-pvtz.gbs 
    atoms 4                entry N          line   261 file /home/r08543048/miniconda3/share/psi4/basis/jun-cc-pvtz.gbs 
    atoms 5-6, 8-12, 15-20 entry H          line    36 file /home/r08543048/miniconda3/share/psi4/basis/jun-cc-pvtz.gbs 


         ---------------------------------------------------------
                                   SCF
               by Justin Turney, Rob Parrish, Andy Simmonett
                          and Daniel G. A. Smith
                              RHF Reference
                        1 Threads,  20980 MiB Core
         ---------------------------------------------------------

  ==> Geometry <==

    Molecular point group: c1
    Full point group: C1

    Geometry (in Angstrom), charge = 0, multiplicity = 1:

       Center              X                  Y                   Z               Mass       
    ------------   -----------------  -----------------  -----------------  -----------------
         C            1.305809765060     0.773816144067    -0.655045521300    12.000000000000
         C            1.067529765060    -0.466692855933     0.183240478700    12.000000000000
         O            0.622878765060    -0.432930855933     1.321911478700    15.994914619570
         N            1.369584765060    -1.644738855933    -0.440559521300    14.003074004430
         H            1.341889765060    -2.487657855933     0.107235478700     1.007825032230
         H            1.853859765060    -1.656465855933    -1.319323521300     1.007825032230
         C            0.812015765060     2.034505144067     0.032774478700    12.000000000000
         H            1.309490765060     2.167860144067     0.990714478700     1.007825032230
         H            1.006054765060     2.907747144067    -0.588115521300     1.007825032230
         H           -0.257350234940     1.974029144067     0.224957478700     1.007825032230
         H            2.378160765060     0.838199144067    -0.857996521300     1.007825032230
         H            0.814861765060     0.633282144067    -1.620613521300     1.007825032230
      Gh(C)          -2.759663234940    -0.002364855933     0.500828478700    12.000000000000
      Gh(C)          -2.291209234940    -0.167018855933    -0.940672521300    12.000000000000
      Gh(H)          -3.446038234940     0.838501144067     0.597316478700     1.007825032230
      Gh(H)          -1.915083234940     0.164720144067     1.167694478700     1.007825032230
      Gh(H)          -3.280442234940    -0.895190855933     0.845295478700     1.007825032230
      Gh(H)          -1.794296234940     0.735042144067    -1.298984521300     1.007825032230
      Gh(H)          -3.127152234940    -0.367329855933    -1.610739521300     1.007825032230
      Gh(H)          -1.586590234940    -0.993777855933    -1.031237521300     1.007825032230

  Running in c1 symmetry.

  Rotational constants: A =      0.08629  B =      0.04820  C =      0.04044 [cm^-1]
  Rotational constants: A =   2587.04063  B =   1444.91108  C =   1212.48716 [MHz]
  Nuclear repulsion =  179.143269479207049

  Charge       = 0
  Multiplicity = 1
  Electrons    = 40
  Nalpha       = 20
  Nbeta        = 20

  ==> Algorithm <==

  SCF Algorithm Type is DF.
  DIIS enabled.
  MOM disabled.
  Fractional occupation disabled.
  Guess Type is SAD.
  Energy threshold   = 1.00e-08
  Density threshold  = 1.00e-08
  Integral threshold = 0.00e+00

  ==> Primary Basis <==

  Basis Set: JUN-CC-PVTZ
    Blend: JUN-CC-PVTZ
    Number of shells: 169
    Number of basis function: 455
    Number of Cartesian functions: 510
    Spherical Harmonics?: true
    Max angular momentum: 3

   => Loading Basis Set <=

    Name: (JUN-CC-PVTZ AUX)
    Role: JKFIT
    Keyword: DF_BASIS_SCF
    atoms 1-2, 7, 13-14    entry C          line   152 file /home/r08543048/miniconda3/share/psi4/basis/jun-cc-pvtz-jkfit.gbs 
    atoms 3                entry O          line   272 file /home/r08543048/miniconda3/share/psi4/basis/jun-cc-pvtz-jkfit.gbs 
    atoms 4                entry N          line   212 file /home/r08543048/miniconda3/share/psi4/basis/jun-cc-pvtz-jkfit.gbs 
    atoms 5-6, 8-12, 15-20 entry H          line    70 file /home/r08543048/miniconda3/share/psi4/basis/jun-cc-pvtz-jkfit.gbs 

  ==> Pre-Iterations <==

   -------------------------------------------------------
    Irrep   Nso     Nmo     Nalpha   Nbeta   Ndocc  Nsocc
   -------------------------------------------------------
     A        455     455       0       0       0       0
   -------------------------------------------------------
    Total     455     455      20      20      20       0
   -------------------------------------------------------

  ==> Integral Setup <==

  ==> DiskDFJK: Density-Fitted J/K Matrices <==

    J tasked:                  Yes
    K tasked:                  Yes
    wK tasked:                  No
    OpenMP threads:              1
    Integrals threads:           1
    Memory [MiB]:            15735
    Algorithm:                Core
    Integral Cache:           LOAD
    Schwarz Cutoff:          1E-12
    Fitting Condition:       1E-10

   => Auxiliary Basis Set <=

  Basis Set: (JUN-CC-PVTZ AUX)
    Blend: JUN-CC-PVTZ-JKFIT
    Number of shells: 333
    Number of basis function: 1055
    Number of Cartesian functions: 1267
    Spherical Harmonics?: true
    Max angular momentum: 4

  Minimum eigenvalue in the overlap matrix is 2.9013233687E-05.
  Using Symmetric Orthogonalization.

  SCF Guess: Superposition of Atomic Densities via on-the-fly atomic UHF.

  ==> Iterations <==

                           Total Energy        Delta E     RMS |[F,P]|

   @DF-RHF iter SAD:  -246.30154113287631   -2.46302e+02   0.00000e+00 
   @DF-RHF iter   1:  -246.89405456692560   -5.92513e-01   1.44047e-03 DIIS
   @DF-RHF iter   2:  -247.05641464315187   -1.62360e-01   8.26248e-04 DIIS
   @DF-RHF iter   3:  -247.10657875873031   -5.01641e-02   1.60898e-04 DIIS
   @DF-RHF iter   4:  -247.10958914494017   -3.01039e-03   7.13301e-05 DIIS
   @DF-RHF iter   5:  -247.11023756516448   -6.48420e-04   1.13763e-05 DIIS
   @DF-RHF iter   6:  -247.11027628783407   -3.87227e-05   4.70164e-06 DIIS
   @DF-RHF iter   7:  -247.11028134114088   -5.05331e-06   2.06047e-06 DIIS
   @DF-RHF iter   8:  -247.11028250670461   -1.16556e-06   7.72212e-07 DIIS
   @DF-RHF iter   9:  -247.11028270011099   -1.93406e-07   1.65996e-07 DIIS
   @DF-RHF iter  10:  -247.11028270944229   -9.33130e-09   3.79593e-08 DIIS
   @DF-RHF iter  11:  -247.11028270977727   -3.34978e-10   1.10148e-08 DIIS
   @DF-RHF iter  12:  -247.11028270979943   -2.21689e-11   3.43884e-09 DIIS
  Energy and wave function converged.


  ==> Post-Iterations <==

    Orbital Energies [Eh]
    ---------------------

    Doubly Occupied:                                                      

       1A    -20.518606     2A    -15.583357     3A    -11.350193  
       4A    -11.241819     5A    -11.214611     6A     -1.377298  
       7A     -1.210679     8A     -1.052651     9A     -0.894054  
      10A     -0.780806    11A     -0.719075    12A     -0.671674  
      13A     -0.639259    14A     -0.600585    15A     -0.550212  
      16A     -0.527045    17A     -0.517197    18A     -0.494453  
      19A     -0.424201    20A     -0.414374  

    Virtual:                                                              

      21A      0.036438    22A      0.048133    23A      0.054302  
      24A      0.057693    25A      0.069853    26A      0.080278  
      27A      0.084884    28A      0.091413    29A      0.096123  
      30A      0.110882    31A      0.116725    32A      0.118339  
      33A      0.121733    34A      0.126282    35A      0.133039  
      36A      0.141090    37A      0.150578    38A      0.162893  
      39A      0.167698    40A      0.179654    41A      0.188047  
      42A      0.196605    43A      0.203988    44A      0.210867  
      45A      0.230016    46A      0.242462    47A      0.247389  
      48A      0.252354    49A      0.258302    50A      0.269505  
      51A      0.278909    52A      0.286067    53A      0.290795  
      54A      0.294984    55A      0.304106    56A      0.311764  
      57A      0.319489    58A      0.324774    59A      0.327883  
      60A      0.340613    61A      0.345515    62A      0.358415  
      63A      0.362313    64A      0.371855    65A      0.378486  
      66A      0.382298    67A      0.390841    68A      0.404531  
      69A      0.409246    70A      0.416787    71A      0.421151  
      72A      0.429634    73A      0.434453    74A      0.447560  
      75A      0.449207    76A      0.458697    77A      0.469367  
      78A      0.484480    79A      0.490817    80A      0.503315  
      81A      0.511705    82A      0.524534    83A      0.526791  
      84A      0.541977    85A      0.543414    86A      0.549656  
      87A      0.558415    88A      0.571518    89A      0.578264  
      90A      0.581483    91A      0.594971    92A      0.599533  
      93A      0.606272    94A      0.614320    95A      0.627984  
      96A      0.644331    97A      0.647705    98A      0.652576  
      99A      0.663089   100A      0.671453   101A      0.685654  
     102A      0.689090   103A      0.719305   104A      0.724172  
     105A      0.743260   106A      0.761888   107A      0.772681  
     108A      0.782646   109A      0.786278   110A      0.794056  
     111A      0.814667   112A      0.831508   113A      0.839962  
     114A      0.848580   115A      0.868122   116A      0.882594  
     117A      0.887171   118A      0.891955   119A      0.906926  
     120A      0.927268   121A      0.937172   122A      0.958558  
     123A      0.981182   124A      0.986723   125A      1.002962  
     126A      1.026120   127A      1.049822   128A      1.054742  
     129A      1.071425   130A      1.075700   131A      1.099696  
     132A      1.109677   133A      1.116045   134A      1.128808  
     135A      1.131231   136A      1.142883   137A      1.145239  
     138A      1.163713   139A      1.182721   140A      1.188591  
     141A      1.195009   142A      1.207016   143A      1.212916  
     144A      1.227401   145A      1.238914   146A      1.251467  
     147A      1.262118   148A      1.269757   149A      1.298097  
     150A      1.303156   151A      1.314331   152A      1.323592  
     153A      1.340379   154A      1.349281   155A      1.354033  
     156A      1.369953   157A      1.372958   158A      1.381848  
     159A      1.390509   160A      1.404530   161A      1.414975  
     162A      1.431459   163A      1.433139   164A      1.446829  
     165A      1.454534   166A      1.475101   167A      1.476381  
     168A      1.491302   169A      1.503755   170A      1.516415  
     171A      1.526988   172A      1.544335   173A      1.556442  
     174A      1.563851   175A      1.567653   176A      1.576479  
     177A      1.586934   178A      1.610358   179A      1.616354  
     180A      1.624116   181A      1.636734   182A      1.651270  
     183A      1.671693   184A      1.693707   185A      1.702932  
     186A      1.709852   187A      1.717812   188A      1.734275  
     189A      1.749333   190A      1.776633   191A      1.780079  
     192A      1.788471   193A      1.802592   194A      1.832052  
     195A      1.838667   196A      1.870548   197A      1.887415  
     198A      1.898397   199A      1.931440   200A      1.953748  
     201A      1.965921   202A      1.981145   203A      2.012810  
     204A      2.048730   205A      2.080501   206A      2.092451  
     207A      2.106795   208A      2.125337   209A      2.175563  
     210A      2.246423   211A      2.247532   212A      2.286577  
     213A      2.313658   214A      2.359750   215A      2.412503  
     216A      2.425545   217A      2.440280   218A      2.451298  
     219A      2.507709   220A      2.530522   221A      2.549220  
     222A      2.577366   223A      2.738900   224A      2.776906  
     225A      2.788967   226A      2.848312   227A      2.871317  
     228A      2.899805   229A      2.931444   230A      2.965779  
     231A      2.991480   232A      3.015810   233A      3.033971  
     234A      3.054046   235A      3.112297   236A      3.136529  
     237A      3.152388   238A      3.163112   239A      3.192246  
     240A      3.239344   241A      3.284055   242A      3.310297  
     243A      3.317904   244A      3.336973   245A      3.359246  
     246A      3.388252   247A      3.399191   248A      3.414377  
     249A      3.433124   250A      3.443104   251A      3.450769  
     252A      3.458530   253A      3.471035   254A      3.499560  
     255A      3.506864   256A      3.518172   257A      3.531049  
     258A      3.555166   259A      3.564540   260A      3.568088  
     261A      3.577915   262A      3.583290   263A      3.590791  
     264A      3.596708   265A      3.612434   266A      3.630832  
     267A      3.640945   268A      3.647305   269A      3.657145  
     270A      3.665493   271A      3.690516   272A      3.696087  
     273A      3.729588   274A      3.759028   275A      3.782323  
     276A      3.792720   277A      3.803602   278A      3.811855  
     279A      3.817118   280A      3.831490   281A      3.844602  
     282A      3.857011   283A      3.864642   284A      3.881902  
     285A      3.888365   286A      3.912251   287A      3.930147  
     288A      3.947984   289A      3.950546   290A      3.972576  
     291A      3.981007   292A      4.009169   293A      4.040964  
     294A      4.059883   295A      4.077410   296A      4.082701  
     297A      4.094944   298A      4.121317   299A      4.137062  
     300A      4.151421   301A      4.180981   302A      4.186639  
     303A      4.211203   304A      4.226207   305A      4.234604  
     306A      4.246312   307A      4.259058   308A      4.281095  
     309A      4.298595   310A      4.333774   311A      4.339068  
     312A      4.371692   313A      4.372836   314A      4.384465  
     315A      4.396570   316A      4.409486   317A      4.424850  
     318A      4.434067   319A      4.437096   320A      4.452858  
     321A      4.459526   322A      4.467543   323A      4.473963  
     324A      4.492422   325A      4.507489   326A      4.526883  
     327A      4.531869   328A      4.539719   329A      4.557651  
     330A      4.569323   331A      4.590019   332A      4.595555  
     333A      4.620943   334A      4.624833   335A      4.638918  
     336A      4.664850   337A      4.669340   338A      4.696253  
     339A      4.702687   340A      4.713383   341A      4.722969  
     342A      4.734392   343A      4.743162   344A      4.762312  
     345A      4.766871   346A      4.776911   347A      4.784778  
     348A      4.799778   349A      4.840129   350A      4.844674  
     351A      4.850136   352A      4.863589   353A      4.877263  
     354A      4.906881   355A      4.917824   356A      4.938046  
     357A      4.959938   358A      4.972682   359A      4.980858  
     360A      5.001881   361A      5.016036   362A      5.020789  
     363A      5.033207   364A      5.053684   365A      5.061294  
     366A      5.074843   367A      5.093625   368A      5.114855  
     369A      5.148720   370A      5.167768   371A      5.178986  
     372A      5.231829   373A      5.255343   374A      5.261948  
     375A      5.274456   376A      5.294841   377A      5.307344  
     378A      5.321974   379A      5.372652   380A      5.396785  
     381A      5.408858   382A      5.416610   383A      5.421785  
     384A      5.437338   385A      5.477758   386A      5.518851  
     387A      5.622525   388A      5.650660   389A      5.657265  
     390A      5.666625   391A      5.679627   392A      5.701174  
     393A      5.733533   394A      5.744444   395A      5.751502  
     396A      5.760262   397A      5.775021   398A      5.805128  
     399A      5.849702   400A      5.871721   401A      5.921530  
     402A      5.936547   403A      5.994482   404A      6.008520  
     405A      6.019207   406A      6.038267   407A      6.081175  
     408A      6.111999   409A      6.195272   410A      6.238490  
     411A      6.239950   412A      6.333041   413A      6.347128  
     414A      6.366166   415A      6.377032   416A      6.389449  
     417A      6.408961   418A      6.462557   419A      6.469864  
     420A      6.497812   421A      6.523736   422A      6.534968  
     423A      6.562932   424A      6.678257   425A      6.797858  
     426A      6.817634   427A      6.856961   428A      6.908134  
     429A      7.204129   430A      7.298815   431A      7.361361  
     432A      7.372534   433A      7.447903   434A      7.454468  
     435A      7.501211   436A      7.512786   437A      7.553126  
     438A      7.661012   439A      7.693493   440A      7.751952  
     441A      7.791889   442A      7.803223   443A      7.818353  
     444A      7.901501   445A      7.935022   446A      8.288311  
     447A      9.737438   448A      9.943654   449A     12.098513  
     450A     14.091593   451A     14.302801   452A     14.748035  
     453A     15.384842   454A     45.128084   455A     45.644022  

    Final Occupation by Irrep:
              A 
    DOCC [    20 ]

  @DF-RHF Final Energy:  -247.11028270979943

   => Energetics <=

    Nuclear Repulsion Energy =            179.1432694792070492
    One-Electron Energy =                -690.9428032264568174
    Two-Electron Energy =                 264.6892510374503331
    Total Energy =                       -247.1102827097994350

Computation Completed


Properties will be evaluated at   0.000000,   0.000000,   0.000000 [a0]

Properties computed using the SCF density matrix

  Nuclear Dipole Moment: [e a0]
     X:    79.6127      Y:     6.5198      Z:     3.3903

  Electronic Dipole Moment: [e a0]
     X:   -78.8889      Y:    -6.7466      Z:    -4.7875

  Dipole Moment: [e a0]
     X:     0.7238      Y:    -0.2268      Z:    -1.3973     Total:     1.5899

  Dipole Moment: [D]
     X:     1.8396      Y:    -0.5764      Z:    -3.5515     Total:     4.0410


*** tstop() called on r282 at Sat Sep 11 02:06:37 2021
Module time:
	user time   =      28.95 seconds =       0.48 minutes
	system time =       0.55 seconds =       0.01 minutes
	total time  =         30 seconds =       0.50 minutes
Total time:
	user time   =      77.12 seconds =       1.29 minutes
	system time =       1.68 seconds =       0.03 minutes
	total time  =         79 seconds =       1.32 minutes

  //>>>>>>>>>>>>>>>>>>>>>>>>>>>>>>>>>>>//
  //            Monomer B HF           //
  //<<<<<<<<<<<<<<<<<<<<<<<<<<<<<<<<<<<//


*** tstart() called on r282
*** at Sat Sep 11 02:06:37 2021

   => Loading Basis Set <=

    Name: JUN-CC-PVTZ
    Role: ORBITAL
    Keyword: BASIS
    atoms 1-2, 7, 13-14    entry C          line   217 file /home/r08543048/miniconda3/share/psi4/basis/jun-cc-pvtz.gbs 
    atoms 3                entry O          line   305 file /home/r08543048/miniconda3/share/psi4/basis/jun-cc-pvtz.gbs 
    atoms 4                entry N          line   261 file /home/r08543048/miniconda3/share/psi4/basis/jun-cc-pvtz.gbs 
    atoms 5-6, 8-12, 15-20 entry H          line    36 file /home/r08543048/miniconda3/share/psi4/basis/jun-cc-pvtz.gbs 


         ---------------------------------------------------------
                                   SCF
               by Justin Turney, Rob Parrish, Andy Simmonett
                          and Daniel G. A. Smith
                              RHF Reference
                        1 Threads,  20980 MiB Core
         ---------------------------------------------------------

  ==> Geometry <==

    Molecular point group: c1
    Full point group: C1

    Geometry (in Angstrom), charge = 0, multiplicity = 1:

       Center              X                  Y                   Z               Mass       
    ------------   -----------------  -----------------  -----------------  -----------------
      Gh(C)           1.305809765060     0.773816144067    -0.655045521300    12.000000000000
      Gh(C)           1.067529765060    -0.466692855933     0.183240478700    12.000000000000
      Gh(O)           0.622878765060    -0.432930855933     1.321911478700    15.994914619570
      Gh(N)           1.369584765060    -1.644738855933    -0.440559521300    14.003074004430
      Gh(H)           1.341889765060    -2.487657855933     0.107235478700     1.007825032230
      Gh(H)           1.853859765060    -1.656465855933    -1.319323521300     1.007825032230
      Gh(C)           0.812015765060     2.034505144067     0.032774478700    12.000000000000
      Gh(H)           1.309490765060     2.167860144067     0.990714478700     1.007825032230
      Gh(H)           1.006054765060     2.907747144067    -0.588115521300     1.007825032230
      Gh(H)          -0.257350234940     1.974029144067     0.224957478700     1.007825032230
      Gh(H)           2.378160765060     0.838199144067    -0.857996521300     1.007825032230
      Gh(H)           0.814861765060     0.633282144067    -1.620613521300     1.007825032230
         C           -2.759663234940    -0.002364855933     0.500828478700    12.000000000000
         C           -2.291209234940    -0.167018855933    -0.940672521300    12.000000000000
         H           -3.446038234940     0.838501144067     0.597316478700     1.007825032230
         H           -1.915083234940     0.164720144067     1.167694478700     1.007825032230
         H           -3.280442234940    -0.895190855933     0.845295478700     1.007825032230
         H           -1.794296234940     0.735042144067    -1.298984521300     1.007825032230
         H           -3.127152234940    -0.367329855933    -1.610739521300     1.007825032230
         H           -1.586590234940    -0.993777855933    -1.031237521300     1.007825032230

  Running in c1 symmetry.

  Rotational constants: A =      0.08629  B =      0.04820  C =      0.04044 [cm^-1]
  Rotational constants: A =   2587.04063  B =   1444.91108  C =   1212.48716 [MHz]
  Nuclear repulsion =   42.332491450453531

  Charge       = 0
  Multiplicity = 1
  Electrons    = 18
  Nalpha       = 9
  Nbeta        = 9

  ==> Algorithm <==

  SCF Algorithm Type is DF.
  DIIS enabled.
  MOM disabled.
  Fractional occupation disabled.
  Guess Type is SAD.
  Energy threshold   = 1.00e-08
  Density threshold  = 1.00e-08
  Integral threshold = 0.00e+00

  ==> Primary Basis <==

  Basis Set: JUN-CC-PVTZ
    Blend: JUN-CC-PVTZ
    Number of shells: 169
    Number of basis function: 455
    Number of Cartesian functions: 510
    Spherical Harmonics?: true
    Max angular momentum: 3

   => Loading Basis Set <=

    Name: (JUN-CC-PVTZ AUX)
    Role: JKFIT
    Keyword: DF_BASIS_SCF
    atoms 1-2, 7, 13-14    entry C          line   152 file /home/r08543048/miniconda3/share/psi4/basis/jun-cc-pvtz-jkfit.gbs 
    atoms 3                entry O          line   272 file /home/r08543048/miniconda3/share/psi4/basis/jun-cc-pvtz-jkfit.gbs 
    atoms 4                entry N          line   212 file /home/r08543048/miniconda3/share/psi4/basis/jun-cc-pvtz-jkfit.gbs 
    atoms 5-6, 8-12, 15-20 entry H          line    70 file /home/r08543048/miniconda3/share/psi4/basis/jun-cc-pvtz-jkfit.gbs 

  ==> Pre-Iterations <==

   -------------------------------------------------------
    Irrep   Nso     Nmo     Nalpha   Nbeta   Ndocc  Nsocc
   -------------------------------------------------------
     A        455     455       0       0       0       0
   -------------------------------------------------------
    Total     455     455       9       9       9       0
   -------------------------------------------------------

  ==> Integral Setup <==

  ==> DiskDFJK: Density-Fitted J/K Matrices <==

    J tasked:                  Yes
    K tasked:                  Yes
    wK tasked:                  No
    OpenMP threads:              1
    Integrals threads:           1
    Memory [MiB]:            15735
    Algorithm:                Core
    Integral Cache:           LOAD
    Schwarz Cutoff:          1E-12
    Fitting Condition:       1E-10

   => Auxiliary Basis Set <=

  Basis Set: (JUN-CC-PVTZ AUX)
    Blend: JUN-CC-PVTZ-JKFIT
    Number of shells: 333
    Number of basis function: 1055
    Number of Cartesian functions: 1267
    Spherical Harmonics?: true
    Max angular momentum: 4

  Minimum eigenvalue in the overlap matrix is 2.9013233687E-05.
  Using Symmetric Orthogonalization.

  SCF Guess: Superposition of Atomic Densities via on-the-fly atomic UHF.

  ==> Iterations <==

                           Total Energy        Delta E     RMS |[F,P]|

   @DF-RHF iter SAD:   -78.65905882713986   -7.86591e+01   0.00000e+00 
   @DF-RHF iter   1:   -79.14813699103097   -4.89078e-01   9.54062e-04 DIIS
   @DF-RHF iter   2:   -79.23890721450174   -9.07702e-02   4.35540e-04 DIIS
   @DF-RHF iter   3:   -79.25881711462500   -1.99099e-02   7.12627e-05 DIIS
   @DF-RHF iter   4:   -79.26008243846448   -1.26532e-03   9.88255e-06 DIIS
   @DF-RHF iter   5:   -79.26011027876802   -2.78403e-05   1.77058e-06 DIIS
   @DF-RHF iter   6:   -79.26011112288450   -8.44116e-07   2.14294e-07 DIIS
   @DF-RHF iter   7:   -79.26011113588395   -1.29995e-08   2.96684e-08 DIIS
   @DF-RHF iter   8:   -79.26011113604069   -1.56746e-10   9.94281e-09 DIIS
  Energy and wave function converged.


  ==> Post-Iterations <==

    Orbital Energies [Eh]
    ---------------------

    Doubly Occupied:                                                      

       1A    -11.210616     2A    -11.210003     3A     -1.018378  
       4A     -0.841280     5A     -0.597842     6A     -0.596507  
       7A     -0.509202     8A     -0.487370     9A     -0.485915  

    Virtual:                                                              

      10A      0.031525    11A      0.048350    12A      0.049404  
      13A      0.058725    14A      0.070298    15A      0.079868  
      16A      0.086296    17A      0.087898    18A      0.090672  
      19A      0.104213    20A      0.115218    21A      0.116897  
      22A      0.121098    23A      0.122430    24A      0.133509  
      25A      0.138300    26A      0.146130    27A      0.149589  
      28A      0.160449    29A      0.168348    30A      0.186725  
      31A      0.197385    32A      0.201187    33A      0.209096  
      34A      0.211781    35A      0.224362    36A      0.229140  
      37A      0.248210    38A      0.264957    39A      0.279650  
      40A      0.280305    41A      0.290049    42A      0.295668  
      43A      0.302559    44A      0.308966    45A      0.319524  
      46A      0.322562    47A      0.329981    48A      0.336316  
      49A      0.341673    50A      0.347691    51A      0.354190  
      52A      0.359367    53A      0.361433    54A      0.372423  
      55A      0.373524    56A      0.381031    57A      0.385397  
      58A      0.395494    59A      0.404331    60A      0.417441  
      61A      0.424743    62A      0.432869    63A      0.441960  
      64A      0.449830    65A      0.461061    66A      0.476567  
      67A      0.481438    68A      0.491743    69A      0.499480  
      70A      0.508779    71A      0.514006    72A      0.526112  
      73A      0.529224    74A      0.541789    75A      0.551811  
      76A      0.563347    77A      0.574482    78A      0.582007  
      79A      0.596609    80A      0.603323    81A      0.618400  
      82A      0.644156    83A      0.646933    84A      0.648919  
      85A      0.665764    86A      0.670492    87A      0.680611  
      88A      0.689702    89A      0.701865    90A      0.716372  
      91A      0.724435    92A      0.744125    93A      0.749250  
      94A      0.755871    95A      0.768245    96A      0.787409  
      97A      0.792423    98A      0.799778    99A      0.802773  
     100A      0.813019   101A      0.824967   102A      0.829752  
     103A      0.834768   104A      0.845479   105A      0.873472  
     106A      0.886153   107A      0.890299   108A      0.916322  
     109A      0.923577   110A      0.937111   111A      0.949669  
     112A      0.955935   113A      0.965744   114A      0.977757  
     115A      0.996743   116A      1.003379   117A      1.028255  
     118A      1.040404   119A      1.062358   120A      1.084009  
     121A      1.103942   122A      1.108320   123A      1.113162  
     124A      1.130502   125A      1.150680   126A      1.167934  
     127A      1.184593   128A      1.192961   129A      1.210723  
     130A      1.224852   131A      1.239816   132A      1.253186  
     133A      1.263981   134A      1.278720   135A      1.289599  
     136A      1.304224   137A      1.325611   138A      1.336250  
     139A      1.339269   140A      1.347671   141A      1.359200  
     142A      1.366929   143A      1.374704   144A      1.383411  
     145A      1.391286   146A      1.394406   147A      1.404224  
     148A      1.416059   149A      1.419054   150A      1.438039  
     151A      1.455139   152A      1.475645   153A      1.482723  
     154A      1.498304   155A      1.506923   156A      1.513882  
     157A      1.532597   158A      1.548473   159A      1.554070  
     160A      1.559252   161A      1.568346   162A      1.585185  
     163A      1.597767   164A      1.611810   165A      1.628010  
     166A      1.631596   167A      1.645026   168A      1.653231  
     169A      1.660038   170A      1.679946   171A      1.688610  
     172A      1.699453   173A      1.708548   174A      1.711470  
     175A      1.730583   176A      1.754169   177A      1.764512  
     178A      1.797396   179A      1.807591   180A      1.821082  
     181A      1.832735   182A      1.861887   183A      1.873320  
     184A      1.900567   185A      1.917331   186A      1.925599  
     187A      1.931454   188A      1.957750   189A      1.994284  
     190A      2.006340   191A      2.038579   192A      2.058972  
     193A      2.097067   194A      2.149424   195A      2.159277  
     196A      2.178686   197A      2.212856   198A      2.273002  
     199A      2.295911   200A      2.353084   201A      2.400634  
     202A      2.419492   203A      2.438457   204A      2.477762  
     205A      2.523110   206A      2.545005   207A      2.572792  
     208A      2.643085   209A      2.689478   210A      2.718363  
     211A      2.742766   212A      2.760957   213A      2.779698  
     214A      2.804338   215A      2.815666   216A      2.831000  
     217A      2.844478   218A      2.847331   219A      2.888210  
     220A      2.903319   221A      2.912037   222A      3.007118  
     223A      3.021192   224A      3.050288   225A      3.087186  
     226A      3.098779   227A      3.112708   228A      3.129603  
     229A      3.146535   230A      3.199684   231A      3.212959  
     232A      3.235139   233A      3.253663   234A      3.285413  
     235A      3.327251   236A      3.344612   237A      3.352713  
     238A      3.381227   239A      3.441916   240A      3.444825  
     241A      3.456922   242A      3.491237   243A      3.505000  
     244A      3.519045   245A      3.536680   246A      3.545245  
     247A      3.556234   248A      3.586773   249A      3.598428  
     250A      3.609226   251A      3.615487   252A      3.619594  
     253A      3.642762   254A      3.673482   255A      3.694531  
     256A      3.709678   257A      3.736723   258A      3.743320  
     259A      3.761309   260A      3.805785   261A      3.814054  
     262A      3.829077   263A      3.837499   264A      3.839973  
     265A      3.852057   266A      3.874067   267A      3.879768  
     268A      3.886088   269A      3.895957   270A      3.909186  
     271A      3.917911   272A      3.936932   273A      3.951735  
     274A      3.968458   275A      3.983038   276A      4.009965  
     277A      4.027708   278A      4.039224   279A      4.057298  
     280A      4.106343   281A      4.144121   282A      4.176547  
     283A      4.180478   284A      4.197529   285A      4.201690  
     286A      4.206408   287A      4.219306   288A      4.248874  
     289A      4.254791   290A      4.259145   291A      4.271744  
     292A      4.289780   293A      4.311666   294A      4.331706  
     295A      4.348660   296A      4.384877   297A      4.400883  
     298A      4.405434   299A      4.436605   300A      4.451875  
     301A      4.460691   302A      4.466862   303A      4.488529  
     304A      4.494544   305A      4.500022   306A      4.507467  
     307A      4.526959   308A      4.537745   309A      4.559008  
     310A      4.564301   311A      4.601907   312A      4.616035  
     313A      4.618947   314A      4.643537   315A      4.652426  
     316A      4.671564   317A      4.683981   318A      4.698467  
     319A      4.705742   320A      4.710903   321A      4.728792  
     322A      4.739085   323A      4.757101   324A      4.761959  
     325A      4.789571   326A      4.795623   327A      4.800401  
     328A      4.816830   329A      4.820290   330A      4.838082  
     331A      4.839800   332A      4.848211   333A      4.864690  
     334A      4.876413   335A      4.881416   336A      4.895206  
     337A      4.907318   338A      4.910866   339A      4.934762  
     340A      4.949438   341A      4.952981   342A      4.967913  
     343A      4.989146   344A      4.997365   345A      5.007157  
     346A      5.020614   347A      5.047426   348A      5.075114  
     349A      5.112058   350A      5.134408   351A      5.139774  
     352A      5.188686   353A      5.189822   354A      5.208986  
     355A      5.223288   356A      5.240477   357A      5.274152  
     358A      5.288428   359A      5.296916   360A      5.298925  
     361A      5.316594   362A      5.333196   363A      5.343901  
     364A      5.354003   365A      5.381990   366A      5.395466  
     367A      5.494025   368A      5.578037   369A      5.605354  
     370A      5.675138   371A      5.694208   372A      5.715255  
     373A      5.727363   374A      5.749406   375A      5.760356  
     376A      5.768957   377A      5.771835   378A      5.781947  
     379A      5.790116   380A      5.813379   381A      5.838037  
     382A      5.873870   383A      5.915938   384A      5.931912  
     385A      5.934772   386A      5.979309   387A      6.007191  
     388A      6.109405   389A      6.135546   390A      6.196884  
     391A      6.276520   392A      6.295556   393A      6.329715  
     394A      6.384729   395A      6.407034   396A      6.436360  
     397A      6.456943   398A      6.462839   399A      6.481652  
     400A      6.496201   401A      6.516379   402A      6.525815  
     403A      6.533847   404A      6.575319   405A      6.596047  
     406A      6.620415   407A      6.707322   408A      6.779108  
     409A      6.876234   410A      6.971955   411A      7.009202  
     412A      7.092374   413A      7.277640   414A      7.313357  
     415A      7.403803   416A      7.445494   417A      7.521193  
     418A      7.555366   419A      7.633560   420A      7.684296  
     421A      7.713515   422A      7.806562   423A      7.817149  
     424A      7.884008   425A      7.925756   426A      7.999139  
     427A      8.018877   428A      8.268121   429A      8.402814  
     430A      8.413560   431A      8.807691   432A      9.091938  
     433A      9.141732   434A      9.209763   435A      9.547584  
     436A      9.695230   437A      9.849333   438A      9.910976  
     439A      9.942728   440A      9.994991   441A     10.104320  
     442A     10.486607   443A     10.947227   444A     11.393839  
     445A     11.539826   446A     11.722288   447A     12.053883  
     448A     13.860875   449A     14.263874   450A     14.688336  
     451A     42.668171   452A     45.190924   453A     45.950894  
     454A     54.530851   455A     61.308295  

    Final Occupation by Irrep:
              A 
    DOCC [     9 ]

  @DF-RHF Final Energy:   -79.26011113604069

   => Energetics <=

    Nuclear Repulsion Energy =             42.3324914504535315
    One-Electron Energy =                -189.2709833331482514
    Two-Electron Energy =                  67.6783807466540424
    Total Energy =                        -79.2601111360406918

Computation Completed


Properties will be evaluated at   0.000000,   0.000000,   0.000000 [a0]

Properties computed using the SCF density matrix

  Nuclear Dipole Moment: [e a0]
     X:   -85.8972      Y:    -2.8995      Z:    -7.5017

  Electronic Dipole Moment: [e a0]
     X:    85.8966      Y:     2.8985      Z:     7.5020

  Dipole Moment: [e a0]
     X:    -0.0006      Y:    -0.0010      Z:     0.0003     Total:     0.0012

  Dipole Moment: [D]
     X:    -0.0014      Y:    -0.0026      Z:     0.0008     Total:     0.0031


*** tstop() called on r282 at Sat Sep 11 02:06:56 2021
Module time:
	user time   =      18.86 seconds =       0.31 minutes
	system time =       0.43 seconds =       0.01 minutes
	total time  =         19 seconds =       0.32 minutes
Total time:
	user time   =      95.98 seconds =       1.60 minutes
	system time =       2.11 seconds =       0.04 minutes
	total time  =         98 seconds =       1.63 minutes
  Constructing Basis Sets for SAPT...

   => Loading Basis Set <=

    Name: (JUN-CC-PVTZ AUX)
    Role: RIFIT
    Keyword: DF_BASIS_SAPT
    atoms 1-2, 7, 13-14    entry C          line   132 file /home/r08543048/miniconda3/share/psi4/basis/jun-cc-pvtz-ri.gbs 
    atoms 3                entry O          line   244 file /home/r08543048/miniconda3/share/psi4/basis/jun-cc-pvtz-ri.gbs 
    atoms 4                entry N          line   188 file /home/r08543048/miniconda3/share/psi4/basis/jun-cc-pvtz-ri.gbs 
    atoms 5-6, 8-12, 15-20 entry H          line    30 file /home/r08543048/miniconda3/share/psi4/basis/jun-cc-pvtz-ri.gbs 


  //>>>>>>>>>>>>>>>>>>>>>>>>>>>>>>>>>>>//
  //               SAPT0               //
  //<<<<<<<<<<<<<<<<<<<<<<<<<<<<<<<<<<<//


*** tstart() called on r282
*** at Sat Sep 11 02:06:56 2021

        SAPT0  
    Ed Hohenstein
     6 June 2009

      Orbital Information
  --------------------------
    NSO        =       455
    NMO        =       455
    NRI        =      1069
    NOCC A     =        20
    NOCC B     =         9
    FOCC A     =         0
    FOCC B     =         0
    NVIR A     =       435
    NVIR B     =       446

    Elst10,r            =    -0.002481456808 [Eh]
    Exch10              =     0.005673595408 [Eh]
    Exch10 (S^2)        =     0.005666147744 [Eh]

    Iter     Energy [mEh]          dE [mEh]         Residual      Time [s]
       1      -0.31691170       0.316911697       2.338040443             1
       2      -0.38453816       0.067626463       0.516943872             2
       3      -0.38522411       0.000685949       0.183167673             2
       4      -0.38413896      -0.001085153       0.068262955             3
       5      -0.38400107      -0.000137883       0.019348750             4
       6      -0.38410656       0.000105489       0.006550476             5
       7      -0.38410557      -0.000000996       0.003003166             5
       8      -0.38409565      -0.000009918       0.001001861             6
       9      -0.38409625       0.000000603       0.000356476             7
      10      -0.38409735       0.000001104       0.000126404             8
      11      -0.38409713      -0.000000221       0.000044186             9
      12      -0.38409706      -0.000000073       0.000015733             9
      13      -0.38409709       0.000000031       0.000005064            10
      14      -0.38409710       0.000000005       0.000001480            11
      15      -0.38409709      -0.000000003       0.000000398            12

    CHF Iterations converged


    Iter     Energy [mEh]          dE [mEh]         Residual      Time [s]
       1      -0.94573062       0.945730617       4.618253693             0
       2      -1.14875884       0.203028220       1.270975610             1
       3      -1.15656790       0.007809062       0.328055817             2
       4      -1.15201291      -0.004554985       0.088351481             2
       5      -1.15163071      -0.000382207       0.017363384             3
       6      -1.15186010       0.000229394       0.003088087             4
       7      -1.15184601      -0.000014092       0.000807616             4
       8      -1.15184302      -0.000002983       0.000212314             5
       9      -1.15184364       0.000000618       0.000039778             6
      10      -1.15184374       0.000000094       0.000006635             6
      11      -1.15184370      -0.000000036       0.000001111             7
      12      -1.15184370       0.000000002       0.000000191             8

    CHF Iterations converged

    Ind20,r (A<-B)      =    -0.000384097094 [Eh]
    Ind20,r (B<-A)      =    -0.001151843703 [Eh]
    Ind20,r             =    -0.001535940797 [Eh]
    Exch-Ind20,r (A<-B) =     0.000320772279 [Eh]
    Exch-Ind20,r (B<-A) =     0.000648152971 [Eh]
    Exch-Ind20,r        =     0.000968925250 [Eh]
    Disp20              =    -0.007031034278 [Eh]
    Disp20 (SS)         =    -0.003515517139 [Eh]
    Disp20 (OS)         =    -0.003515517139 [Eh]
    Exch-Disp20         =     0.000619632613 [Eh]
    Exch-Disp20 (SS)    =     0.000402965487 [Eh]
    Exch-Disp20 (OS)    =     0.000216667126 [Eh]

    SAPT Results 
  --------------------------------------------------------------------------------------------------------
    Electrostatics                 -2.48145681 [mEh]      -1.55713766 [kcal/mol]      -6.51506395 [kJ/mol]
      Elst10,r                     -2.48145681 [mEh]      -1.55713766 [kcal/mol]      -6.51506395 [kJ/mol]

    Exchange                        5.67359541 [mEh]       3.56023487 [kcal/mol]      14.89602269 [kJ/mol]
      Exch10                        5.67359541 [mEh]       3.56023487 [kcal/mol]      14.89602269 [kJ/mol]
      Exch10(S^2)                   5.66614774 [mEh]       3.55556139 [kcal/mol]      14.87646885 [kJ/mol]

    Induction                      -0.94623556 [mEh]      -0.59377178 [kcal/mol]      -2.48434113 [kJ/mol]
      Ind20,r                      -1.53594080 [mEh]      -0.96381740 [kcal/mol]      -4.03261201 [kJ/mol]
      Exch-Ind20,r                  0.96892525 [mEh]       0.60800977 [kcal/mol]       2.54391289 [kJ/mol]
      delta HF,r (2)               -0.37922002 [mEh]      -0.23796415 [kcal/mol]      -0.99564202 [kJ/mol]

    Dispersion                     -6.41140166 [mEh]      -4.02321528 [kcal/mol]     -16.83313275 [kJ/mol]
      Disp20                       -7.03103428 [mEh]      -4.41204062 [kcal/mol]     -18.45997795 [kJ/mol]
      Exch-Disp20                   0.61963261 [mEh]       0.38882533 [kcal/mol]       1.62684520 [kJ/mol]
      Disp20 (SS)                  -3.51551714 [mEh]      -2.20602031 [kcal/mol]      -9.22998898 [kJ/mol]
      Disp20 (OS)                  -3.51551714 [mEh]      -2.20602031 [kcal/mol]      -9.22998898 [kJ/mol]
      Exch-Disp20 (SS)              0.40296549 [mEh]       0.25286466 [kcal/mol]       1.05798574 [kJ/mol]
      Exch-Disp20 (OS)              0.21666713 [mEh]       0.13596067 [kcal/mol]       0.56885946 [kJ/mol]

  Total HF                          2.24590304 [mEh]       1.40932543 [kcal/mol]       5.89661761 [kJ/mol]
  Total SAPT0                      -4.16549863 [mEh]      -2.61388985 [kcal/mol]     -10.93651514 [kJ/mol]

  Special recipe for scaled SAPT0 (see Manual):
    Electrostatics sSAPT0          -2.48145681 [mEh]      -1.55713766 [kcal/mol]      -6.51506395 [kJ/mol]
    Exchange sSAPT0                 5.67359541 [mEh]       3.56023487 [kcal/mol]      14.89602269 [kJ/mol]
    Induction sSAPT0               -0.94240983 [mEh]      -0.59137110 [kcal/mol]      -2.47429668 [kJ/mol]
    Dispersion sSAPT0              -6.40895509 [mEh]      -4.02168004 [kcal/mol]     -16.82670927 [kJ/mol]
  Total sSAPT0                     -4.15922632 [mEh]      -2.60995392 [kcal/mol]     -10.92004721 [kJ/mol]
  --------------------------------------------------------------------------------------------------------

*** tstop() called on r282 at Sat Sep 11 02:08:21 2021
Module time:
	user time   =      71.72 seconds =       1.20 minutes
	system time =      13.24 seconds =       0.22 minutes
	total time  =         85 seconds =       1.42 minutes
Total time:
	user time   =     167.83 seconds =       2.80 minutes
	system time =      15.35 seconds =       0.26 minutes
	total time  =        183 seconds =       3.05 minutes

    Psi4 stopped on: Saturday, 11 September 2021 02:08AM
    Psi4 wall time for execution: 0:03:03.43

*** Psi4 exiting successfully. Buy a developer a beer!
