
    -----------------------------------------------------------------------
          Psi4: An Open-Source Ab Initio Electronic Structure Package
                               Psi4 1.3.2 release

                         Git: Rev {HEAD} ecbda83 


    R. M. Parrish, L. A. Burns, D. G. A. Smith, A. C. Simmonett,
    A. E. DePrince III, E. G. Hohenstein, U. Bozkaya, A. Yu. Sokolov,
    R. Di Remigio, R. M. Richard, J. F. Gonthier, A. M. James,
    H. R. McAlexander, A. Kumar, M. Saitow, X. Wang, B. P. Pritchard,
    P. Verma, H. F. Schaefer III, K. Patkowski, R. A. King, E. F. Valeev,
    F. A. Evangelista, J. M. Turney, T. D. Crawford, and C. D. Sherrill,
    J. Chem. Theory Comput. 13(7) pp 3185--3197 (2017).
    (doi: 10.1021/acs.jctc.7b00174)


                         Additional Contributions by
    P. Kraus, H. Kruse, M. H. Lechner, M. C. Schieber, R. A. Shaw,
    A. Alenaizan, R. Galvelis, Z. L. Glick, S. Lehtola, and J. P. Misiewicz

    -----------------------------------------------------------------------


    Psi4 started on: Saturday, 11 September 2021 02:02AM

    Process ID: 57489
    Host:       r282
    PSIDATADIR: /home/r08543048/miniconda3/share/psi4
    Memory:     500.0 MiB
    Threads:    1
    
  ==> Input File <==

--------------------------------------------------------------------------
# Any line starting with the # character is a comment line
#! Sample  computation

memory 22 gb

molecule Dimer {
0 1
 C 1.204835    1.268779   -0.667945
 C 1.246612    0.052679    0.225140
 O 0.797182    0.058146    1.362527
 N 1.812984   -1.060126   -0.324735
 H 1.876852    1.195256   -1.520323
 H 0.184360    1.392938   -1.029936
 H 1.458134    2.143114   -0.074808
 H 1.771370   -1.918496    0.197577
 H 2.095756   -1.087254   -1.286130
 
 
 




    
    
 --
0 1
 C   -2.101739   -0.829575   -0.414623
 C   -2.472438    0.531399    0.163019
 H   -2.934130   -1.268369   -0.964403
 H   -1.815958   -1.521546    0.376369
 H   -1.258461   -0.754185   -1.101722
 H   -3.336617    0.452578    0.821686
 H   -2.724504    1.241255   -0.625128
 H   -1.648762    0.940730    0.746199
   
   
   
   
   
   





units angstrom

no_reorient
symmetry c1
}

set globals{
  basis jun-cc-pvtz
}

energy('sapt0')


--------------------------------------------------------------------------

  Memory set to  20.489 GiB by Python driver.

  //>>>>>>>>>>>>>>>>>>>>>>>>>>>>>>>>>>>//
  //              Dimer HF             //
  //<<<<<<<<<<<<<<<<<<<<<<<<<<<<<<<<<<<//


*** tstart() called on r282
*** at Sat Sep 11 02:02:49 2021

   => Loading Basis Set <=

    Name: JUN-CC-PVTZ
    Role: ORBITAL
    Keyword: BASIS
    atoms 1-2, 10-11 entry C          line   217 file /home/r08543048/miniconda3/share/psi4/basis/jun-cc-pvtz.gbs 
    atoms 3          entry O          line   305 file /home/r08543048/miniconda3/share/psi4/basis/jun-cc-pvtz.gbs 
    atoms 4          entry N          line   261 file /home/r08543048/miniconda3/share/psi4/basis/jun-cc-pvtz.gbs 
    atoms 5-9, 12-17 entry H          line    36 file /home/r08543048/miniconda3/share/psi4/basis/jun-cc-pvtz.gbs 


         ---------------------------------------------------------
                                   SCF
               by Justin Turney, Rob Parrish, Andy Simmonett
                          and Daniel G. A. Smith
                              RHF Reference
                        1 Threads,  20980 MiB Core
         ---------------------------------------------------------

  ==> Geometry <==

    Molecular point group: c1
    Full point group: C1

    Geometry (in Angstrom), charge = 0, multiplicity = 1:

       Center              X                  Y                   Z               Mass       
    ------------   -----------------  -----------------  -----------------  -----------------
         C            1.134295567071     1.277907368191    -0.717536173890    12.000000000000
         C            1.176072567071     0.061807368191     0.175548826110    12.000000000000
         O            0.726642567071     0.067274368191     1.312935826110    15.994914619570
         N            1.742444567071    -1.050997631809    -0.374326173890    14.003074004430
         H            1.806312567071     1.204384368191    -1.569914173890     1.007825032230
         H            0.113820567071     1.402066368191    -1.079527173890     1.007825032230
         H            1.387594567071     2.152242368191    -0.124399173890     1.007825032230
         H            1.700830567071    -1.909367631809     0.147985826110     1.007825032230
         H            2.025216567071    -1.078125631809    -1.335721173890     1.007825032230
         C           -2.172278432929    -0.820446631809    -0.464214173890    12.000000000000
         C           -2.542977432929     0.540527368191     0.113427826110    12.000000000000
         H           -3.004669432929    -1.259240631809    -1.013994173890     1.007825032230
         H           -1.886497432929    -1.512417631809     0.326777826110     1.007825032230
         H           -1.329000432929    -0.745056631809    -1.151313173890     1.007825032230
         H           -3.407156432929     0.461706368191     0.772094826110     1.007825032230
         H           -2.795043432929     1.250383368191    -0.674719173890     1.007825032230
         H           -1.719301432929     0.949858368191     0.696607826110     1.007825032230

  Running in c1 symmetry.

  Rotational constants: A =      0.14639  B =      0.05354  C =      0.05055 [cm^-1]
  Rotational constants: A =   4388.55765  B =   1605.10316  C =   1515.32846 [MHz]
  Nuclear repulsion =  243.107097586180117

  Charge       = 0
  Multiplicity = 1
  Electrons    = 50
  Nalpha       = 25
  Nbeta        = 25

  ==> Algorithm <==

  SCF Algorithm Type is DF.
  DIIS enabled.
  MOM disabled.
  Fractional occupation disabled.
  Guess Type is SAD.
  Energy threshold   = 1.00e-08
  Density threshold  = 1.00e-08
  Integral threshold = 0.00e+00

  ==> Primary Basis <==

  Basis Set: JUN-CC-PVTZ
    Blend: JUN-CC-PVTZ
    Number of shells: 144
    Number of basis function: 388
    Number of Cartesian functions: 435
    Spherical Harmonics?: true
    Max angular momentum: 3

   => Loading Basis Set <=

    Name: (JUN-CC-PVTZ AUX)
    Role: JKFIT
    Keyword: DF_BASIS_SCF
    atoms 1-2, 10-11 entry C          line   152 file /home/r08543048/miniconda3/share/psi4/basis/jun-cc-pvtz-jkfit.gbs 
    atoms 3          entry O          line   272 file /home/r08543048/miniconda3/share/psi4/basis/jun-cc-pvtz-jkfit.gbs 
    atoms 4          entry N          line   212 file /home/r08543048/miniconda3/share/psi4/basis/jun-cc-pvtz-jkfit.gbs 
    atoms 5-9, 12-17 entry H          line    70 file /home/r08543048/miniconda3/share/psi4/basis/jun-cc-pvtz-jkfit.gbs 

  ==> Pre-Iterations <==

   -------------------------------------------------------
    Irrep   Nso     Nmo     Nalpha   Nbeta   Ndocc  Nsocc
   -------------------------------------------------------
     A        388     388       0       0       0       0
   -------------------------------------------------------
    Total     388     388      25      25      25       0
   -------------------------------------------------------

  ==> Integral Setup <==

  ==> DiskDFJK: Density-Fitted J/K Matrices <==

    J tasked:                  Yes
    K tasked:                  Yes
    wK tasked:                  No
    OpenMP threads:              1
    Integrals threads:           1
    Memory [MiB]:            15735
    Algorithm:                Core
    Integral Cache:           SAVE
    Schwarz Cutoff:          1E-12
    Fitting Condition:       1E-10

   => Auxiliary Basis Set <=

  Basis Set: (JUN-CC-PVTZ AUX)
    Blend: JUN-CC-PVTZ-JKFIT
    Number of shells: 284
    Number of basis function: 900
    Number of Cartesian functions: 1081
    Spherical Harmonics?: true
    Max angular momentum: 4

  Minimum eigenvalue in the overlap matrix is 4.0395951984E-05.
  Using Symmetric Orthogonalization.

  SCF Guess: Superposition of Atomic Densities via on-the-fly atomic UHF.

  ==> Iterations <==

                           Total Energy        Delta E     RMS |[F,P]|

   @DF-RHF iter SAD:  -286.01273761670910   -2.86013e+02   0.00000e+00 
   @DF-RHF iter   1:  -287.03712754865120   -1.02439e+00   1.90373e-03 DIIS
   @DF-RHF iter   2:  -287.25486244619009   -2.17735e-01   1.04342e-03 DIIS
   @DF-RHF iter   3:  -287.31572615715794   -6.08637e-02   2.09305e-04 DIIS
   @DF-RHF iter   4:  -287.31950501800952   -3.77886e-03   9.43503e-05 DIIS
   @DF-RHF iter   5:  -287.32031390827302   -8.08890e-04   1.50169e-05 DIIS
   @DF-RHF iter   6:  -287.32035420414309   -4.02959e-05   6.27976e-06 DIIS
   @DF-RHF iter   7:  -287.32035981259958   -5.60846e-06   2.41261e-06 DIIS
   @DF-RHF iter   8:  -287.32036108769586   -1.27510e-06   9.17907e-07 DIIS
   @DF-RHF iter   9:  -287.32036129162213   -2.03926e-07   2.67211e-07 DIIS
   @DF-RHF iter  10:  -287.32036130569060   -1.40685e-08   7.59952e-08 DIIS
   @DF-RHF iter  11:  -287.32036130685356   -1.16296e-09   1.96332e-08 DIIS
   @DF-RHF iter  12:  -287.32036130692109   -6.75300e-11   4.87287e-09 DIIS
  Energy and wave function converged.


  ==> Post-Iterations <==

    Orbital Energies [Eh]
    ---------------------

    Doubly Occupied:                                                      

       1A    -20.517485     2A    -15.588091     3A    -11.355396  
       4A    -11.238595     5A    -11.204381     6A    -11.199648  
       7A     -1.378205     8A     -1.214162     9A     -1.011894  
      10A     -1.007125    11A     -0.834036    12A     -0.801240  
      13A     -0.728531    14A     -0.665982    15A     -0.623526  
      16A     -0.591864    17A     -0.586925    18A     -0.582170  
      19A     -0.563802    20A     -0.525571    21A     -0.501566  
      22A     -0.479624    23A     -0.479308    24A     -0.425949  
      25A     -0.416147  

    Virtual:                                                              

      26A      0.041816    27A      0.053107    28A      0.065158  
      29A      0.068218    30A      0.079865    31A      0.090124  
      32A      0.090985    33A      0.098232    34A      0.103073  
      35A      0.119546    36A      0.123082    37A      0.128788  
      38A      0.133779    39A      0.143973    40A      0.157634  
      41A      0.169858    42A      0.179536    43A      0.191820  
      44A      0.199587    45A      0.210737    46A      0.236367  
      47A      0.247194    48A      0.251815    49A      0.259964  
      50A      0.264112    51A      0.272794    52A      0.286823  
      53A      0.291952    54A      0.297931    55A      0.303618  
      56A      0.308028    57A      0.310721    58A      0.319363  
      59A      0.330784    60A      0.334814    61A      0.345661  
      62A      0.352139    63A      0.358480    64A      0.363257  
      65A      0.367212    66A      0.376204    67A      0.385500  
      68A      0.399044    69A      0.404152    70A      0.412751  
      71A      0.420257    72A      0.432236    73A      0.442502  
      74A      0.462250    75A      0.484560    76A      0.497171  
      77A      0.504250    78A      0.511937    79A      0.525738  
      80A      0.531846    81A      0.547566    82A      0.551458  
      83A      0.557329    84A      0.575728    85A      0.588642  
      86A      0.602322    87A      0.614999    88A      0.631880  
      89A      0.640993    90A      0.652733    91A      0.662202  
      92A      0.677952    93A      0.686568    94A      0.710768  
      95A      0.715086    96A      0.725548    97A      0.742408  
      98A      0.758291    99A      0.761115   100A      0.771149  
     101A      0.780011   102A      0.780876   103A      0.804242  
     104A      0.807628   105A      0.821859   106A      0.824636  
     107A      0.837892   108A      0.852721   109A      0.865992  
     110A      0.876880   111A      0.881603   112A      0.891168  
     113A      0.910068   114A      0.919716   115A      0.939158  
     116A      0.957367   117A      0.967349   118A      0.974830  
     119A      0.986691   120A      1.000184   121A      1.013425  
     122A      1.025109   123A      1.038391   124A      1.061043  
     125A      1.081075   126A      1.100556   127A      1.104778  
     128A      1.121116   129A      1.147851   130A      1.153223  
     131A      1.205332   132A      1.211660   133A      1.227037  
     134A      1.250886   135A      1.259513   136A      1.274461  
     137A      1.305346   138A      1.312105   139A      1.322312  
     140A      1.344881   141A      1.353351   142A      1.362172  
     143A      1.373969   144A      1.376115   145A      1.393602  
     146A      1.401705   147A      1.409416   148A      1.418718  
     149A      1.437396   150A      1.447678   151A      1.464369  
     152A      1.474329   153A      1.484114   154A      1.491020  
     155A      1.500228   156A      1.536865   157A      1.541271  
     158A      1.554241   159A      1.573912   160A      1.586257  
     161A      1.597153   162A      1.604660   163A      1.620815  
     164A      1.642950   165A      1.655591   166A      1.667247  
     167A      1.695793   168A      1.698827   169A      1.707363  
     170A      1.714166   171A      1.746179   172A      1.764482  
     173A      1.793982   174A      1.804177   175A      1.817481  
     176A      1.886324   177A      1.897151   178A      1.900814  
     179A      1.918218   180A      1.919468   181A      1.952044  
     182A      1.974426   183A      2.010005   184A      2.064596  
     185A      2.128171   186A      2.188579   187A      2.267954  
     188A      2.367586   189A      2.444041   190A      2.502580  
     191A      2.530618   192A      2.648619   193A      2.718850  
     194A      2.737436   195A      2.757761   196A      2.762238  
     197A      2.771283   198A      2.795413   199A      2.819733  
     200A      2.834168   201A      2.862153   202A      2.886732  
     203A      2.909153   204A      2.970299   205A      2.981204  
     206A      3.001773   207A      3.036338   208A      3.042889  
     209A      3.087091   210A      3.093042   211A      3.107410  
     212A      3.126902   213A      3.148122   214A      3.193278  
     215A      3.202661   216A      3.206142   217A      3.219542  
     218A      3.230918   219A      3.236922   220A      3.243704  
     221A      3.263832   222A      3.284527   223A      3.292768  
     224A      3.313450   225A      3.337134   226A      3.352516  
     227A      3.363246   228A      3.377906   229A      3.408996  
     230A      3.423143   231A      3.437705   232A      3.451936  
     233A      3.453002   234A      3.469744   235A      3.478822  
     236A      3.490255   237A      3.501439   238A      3.518888  
     239A      3.527468   240A      3.542465   241A      3.549426  
     242A      3.559455   243A      3.584678   244A      3.598671  
     245A      3.607264   246A      3.620219   247A      3.640869  
     248A      3.664432   249A      3.671079   250A      3.677427  
     251A      3.711959   252A      3.754075   253A      3.763461  
     254A      3.777982   255A      3.791987   256A      3.814598  
     257A      3.830606   258A      3.838134   259A      3.860350  
     260A      3.864123   261A      3.873409   262A      3.889898  
     263A      3.907666   264A      3.917245   265A      3.924291  
     266A      3.942642   267A      3.964845   268A      3.984923  
     269A      4.009680   270A      4.035093   271A      4.053149  
     272A      4.134274   273A      4.152859   274A      4.165114  
     275A      4.175832   276A      4.189679   277A      4.196798  
     278A      4.222611   279A      4.233452   280A      4.241467  
     281A      4.254784   282A      4.267437   283A      4.273216  
     284A      4.290742   285A      4.301317   286A      4.335691  
     287A      4.355551   288A      4.365366   289A      4.396987  
     290A      4.409725   291A      4.422439   292A      4.435810  
     293A      4.448774   294A      4.456785   295A      4.461406  
     296A      4.495914   297A      4.502883   298A      4.508320  
     299A      4.530723   300A      4.531488   301A      4.548567  
     302A      4.571685   303A      4.587073   304A      4.599597  
     305A      4.634421   306A      4.645218   307A      4.676888  
     308A      4.693395   309A      4.718809   310A      4.734322  
     311A      4.773195   312A      4.790726   313A      4.806912  
     314A      4.823137   315A      4.846300   316A      4.865128  
     317A      4.899101   318A      4.943267   319A      4.969133  
     320A      5.092860   321A      5.137308   322A      5.167983  
     323A      5.178189   324A      5.191274   325A      5.210851  
     326A      5.217611   327A      5.238296   328A      5.263444  
     329A      5.276755   330A      5.298570   331A      5.314381  
     332A      5.323146   333A      5.338548   334A      5.354324  
     335A      5.372764   336A      5.388776   337A      5.443836  
     338A      5.502370   339A      5.528647   340A      5.573677  
     341A      5.607343   342A      5.663511   343A      5.675543  
     344A      5.696908   345A      5.721763   346A      5.723244  
     347A      5.737419   348A      5.755987   349A      5.775610  
     350A      5.779308   351A      5.786513   352A      5.793235  
     353A      5.815233   354A      5.836582   355A      5.887154  
     356A      5.923010   357A      5.937185   358A      5.941191  
     359A      5.996306   360A      6.044195   361A      6.104039  
     362A      6.200702   363A      6.219708   364A      6.324251  
     365A      6.424301   366A      6.457161   367A      6.474932  
     368A      6.482136   369A      6.501067   370A      6.530966  
     371A      6.541674   372A      6.682544   373A      6.752387  
     374A      6.822562   375A      7.203920   376A      7.289041  
     377A      7.357727   378A      7.418216   379A      7.470855  
     380A      7.500661   381A      7.723915   382A      7.779329  
     383A     12.164096   384A     13.848623   385A     14.263669  
     386A     14.641774   387A     14.760901   388A     15.381416  

    Final Occupation by Irrep:
              A 
    DOCC [    25 ]

  @DF-RHF Final Energy:  -287.32036130692109

   => Energetics <=

    Nuclear Repulsion Energy =            243.1070975861801173
    One-Electron Energy =                -871.8124732064079581
    Two-Electron Energy =                 341.3850143133067832
    Total Energy =                       -287.3203613069210860

Computation Completed


Properties will be evaluated at   0.000000,   0.000000,   0.000000 [a0]

Properties computed using the SCF density matrix

  Nuclear Dipole Moment: [e a0]
     X:    -6.6650      Y:     0.8625      Z:    -4.6857

  Electronic Dipole Moment: [e a0]
     X:     7.2558      Y:    -1.1280      Z:     3.2354

  Dipole Moment: [e a0]
     X:     0.5908      Y:    -0.2655      Z:    -1.4503     Total:     1.5883

  Dipole Moment: [D]
     X:     1.5017      Y:    -0.6748      Z:    -3.6862     Total:     4.0372


*** tstop() called on r282 at Sat Sep 11 02:03:16 2021
Module time:
	user time   =      25.84 seconds =       0.43 minutes
	system time =       0.77 seconds =       0.01 minutes
	total time  =         27 seconds =       0.45 minutes
Total time:
	user time   =      25.84 seconds =       0.43 minutes
	system time =       0.77 seconds =       0.01 minutes
	total time  =         27 seconds =       0.45 minutes

  //>>>>>>>>>>>>>>>>>>>>>>>>>>>>>>>>>>>//
  //            Monomer A HF           //
  //<<<<<<<<<<<<<<<<<<<<<<<<<<<<<<<<<<<//


*** tstart() called on r282
*** at Sat Sep 11 02:03:16 2021

   => Loading Basis Set <=

    Name: JUN-CC-PVTZ
    Role: ORBITAL
    Keyword: BASIS
    atoms 1-2, 10-11 entry C          line   217 file /home/r08543048/miniconda3/share/psi4/basis/jun-cc-pvtz.gbs 
    atoms 3          entry O          line   305 file /home/r08543048/miniconda3/share/psi4/basis/jun-cc-pvtz.gbs 
    atoms 4          entry N          line   261 file /home/r08543048/miniconda3/share/psi4/basis/jun-cc-pvtz.gbs 
    atoms 5-9, 12-17 entry H          line    36 file /home/r08543048/miniconda3/share/psi4/basis/jun-cc-pvtz.gbs 


         ---------------------------------------------------------
                                   SCF
               by Justin Turney, Rob Parrish, Andy Simmonett
                          and Daniel G. A. Smith
                              RHF Reference
                        1 Threads,  20980 MiB Core
         ---------------------------------------------------------

  ==> Geometry <==

    Molecular point group: c1
    Full point group: C1

    Geometry (in Angstrom), charge = 0, multiplicity = 1:

       Center              X                  Y                   Z               Mass       
    ------------   -----------------  -----------------  -----------------  -----------------
         C            1.134295567071     1.277907368191    -0.717536173890    12.000000000000
         C            1.176072567071     0.061807368191     0.175548826110    12.000000000000
         O            0.726642567071     0.067274368191     1.312935826110    15.994914619570
         N            1.742444567071    -1.050997631809    -0.374326173890    14.003074004430
         H            1.806312567071     1.204384368191    -1.569914173890     1.007825032230
         H            0.113820567071     1.402066368191    -1.079527173890     1.007825032230
         H            1.387594567071     2.152242368191    -0.124399173890     1.007825032230
         H            1.700830567071    -1.909367631809     0.147985826110     1.007825032230
         H            2.025216567071    -1.078125631809    -1.335721173890     1.007825032230
      Gh(C)          -2.172278432929    -0.820446631809    -0.464214173890    12.000000000000
      Gh(C)          -2.542977432929     0.540527368191     0.113427826110    12.000000000000
      Gh(H)          -3.004669432929    -1.259240631809    -1.013994173890     1.007825032230
      Gh(H)          -1.886497432929    -1.512417631809     0.326777826110     1.007825032230
      Gh(H)          -1.329000432929    -0.745056631809    -1.151313173890     1.007825032230
      Gh(H)          -3.407156432929     0.461706368191     0.772094826110     1.007825032230
      Gh(H)          -2.795043432929     1.250383368191    -0.674719173890     1.007825032230
      Gh(H)          -1.719301432929     0.949858368191     0.696607826110     1.007825032230

  Running in c1 symmetry.

  Rotational constants: A =      0.14639  B =      0.05354  C =      0.05055 [cm^-1]
  Rotational constants: A =   4388.55765  B =   1605.10316  C =   1515.32846 [MHz]
  Nuclear repulsion =  121.773658508126474

  Charge       = 0
  Multiplicity = 1
  Electrons    = 32
  Nalpha       = 16
  Nbeta        = 16

  ==> Algorithm <==

  SCF Algorithm Type is DF.
  DIIS enabled.
  MOM disabled.
  Fractional occupation disabled.
  Guess Type is SAD.
  Energy threshold   = 1.00e-08
  Density threshold  = 1.00e-08
  Integral threshold = 0.00e+00

  ==> Primary Basis <==

  Basis Set: JUN-CC-PVTZ
    Blend: JUN-CC-PVTZ
    Number of shells: 144
    Number of basis function: 388
    Number of Cartesian functions: 435
    Spherical Harmonics?: true
    Max angular momentum: 3

   => Loading Basis Set <=

    Name: (JUN-CC-PVTZ AUX)
    Role: JKFIT
    Keyword: DF_BASIS_SCF
    atoms 1-2, 10-11 entry C          line   152 file /home/r08543048/miniconda3/share/psi4/basis/jun-cc-pvtz-jkfit.gbs 
    atoms 3          entry O          line   272 file /home/r08543048/miniconda3/share/psi4/basis/jun-cc-pvtz-jkfit.gbs 
    atoms 4          entry N          line   212 file /home/r08543048/miniconda3/share/psi4/basis/jun-cc-pvtz-jkfit.gbs 
    atoms 5-9, 12-17 entry H          line    70 file /home/r08543048/miniconda3/share/psi4/basis/jun-cc-pvtz-jkfit.gbs 

  ==> Pre-Iterations <==

   -------------------------------------------------------
    Irrep   Nso     Nmo     Nalpha   Nbeta   Ndocc  Nsocc
   -------------------------------------------------------
     A        388     388       0       0       0       0
   -------------------------------------------------------
    Total     388     388      16      16      16       0
   -------------------------------------------------------

  ==> Integral Setup <==

  ==> DiskDFJK: Density-Fitted J/K Matrices <==

    J tasked:                  Yes
    K tasked:                  Yes
    wK tasked:                  No
    OpenMP threads:              1
    Integrals threads:           1
    Memory [MiB]:            15735
    Algorithm:                Core
    Integral Cache:           LOAD
    Schwarz Cutoff:          1E-12
    Fitting Condition:       1E-10

   => Auxiliary Basis Set <=

  Basis Set: (JUN-CC-PVTZ AUX)
    Blend: JUN-CC-PVTZ-JKFIT
    Number of shells: 284
    Number of basis function: 900
    Number of Cartesian functions: 1081
    Spherical Harmonics?: true
    Max angular momentum: 4

  Minimum eigenvalue in the overlap matrix is 4.0395951984E-05.
  Using Symmetric Orthogonalization.

  SCF Guess: Superposition of Atomic Densities via on-the-fly atomic UHF.

  ==> Iterations <==

                           Total Energy        Delta E     RMS |[F,P]|

   @DF-RHF iter SAD:  -207.24405823928262   -2.07244e+02   0.00000e+00 
   @DF-RHF iter   1:  -207.88905362071293   -6.44995e-01   1.55631e-03 DIIS
   @DF-RHF iter   2:  -208.01695939214162   -1.27906e-01   9.25745e-04 DIIS
   @DF-RHF iter   3:  -208.05930386052387   -4.23445e-02   1.70705e-04 DIIS
   @DF-RHF iter   4:  -208.06173323249075   -2.42937e-03   7.03551e-05 DIIS
   @DF-RHF iter   5:  -208.06223316869392   -4.99936e-04   1.32532e-05 DIIS
   @DF-RHF iter   6:  -208.06226515928125   -3.19906e-05   6.37847e-06 DIIS
   @DF-RHF iter   7:  -208.06227117194928   -6.01267e-06   2.41160e-06 DIIS
   @DF-RHF iter   8:  -208.06227246922364   -1.29727e-06   7.60720e-07 DIIS
   @DF-RHF iter   9:  -208.06227262022395   -1.51000e-07   1.92458e-07 DIIS
   @DF-RHF iter  10:  -208.06227262748189   -7.25794e-09   6.23612e-08 DIIS
   @DF-RHF iter  11:  -208.06227262813258   -6.50687e-10   1.64950e-08 DIIS
   @DF-RHF iter  12:  -208.06227262818004   -4.74643e-11   3.70553e-09 DIIS
  Energy and wave function converged.


  ==> Post-Iterations <==

    Orbital Energies [Eh]
    ---------------------

    Doubly Occupied:                                                      

       1A    -20.516643     2A    -15.587783     3A    -11.354547  
       4A    -11.238743     5A     -1.376738     6A     -1.213534  
       7A     -1.007522     8A     -0.800663     9A     -0.728049  
      10A     -0.664946    11A     -0.616504    12A     -0.585847  
      13A     -0.563798    14A     -0.524911    15A     -0.425306  
      16A     -0.415435  

    Virtual:                                                              

      17A      0.035132    18A      0.050543    19A      0.051752  
      20A      0.064657    21A      0.077101    22A      0.085330  
      23A      0.088313    24A      0.097028    25A      0.099046  
      26A      0.113293    27A      0.121800    28A      0.122629  
      29A      0.128237    30A      0.137042    31A      0.155372  
      32A      0.162656    33A      0.170955    34A      0.173535  
      35A      0.194688    36A      0.201532    37A      0.219135  
      38A      0.230894    39A      0.245949    40A      0.248813  
      41A      0.260474    42A      0.263360    43A      0.274792  
      44A      0.282425    45A      0.292259    46A      0.298934  
      47A      0.309961    48A      0.311639    49A      0.319934  
      50A      0.322455    51A      0.331731    52A      0.339444  
      53A      0.348447    54A      0.353026    55A      0.364036  
      56A      0.386213    57A      0.393745    58A      0.402538  
      59A      0.412428    60A      0.417500    61A      0.429542  
      62A      0.437277    63A      0.443045    64A      0.450498  
      65A      0.469482    66A      0.473544    67A      0.502468  
      68A      0.503154    69A      0.517991    70A      0.528954  
      71A      0.531543    72A      0.546572    73A      0.554382  
      74A      0.556481    75A      0.563024    76A      0.580597  
      77A      0.595233    78A      0.597621    79A      0.609863  
      80A      0.623355    81A      0.632221    82A      0.634595  
      83A      0.653598    84A      0.655836    85A      0.659468  
      86A      0.678259    87A      0.686163    88A      0.719998  
      89A      0.734534    90A      0.745604    91A      0.765644  
      92A      0.770767    93A      0.792603    94A      0.800336  
      95A      0.813967    96A      0.831659    97A      0.853982  
      98A      0.873326    99A      0.894034   100A      0.924696  
     101A      0.935830   102A      0.950160   103A      0.973927  
     104A      0.979422   105A      1.008065   106A      1.043203  
     107A      1.055064   108A      1.065697   109A      1.067899  
     110A      1.074798   111A      1.082546   112A      1.106145  
     113A      1.114272   114A      1.135183   115A      1.146019  
     116A      1.149603   117A      1.158169   118A      1.165763  
     119A      1.188226   120A      1.200138   121A      1.212398  
     122A      1.225178   123A      1.236174   124A      1.249395  
     125A      1.261366   126A      1.282829   127A      1.302161  
     128A      1.315596   129A      1.320442   130A      1.331154  
     131A      1.335484   132A      1.350952   133A      1.364246  
     134A      1.373241   135A      1.381080   136A      1.387591  
     137A      1.395635   138A      1.410700   139A      1.413311  
     140A      1.449950   141A      1.454191   142A      1.478251  
     143A      1.490700   144A      1.505826   145A      1.523378  
     146A      1.527311   147A      1.535516   148A      1.547662  
     149A      1.563908   150A      1.572384   151A      1.594481  
     152A      1.605051   153A      1.617409   154A      1.625404  
     155A      1.633683   156A      1.652868   157A      1.665731  
     158A      1.702505   159A      1.718807   160A      1.726268  
     161A      1.749377   162A      1.753434   163A      1.785158  
     164A      1.797624   165A      1.823134   166A      1.837535  
     167A      1.894761   168A      1.917844   169A      1.931846  
     170A      1.961306   171A      2.003877   172A      2.014076  
     173A      2.054184   174A      2.078264   175A      2.091866  
     176A      2.154860   177A      2.186815   178A      2.238992  
     179A      2.264266   180A      2.303652   181A      2.350475  
     182A      2.387394   183A      2.415087   184A      2.426143  
     185A      2.464325   186A      2.507772   187A      2.529579  
     188A      2.549192   189A      2.564978   190A      2.719823  
     191A      2.743473   192A      2.776507   193A      2.804860  
     194A      2.888135   195A      2.915704   196A      2.985945  
     197A      3.035232   198A      3.047157   199A      3.106662  
     200A      3.146728   201A      3.204067   202A      3.214066  
     203A      3.244618   204A      3.263256   205A      3.279093  
     206A      3.336262   207A      3.361761   208A      3.399787  
     209A      3.417468   210A      3.431799   211A      3.450173  
     212A      3.470082   213A      3.486283   214A      3.516654  
     215A      3.546359   216A      3.550962   217A      3.553171  
     218A      3.564855   219A      3.573683   220A      3.581328  
     221A      3.587895   222A      3.599665   223A      3.611641  
     224A      3.616172   225A      3.648923   226A      3.668952  
     227A      3.671571   228A      3.681388   229A      3.730649  
     230A      3.747642   231A      3.778152   232A      3.794398  
     233A      3.796669   234A      3.809801   235A      3.816200  
     236A      3.831752   237A      3.844780   238A      3.856074  
     239A      3.871095   240A      3.884409   241A      3.916509  
     242A      3.940793   243A      3.945588   244A      3.966756  
     245A      3.992694   246A      4.028628   247A      4.042447  
     248A      4.068798   249A      4.092749   250A      4.093854  
     251A      4.124857   252A      4.152982   253A      4.158056  
     254A      4.167766   255A      4.173442   256A      4.190385  
     257A      4.224085   258A      4.241110   259A      4.265612  
     260A      4.318002   261A      4.344693   262A      4.354797  
     263A      4.362006   264A      4.367868   265A      4.398382  
     266A      4.403784   267A      4.420332   268A      4.434467  
     269A      4.445202   270A      4.450666   271A      4.460424  
     272A      4.469072   273A      4.516808   274A      4.519799  
     275A      4.527604   276A      4.538361   277A      4.542897  
     278A      4.563321   279A      4.564194   280A      4.597135  
     281A      4.604647   282A      4.622901   283A      4.633777  
     284A      4.651672   285A      4.706989   286A      4.720497  
     287A      4.724963   288A      4.733979   289A      4.752129  
     290A      4.763399   291A      4.772327   292A      4.782362  
     293A      4.802891   294A      4.826698   295A      4.853674  
     296A      4.863038   297A      4.867467   298A      4.880891  
     299A      4.889602   300A      4.907987   301A      4.933479  
     302A      4.964322   303A      4.977530   304A      4.998740  
     305A      5.007376   306A      5.016479   307A      5.042525  
     308A      5.061758   309A      5.086051   310A      5.098609  
     311A      5.130461   312A      5.151057   313A      5.179478  
     314A      5.194531   315A      5.221026   316A      5.255837  
     317A      5.286881   318A      5.326477   319A      5.388711  
     320A      5.396986   321A      5.407940   322A      5.418145  
     323A      5.446157   324A      5.503030   325A      5.530698  
     326A      5.576135   327A      5.608933   328A      5.647640  
     329A      5.667123   330A      5.671507   331A      5.684632  
     332A      5.720715   333A      5.736339   334A      5.741305  
     335A      5.746708   336A      5.780140   337A      5.834910  
     338A      5.887346   339A      5.993158   340A      6.005787  
     341A      6.016034   342A      6.044419   343A      6.104018  
     344A      6.201234   345A      6.220464   346A      6.234856  
     347A      6.319970   348A      6.321081   349A      6.341851  
     350A      6.362756   351A      6.380729   352A      6.412253  
     353A      6.426126   354A      6.459180   355A      6.470429  
     356A      6.476930   357A      6.532650   358A      6.683399  
     359A      6.752687   360A      6.810848   361A      6.823050  
     362A      6.906989   363A      7.204834   364A      7.290186  
     365A      7.354317   366A      7.363884   367A      7.418200  
     368A      7.471565   369A      7.491054   370A      7.518076  
     371A      7.524791   372A      7.651256   373A      7.682020  
     374A      7.731093   375A      7.781776   376A      7.796386  
     377A      7.812819   378A      7.901736   379A      7.925828  
     380A      8.275501   381A      9.740413   382A      9.941683  
     383A     12.169689   384A     13.855574   385A     14.711675  
     386A     15.372442   387A     45.108571   388A     45.634397  

    Final Occupation by Irrep:
              A 
    DOCC [    16 ]

  @DF-RHF Final Energy:  -208.06227262818004

   => Energetics <=

    Nuclear Repulsion Energy =            121.7736585081264735
    One-Electron Energy =                -524.4299251708609972
    Two-Electron Energy =                 194.5939940345544983
    Total Energy =                       -208.0622726281800396

Computation Completed


Properties will be evaluated at   0.000000,   0.000000,   0.000000 [a0]

Properties computed using the SCF density matrix

  Nuclear Dipole Moment: [e a0]
     X:    73.5221      Y:     5.6516      Z:     1.2656

  Electronic Dipole Moment: [e a0]
     X:   -72.9685      Y:    -5.9114      Z:    -2.8272

  Dipole Moment: [e a0]
     X:     0.5536      Y:    -0.2598      Z:    -1.5617     Total:     1.6771

  Dipole Moment: [D]
     X:     1.4071      Y:    -0.6603      Z:    -3.9693     Total:     4.2628


*** tstop() called on r282 at Sat Sep 11 02:03:31 2021
Module time:
	user time   =      14.72 seconds =       0.25 minutes
	system time =       0.38 seconds =       0.01 minutes
	total time  =         15 seconds =       0.25 minutes
Total time:
	user time   =      40.57 seconds =       0.68 minutes
	system time =       1.15 seconds =       0.02 minutes
	total time  =         42 seconds =       0.70 minutes

  //>>>>>>>>>>>>>>>>>>>>>>>>>>>>>>>>>>>//
  //            Monomer B HF           //
  //<<<<<<<<<<<<<<<<<<<<<<<<<<<<<<<<<<<//


*** tstart() called on r282
*** at Sat Sep 11 02:03:31 2021

   => Loading Basis Set <=

    Name: JUN-CC-PVTZ
    Role: ORBITAL
    Keyword: BASIS
    atoms 1-2, 10-11 entry C          line   217 file /home/r08543048/miniconda3/share/psi4/basis/jun-cc-pvtz.gbs 
    atoms 3          entry O          line   305 file /home/r08543048/miniconda3/share/psi4/basis/jun-cc-pvtz.gbs 
    atoms 4          entry N          line   261 file /home/r08543048/miniconda3/share/psi4/basis/jun-cc-pvtz.gbs 
    atoms 5-9, 12-17 entry H          line    36 file /home/r08543048/miniconda3/share/psi4/basis/jun-cc-pvtz.gbs 


         ---------------------------------------------------------
                                   SCF
               by Justin Turney, Rob Parrish, Andy Simmonett
                          and Daniel G. A. Smith
                              RHF Reference
                        1 Threads,  20980 MiB Core
         ---------------------------------------------------------

  ==> Geometry <==

    Molecular point group: c1
    Full point group: C1

    Geometry (in Angstrom), charge = 0, multiplicity = 1:

       Center              X                  Y                   Z               Mass       
    ------------   -----------------  -----------------  -----------------  -----------------
      Gh(C)           1.134295567071     1.277907368191    -0.717536173890    12.000000000000
      Gh(C)           1.176072567071     0.061807368191     0.175548826110    12.000000000000
      Gh(O)           0.726642567071     0.067274368191     1.312935826110    15.994914619570
      Gh(N)           1.742444567071    -1.050997631809    -0.374326173890    14.003074004430
      Gh(H)           1.806312567071     1.204384368191    -1.569914173890     1.007825032230
      Gh(H)           0.113820567071     1.402066368191    -1.079527173890     1.007825032230
      Gh(H)           1.387594567071     2.152242368191    -0.124399173890     1.007825032230
      Gh(H)           1.700830567071    -1.909367631809     0.147985826110     1.007825032230
      Gh(H)           2.025216567071    -1.078125631809    -1.335721173890     1.007825032230
         C           -2.172278432929    -0.820446631809    -0.464214173890    12.000000000000
         C           -2.542977432929     0.540527368191     0.113427826110    12.000000000000
         H           -3.004669432929    -1.259240631809    -1.013994173890     1.007825032230
         H           -1.886497432929    -1.512417631809     0.326777826110     1.007825032230
         H           -1.329000432929    -0.745056631809    -1.151313173890     1.007825032230
         H           -3.407156432929     0.461706368191     0.772094826110     1.007825032230
         H           -2.795043432929     1.250383368191    -0.674719173890     1.007825032230
         H           -1.719301432929     0.949858368191     0.696607826110     1.007825032230

  Running in c1 symmetry.

  Rotational constants: A =      0.14639  B =      0.05354  C =      0.05055 [cm^-1]
  Rotational constants: A =   4388.55765  B =   1605.10316  C =   1515.32846 [MHz]
  Nuclear repulsion =   42.338969531576460

  Charge       = 0
  Multiplicity = 1
  Electrons    = 18
  Nalpha       = 9
  Nbeta        = 9

  ==> Algorithm <==

  SCF Algorithm Type is DF.
  DIIS enabled.
  MOM disabled.
  Fractional occupation disabled.
  Guess Type is SAD.
  Energy threshold   = 1.00e-08
  Density threshold  = 1.00e-08
  Integral threshold = 0.00e+00

  ==> Primary Basis <==

  Basis Set: JUN-CC-PVTZ
    Blend: JUN-CC-PVTZ
    Number of shells: 144
    Number of basis function: 388
    Number of Cartesian functions: 435
    Spherical Harmonics?: true
    Max angular momentum: 3

   => Loading Basis Set <=

    Name: (JUN-CC-PVTZ AUX)
    Role: JKFIT
    Keyword: DF_BASIS_SCF
    atoms 1-2, 10-11 entry C          line   152 file /home/r08543048/miniconda3/share/psi4/basis/jun-cc-pvtz-jkfit.gbs 
    atoms 3          entry O          line   272 file /home/r08543048/miniconda3/share/psi4/basis/jun-cc-pvtz-jkfit.gbs 
    atoms 4          entry N          line   212 file /home/r08543048/miniconda3/share/psi4/basis/jun-cc-pvtz-jkfit.gbs 
    atoms 5-9, 12-17 entry H          line    70 file /home/r08543048/miniconda3/share/psi4/basis/jun-cc-pvtz-jkfit.gbs 

  ==> Pre-Iterations <==

   -------------------------------------------------------
    Irrep   Nso     Nmo     Nalpha   Nbeta   Ndocc  Nsocc
   -------------------------------------------------------
     A        388     388       0       0       0       0
   -------------------------------------------------------
    Total     388     388       9       9       9       0
   -------------------------------------------------------

  ==> Integral Setup <==

  ==> DiskDFJK: Density-Fitted J/K Matrices <==

    J tasked:                  Yes
    K tasked:                  Yes
    wK tasked:                  No
    OpenMP threads:              1
    Integrals threads:           1
    Memory [MiB]:            15735
    Algorithm:                Core
    Integral Cache:           LOAD
    Schwarz Cutoff:          1E-12
    Fitting Condition:       1E-10

   => Auxiliary Basis Set <=

  Basis Set: (JUN-CC-PVTZ AUX)
    Blend: JUN-CC-PVTZ-JKFIT
    Number of shells: 284
    Number of basis function: 900
    Number of Cartesian functions: 1081
    Spherical Harmonics?: true
    Max angular momentum: 4

  Minimum eigenvalue in the overlap matrix is 4.0395951984E-05.
  Using Symmetric Orthogonalization.

  SCF Guess: Superposition of Atomic Densities via on-the-fly atomic UHF.

  ==> Iterations <==

                           Total Energy        Delta E     RMS |[F,P]|

   @DF-RHF iter SAD:   -78.65990149525527   -7.86599e+01   0.00000e+00 
   @DF-RHF iter   1:   -79.14805248498163   -4.88151e-01   1.11925e-03 DIIS
   @DF-RHF iter   2:   -79.23887076340051   -9.08183e-02   5.10982e-04 DIIS
   @DF-RHF iter   3:   -79.25879601510356   -1.99253e-02   8.35784e-05 DIIS
   @DF-RHF iter   4:   -79.26006146067020   -1.26545e-03   1.15881e-05 DIIS
   @DF-RHF iter   5:   -79.26008929314452   -2.78325e-05   2.07508e-06 DIIS
   @DF-RHF iter   6:   -79.26009013647602   -8.43332e-07   2.49851e-07 DIIS
   @DF-RHF iter   7:   -79.26009014942179   -1.29458e-08   3.04294e-08 DIIS
   @DF-RHF iter   8:   -79.26009014956327   -1.41483e-10   9.12045e-09 DIIS
  Energy and wave function converged.


  ==> Post-Iterations <==

    Orbital Energies [Eh]
    ---------------------

    Doubly Occupied:                                                      

       1A    -11.210550     2A    -11.209927     3A     -1.018491  
       4A     -0.841307     5A     -0.598344     6A     -0.596108  
       7A     -0.509333     8A     -0.487731     9A     -0.485494  

    Virtual:                                                              

      10A      0.035193    11A      0.049840    12A      0.054444  
      13A      0.062295    14A      0.076319    15A      0.087042  
      16A      0.088233    17A      0.093417    18A      0.098307  
      19A      0.111395    20A      0.118835    21A      0.120813  
      22A      0.128688    23A      0.138915    24A      0.151012  
      25A      0.156551    26A      0.166120    27A      0.175384  
      28A      0.193888    29A      0.204625    30A      0.217304  
      31A      0.229613    32A      0.231269    33A      0.238843  
      34A      0.254394    35A      0.275700    36A      0.281813  
      37A      0.288003    38A      0.296640    39A      0.305006  
      40A      0.315705    41A      0.324574    42A      0.333231  
      43A      0.336987    44A      0.338649    45A      0.348481  
      46A      0.353415    47A      0.357178    48A      0.363132  
      49A      0.374037    50A      0.377872    51A      0.386467  
      52A      0.393670    53A      0.405234    54A      0.415752  
      55A      0.420543    56A      0.443211    57A      0.453476  
      58A      0.467924    59A      0.482417    60A      0.483681  
      61A      0.495581    62A      0.507044    63A      0.507977  
      64A      0.529337    65A      0.534982    66A      0.561829  
      67A      0.563874    68A      0.573631    69A      0.585174  
      70A      0.607717    71A      0.625127    72A      0.637682  
      73A      0.645254    74A      0.651215    75A      0.671138  
      76A      0.680372    77A      0.693157    78A      0.721832  
      79A      0.727507    80A      0.735205    81A      0.743117  
      82A      0.760661    83A      0.778208    84A      0.782039  
      85A      0.792523    86A      0.800608    87A      0.819461  
      88A      0.824184    89A      0.836747    90A      0.845400  
      91A      0.855138    92A      0.869565    93A      0.892961  
      94A      0.894720    95A      0.915683    96A      0.940025  
      97A      0.948588    98A      0.966324    99A      0.973596  
     100A      0.980257   101A      0.990025   102A      1.010177  
     103A      1.028478   104A      1.061582   105A      1.068278  
     106A      1.088582   107A      1.093177   108A      1.114988  
     109A      1.124286   110A      1.138942   111A      1.153399  
     112A      1.164136   113A      1.171273   114A      1.206419  
     115A      1.223567   116A      1.269442   117A      1.275303  
     118A      1.305009   119A      1.315959   120A      1.328507  
     121A      1.346626   122A      1.348950   123A      1.355351  
     124A      1.359987   125A      1.379727   126A      1.383576  
     127A      1.397477   128A      1.404096   129A      1.422376  
     130A      1.445684   131A      1.465012   132A      1.471014  
     133A      1.491264   134A      1.499089   135A      1.513907  
     136A      1.524009   137A      1.536925   138A      1.553577  
     139A      1.565696   140A      1.580066   141A      1.586800  
     142A      1.598733   143A      1.614799   144A      1.623917  
     145A      1.631216   146A      1.641638   147A      1.677521  
     148A      1.686064   149A      1.700306   150A      1.729365  
     151A      1.736523   152A      1.744146   153A      1.766426  
     154A      1.781979   155A      1.804150   156A      1.825939  
     157A      1.851066   158A      1.867600   159A      1.887977  
     160A      1.900943   161A      1.931665   162A      1.954601  
     163A      1.983098   164A      2.008378   165A      2.033613  
     166A      2.049106   167A      2.109792   168A      2.151101  
     169A      2.232287   170A      2.323947   171A      2.342196  
     172A      2.393861   173A      2.419043   174A      2.445163  
     175A      2.520540   176A      2.573760   177A      2.659206  
     178A      2.661724   179A      2.720706   180A      2.735140  
     181A      2.745042   182A      2.773664   183A      2.787553  
     184A      2.797292   185A      2.824661   186A      2.836395  
     187A      2.852048   188A      2.864621   189A      2.909804  
     190A      2.945711   191A      2.984522   192A      3.054094  
     193A      3.075016   194A      3.080675   195A      3.115551  
     196A      3.127031   197A      3.151761   198A      3.190413  
     199A      3.204204   200A      3.220830   201A      3.267178  
     202A      3.281596   203A      3.308768   204A      3.323419  
     205A      3.351456   206A      3.355702   207A      3.436907  
     208A      3.446808   209A      3.452637   210A      3.468570  
     211A      3.502549   212A      3.513368   213A      3.528389  
     214A      3.530674   215A      3.566907   216A      3.585662  
     217A      3.591419   218A      3.611063   219A      3.632852  
     220A      3.644286   221A      3.660575   222A      3.695253  
     223A      3.714639   224A      3.765542   225A      3.802595  
     226A      3.808853   227A      3.813371   228A      3.843209  
     229A      3.851965   230A      3.866797   231A      3.870193  
     232A      3.877159   233A      3.906912   234A      3.915786  
     235A      3.926611   236A      3.936100   237A      3.961093  
     238A      3.984367   239A      4.003032   240A      4.061934  
     241A      4.078657   242A      4.129712   243A      4.179619  
     244A      4.188256   245A      4.197119   246A      4.203369  
     247A      4.220913   248A      4.242746   249A      4.244940  
     250A      4.259020   251A      4.285296   252A      4.290455  
     253A      4.293783   254A      4.319489   255A      4.333244  
     256A      4.378445   257A      4.386287   258A      4.407204  
     259A      4.420169   260A      4.435506   261A      4.451621  
     262A      4.475973   263A      4.488115   264A      4.495781  
     265A      4.509688   266A      4.517128   267A      4.533306  
     268A      4.552930   269A      4.600165   270A      4.620194  
     271A      4.637609   272A      4.649042   273A      4.667718  
     274A      4.676878   275A      4.695110   276A      4.702353  
     277A      4.736336   278A      4.746292   279A      4.756723  
     280A      4.765183   281A      4.776946   282A      4.790206  
     283A      4.802045   284A      4.807468   285A      4.829441  
     286A      4.830551   287A      4.839707   288A      4.861119  
     289A      4.873456   290A      4.919202   291A      4.932463  
     292A      4.949822   293A      4.954574   294A      4.960531  
     295A      4.993979   296A      5.010018   297A      5.039376  
     298A      5.070837   299A      5.109530   300A      5.132420  
     301A      5.154857   302A      5.185153   303A      5.194247  
     304A      5.216871   305A      5.231739   306A      5.248799  
     307A      5.271835   308A      5.292518   309A      5.315221  
     310A      5.329914   311A      5.345264   312A      5.365290  
     313A      5.439719   314A      5.563871   315A      5.668701  
     316A      5.674646   317A      5.691650   318A      5.713864  
     319A      5.752053   320A      5.764264   321A      5.765516  
     322A      5.779814   323A      5.799774   324A      5.816565  
     325A      5.858558   326A      5.915320   327A      5.921225  
     328A      5.926966   329A      5.976596   330A      6.062048  
     331A      6.086837   332A      6.116178   333A      6.160238  
     334A      6.221421   335A      6.324582   336A      6.355292  
     337A      6.434437   338A      6.449130   339A      6.455525  
     340A      6.476789   341A      6.490436   342A      6.495193  
     343A      6.510379   344A      6.547104   345A      6.558655  
     346A      6.625635   347A      6.690678   348A      6.744175  
     349A      6.860193   350A      6.967146   351A      7.066658  
     352A      7.265048   353A      7.331204   354A      7.409067  
     355A      7.453894   356A      7.532122   357A      7.578572  
     358A      7.682354   359A      7.822471   360A      7.842885  
     361A      7.854780   362A      7.889427   363A      7.974489  
     364A      8.259585   365A      8.412628   366A      8.764948  
     367A      9.109020   368A      9.118623   369A      9.166985  
     370A      9.520920   371A      9.815302   372A      9.853914  
     373A      9.899593   374A      9.931906   375A     10.076358  
     376A     10.475637   377A     10.924116   378A     11.369809  
     379A     11.535767   380A     11.715270   381A     11.961924  
     382A     13.838538   383A     14.261359   384A     14.686298  
     385A     42.452098   386A     46.033341   387A     54.446607  
     388A     61.026210  

    Final Occupation by Irrep:
              A 
    DOCC [     9 ]

  @DF-RHF Final Energy:   -79.26009014956327

   => Energetics <=

    Nuclear Repulsion Energy =             42.3389695315764598
    One-Electron Energy =                -189.2835547908489389
    Two-Electron Energy =                  67.6844951097092178
    Total Energy =                        -79.2600901495632684

Computation Completed


Properties will be evaluated at   0.000000,   0.000000,   0.000000 [a0]

Properties computed using the SCF density matrix

  Nuclear Dipole Moment: [e a0]
     X:   -80.1871      Y:    -4.7891      Z:    -5.9512

  Electronic Dipole Moment: [e a0]
     X:    80.1869      Y:     4.7884      Z:     5.9527

  Dipole Moment: [e a0]
     X:    -0.0002      Y:    -0.0007      Z:     0.0015     Total:     0.0016

  Dipole Moment: [D]
     X:    -0.0006      Y:    -0.0018      Z:     0.0037     Total:     0.0042


*** tstop() called on r282 at Sat Sep 11 02:03:41 2021
Module time:
	user time   =       9.74 seconds =       0.16 minutes
	system time =       0.26 seconds =       0.00 minutes
	total time  =         10 seconds =       0.17 minutes
Total time:
	user time   =      50.31 seconds =       0.84 minutes
	system time =       1.41 seconds =       0.02 minutes
	total time  =         52 seconds =       0.87 minutes
  Constructing Basis Sets for SAPT...

   => Loading Basis Set <=

    Name: (JUN-CC-PVTZ AUX)
    Role: RIFIT
    Keyword: DF_BASIS_SAPT
    atoms 1-2, 10-11 entry C          line   132 file /home/r08543048/miniconda3/share/psi4/basis/jun-cc-pvtz-ri.gbs 
    atoms 3          entry O          line   244 file /home/r08543048/miniconda3/share/psi4/basis/jun-cc-pvtz-ri.gbs 
    atoms 4          entry N          line   188 file /home/r08543048/miniconda3/share/psi4/basis/jun-cc-pvtz-ri.gbs 
    atoms 5-9, 12-17 entry H          line    30 file /home/r08543048/miniconda3/share/psi4/basis/jun-cc-pvtz-ri.gbs 


  //>>>>>>>>>>>>>>>>>>>>>>>>>>>>>>>>>>>//
  //               SAPT0               //
  //<<<<<<<<<<<<<<<<<<<<<<<<<<<<<<<<<<<//


*** tstart() called on r282
*** at Sat Sep 11 02:03:41 2021

        SAPT0  
    Ed Hohenstein
     6 June 2009

      Orbital Information
  --------------------------
    NSO        =       388
    NMO        =       388
    NRI        =       912
    NOCC A     =        16
    NOCC B     =         9
    FOCC A     =         0
    FOCC B     =         0
    NVIR A     =       372
    NVIR B     =       379

    Elst10,r            =    -0.002025993628 [Eh]
    Exch10              =     0.004940753074 [Eh]
    Exch10 (S^2)        =     0.004931546150 [Eh]

    Iter     Energy [mEh]          dE [mEh]         Residual      Time [s]
       1      -0.31656729       0.316567289       2.332895412             0
       2      -0.38587955       0.069312263       0.514589449             1
       3      -0.38596985       0.000090302       0.192732977             1
       4      -0.38481578      -0.001154073       0.063718964             2
       5      -0.38478131      -0.000034472       0.022257427             2
       6      -0.38490517       0.000123863       0.009393897             3
       7      -0.38490193      -0.000003242       0.004214826             3
       8      -0.38488792      -0.000014010       0.001342655             3
       9      -0.38488815       0.000000231       0.000446699             4
      10      -0.38488966       0.000001511       0.000151153             4
      11      -0.38488927      -0.000000396       0.000052775             5
      12      -0.38488922      -0.000000041       0.000017190             5
      13      -0.38488926       0.000000040       0.000004656             6
      14      -0.38488926      -0.000000001       0.000001399             6
      15      -0.38488926      -0.000000003       0.000000390             6

    CHF Iterations converged


    Iter     Energy [mEh]          dE [mEh]         Residual      Time [s]
       1      -0.94036378       0.940363782       4.844071848             1
       2      -1.09466224       0.154298457       1.557441368             1
       3      -1.12115023       0.026487989       0.292477814             2
       4      -1.11682426      -0.004325969       0.098730129             2
       5      -1.11592446      -0.000899799       0.015750479             3
       6      -1.11615273       0.000228271       0.002493934             3
       7      -1.11613532      -0.000017411       0.000565808             3
       8      -1.11613498      -0.000000340       0.000171492             4
       9      -1.11613572       0.000000743       0.000031032             4
      10      -1.11613570      -0.000000023       0.000005946             5
      11      -1.11613568      -0.000000017       0.000001093             5
      12      -1.11613569       0.000000003       0.000000172             5

    CHF Iterations converged

    Ind20,r (A<-B)      =    -0.000384889261 [Eh]
    Ind20,r (B<-A)      =    -0.001116135686 [Eh]
    Ind20,r             =    -0.001501024948 [Eh]
    Exch-Ind20,r (A<-B) =     0.000335300763 [Eh]
    Exch-Ind20,r (B<-A) =     0.000566936028 [Eh]
    Exch-Ind20,r        =     0.000902236792 [Eh]
    Disp20              =    -0.006117484826 [Eh]
    Disp20 (SS)         =    -0.003058742413 [Eh]
    Disp20 (OS)         =    -0.003058742413 [Eh]
    Exch-Disp20         =     0.000544310881 [Eh]
    Exch-Disp20 (SS)    =     0.000353944775 [Eh]
    Exch-Disp20 (OS)    =     0.000190366105 [Eh]

    SAPT Results 
  --------------------------------------------------------------------------------------------------------
    Electrostatics                 -2.02599363 [mEh]      -1.27133020 [kcal/mol]      -5.31924554 [kJ/mol]
      Elst10,r                     -2.02599363 [mEh]      -1.27133020 [kcal/mol]      -5.31924554 [kJ/mol]

    Exchange                        4.94075307 [mEh]       3.10036936 [kcal/mol]      12.97194541 [kJ/mol]
      Exch10                        4.94075307 [mEh]       3.10036936 [kcal/mol]      12.97194541 [kJ/mol]
      Exch10(S^2)                   4.93154615 [mEh]       3.09459193 [kcal/mol]      12.94777263 [kJ/mol]

    Induction                      -0.91328862 [mEh]      -0.57309726 [kcal/mol]      -2.39783895 [kJ/mol]
      Ind20,r                      -1.50102495 [mEh]      -0.94190737 [kcal/mol]      -3.94094046 [kJ/mol]
      Exch-Ind20,r                  0.90223679 [mEh]       0.56616213 [kcal/mol]       2.36882237 [kJ/mol]
      delta HF,r (2)               -0.31450047 [mEh]      -0.19735202 [kcal/mol]      -0.82572087 [kJ/mol]

    Dispersion                     -5.57317395 [mEh]      -3.49721945 [kcal/mol]     -14.63236618 [kJ/mol]
      Disp20                       -6.11748483 [mEh]      -3.83877968 [kcal/mol]     -16.06145420 [kJ/mol]
      Exch-Disp20                   0.54431088 [mEh]       0.34156023 [kcal/mol]       1.42908802 [kJ/mol]
      Disp20 (SS)                  -3.05874241 [mEh]      -1.91938984 [kcal/mol]      -8.03072710 [kJ/mol]
      Disp20 (OS)                  -3.05874241 [mEh]      -1.91938984 [kcal/mol]      -8.03072710 [kJ/mol]
      Exch-Disp20 (SS)              0.35394478 [mEh]       0.22210370 [kcal/mol]       0.92928188 [kJ/mol]
      Exch-Disp20 (OS)              0.19036611 [mEh]       0.11945653 [kcal/mol]       0.49980614 [kJ/mol]

  Total HF                          2.00147082 [mEh]       1.25594190 [kcal/mol]       5.25486092 [kJ/mol]
  Total SAPT0                      -3.57170312 [mEh]      -2.24127755 [kcal/mol]      -9.37750526 [kJ/mol]

  Special recipe for scaled SAPT0 (see Manual):
    Electrostatics sSAPT0          -2.02599363 [mEh]      -1.27133020 [kcal/mol]      -5.31924554 [kJ/mol]
    Exchange sSAPT0                 4.94075307 [mEh]       3.10036936 [kcal/mol]      12.97194541 [kJ/mol]
    Induction sSAPT0               -0.90822591 [mEh]      -0.56992036 [kcal/mol]      -2.38454679 [kJ/mol]
    Dispersion sSAPT0              -5.57011966 [mEh]      -3.49530285 [kcal/mol]     -14.62434714 [kJ/mol]
  Total sSAPT0                     -3.56358611 [mEh]      -2.23618405 [kcal/mol]      -9.35619406 [kJ/mol]
  --------------------------------------------------------------------------------------------------------

*** tstop() called on r282 at Sat Sep 11 02:04:28 2021
Module time:
	user time   =      38.64 seconds =       0.64 minutes
	system time =       8.00 seconds =       0.13 minutes
	total time  =         47 seconds =       0.78 minutes
Total time:
	user time   =      89.07 seconds =       1.48 minutes
	system time =       9.41 seconds =       0.16 minutes
	total time  =         99 seconds =       1.65 minutes

    Psi4 stopped on: Saturday, 11 September 2021 02:04AM
    Psi4 wall time for execution: 0:01:38.71

*** Psi4 exiting successfully. Buy a developer a beer!
