
    -----------------------------------------------------------------------
          Psi4: An Open-Source Ab Initio Electronic Structure Package
                               Psi4 1.3.2 release

                         Git: Rev {HEAD} ecbda83 


    R. M. Parrish, L. A. Burns, D. G. A. Smith, A. C. Simmonett,
    A. E. DePrince III, E. G. Hohenstein, U. Bozkaya, A. Yu. Sokolov,
    R. Di Remigio, R. M. Richard, J. F. Gonthier, A. M. James,
    H. R. McAlexander, A. Kumar, M. Saitow, X. Wang, B. P. Pritchard,
    P. Verma, H. F. Schaefer III, K. Patkowski, R. A. King, E. F. Valeev,
    F. A. Evangelista, J. M. Turney, T. D. Crawford, and C. D. Sherrill,
    J. Chem. Theory Comput. 13(7) pp 3185--3197 (2017).
    (doi: 10.1021/acs.jctc.7b00174)


                         Additional Contributions by
    P. Kraus, H. Kruse, M. H. Lechner, M. C. Schieber, R. A. Shaw,
    A. Alenaizan, R. Galvelis, Z. L. Glick, S. Lehtola, and J. P. Misiewicz

    -----------------------------------------------------------------------


    Psi4 started on: Saturday, 11 September 2021 02:00AM

    Process ID: 57481
    Host:       r282
    PSIDATADIR: /home/r08543048/miniconda3/share/psi4
    Memory:     500.0 MiB
    Threads:    1
    
  ==> Input File <==

--------------------------------------------------------------------------
# Any line starting with the # character is a comment line
#! Sample  computation

memory 22 gb

molecule Dimer {
0 1
 C  0.613201    0.772942   -0.734711
 C  0.779820   -0.445218    0.152392
 O  0.618929   -0.421219    1.364429
 N  1.138383   -1.586206   -0.507272
 H  1.167686   -2.445450    0.013941
 H  1.159205   -1.624909   -1.509453
 C  0.331119    2.032051    0.065810
 H  1.146445    2.239755    0.755481
 H  0.209421    2.886002   -0.598771
 H -0.575248    1.915196    0.655462
 H  1.517015    0.884914   -1.338028
 H -0.202855    0.566200   -1.431876




    
    
 --
0 1
 C   -2.768086   -0.410382   -0.080726
 H   -3.742627   -0.736104    0.272502
 H   -2.413087   -1.102662   -0.840303
 H   -2.856162    0.584905   -0.509066
 H   -2.066242   -0.391006    0.748994
   
   
   
   
   
   
   
   
   





units angstrom

no_reorient
symmetry c1
}

set globals{
  basis jun-cc-pvtz
}

energy('sapt0')


--------------------------------------------------------------------------

  Memory set to  20.489 GiB by Python driver.

  //>>>>>>>>>>>>>>>>>>>>>>>>>>>>>>>>>>>//
  //              Dimer HF             //
  //<<<<<<<<<<<<<<<<<<<<<<<<<<<<<<<<<<<//


*** tstart() called on r282
*** at Sat Sep 11 02:00:23 2021

   => Loading Basis Set <=

    Name: JUN-CC-PVTZ
    Role: ORBITAL
    Keyword: BASIS
    atoms 1-2, 7, 13       entry C          line   217 file /home/r08543048/miniconda3/share/psi4/basis/jun-cc-pvtz.gbs 
    atoms 3                entry O          line   305 file /home/r08543048/miniconda3/share/psi4/basis/jun-cc-pvtz.gbs 
    atoms 4                entry N          line   261 file /home/r08543048/miniconda3/share/psi4/basis/jun-cc-pvtz.gbs 
    atoms 5-6, 8-12, 14-17 entry H          line    36 file /home/r08543048/miniconda3/share/psi4/basis/jun-cc-pvtz.gbs 


         ---------------------------------------------------------
                                   SCF
               by Justin Turney, Rob Parrish, Andy Simmonett
                          and Daniel G. A. Smith
                              RHF Reference
                        1 Threads,  20980 MiB Core
         ---------------------------------------------------------

  ==> Geometry <==

    Molecular point group: c1
    Full point group: C1

    Geometry (in Angstrom), charge = 0, multiplicity = 1:

       Center              X                  Y                   Z               Mass       
    ------------   -----------------  -----------------  -----------------  -----------------
         C            0.539061028359     0.803899681452    -0.776727871184    12.000000000000
         C            0.705680028359    -0.414260318548     0.110375128816    12.000000000000
         O            0.544789028359    -0.390261318548     1.322412128816    15.994914619570
         N            1.064243028359    -1.555248318548    -0.549288871184    14.003074004430
         H            1.093546028359    -2.414492318548    -0.028075871184     1.007825032230
         H            1.085065028359    -1.593951318548    -1.551469871184     1.007825032230
         C            0.256979028359     2.063008681452     0.023793128816    12.000000000000
         H            1.072305028359     2.270712681452     0.713464128816     1.007825032230
         H            0.135281028359     2.916959681452    -0.640787871184     1.007825032230
         H           -0.649387971641     1.946153681452     0.613445128816     1.007825032230
         H            1.442875028359     0.915871681452    -1.380044871184     1.007825032230
         H           -0.276994971641     0.597157681452    -1.473892871184     1.007825032230
         C           -2.842225971641    -0.379424318548    -0.122742871184    12.000000000000
         H           -3.816766971641    -0.705146318548     0.230485128816     1.007825032230
         H           -2.487226971641    -1.071704318548    -0.882319871184     1.007825032230
         H           -2.930301971641     0.615862681452    -0.551082871184     1.007825032230
         H           -2.140381971641    -0.360048318548     0.706977128816     1.007825032230

  Running in c1 symmetry.

  Rotational constants: A =      0.09506  B =      0.07747  C =      0.05685 [cm^-1]
  Rotational constants: A =   2849.78698  B =   2322.54054  C =   1704.23640 [MHz]
  Nuclear repulsion =  247.931656926994606

  Charge       = 0
  Multiplicity = 1
  Electrons    = 50
  Nalpha       = 25
  Nbeta        = 25

  ==> Algorithm <==

  SCF Algorithm Type is DF.
  DIIS enabled.
  MOM disabled.
  Fractional occupation disabled.
  Guess Type is SAD.
  Energy threshold   = 1.00e-08
  Density threshold  = 1.00e-08
  Integral threshold = 0.00e+00

  ==> Primary Basis <==

  Basis Set: JUN-CC-PVTZ
    Blend: JUN-CC-PVTZ
    Number of shells: 144
    Number of basis function: 388
    Number of Cartesian functions: 435
    Spherical Harmonics?: true
    Max angular momentum: 3

   => Loading Basis Set <=

    Name: (JUN-CC-PVTZ AUX)
    Role: JKFIT
    Keyword: DF_BASIS_SCF
    atoms 1-2, 7, 13       entry C          line   152 file /home/r08543048/miniconda3/share/psi4/basis/jun-cc-pvtz-jkfit.gbs 
    atoms 3                entry O          line   272 file /home/r08543048/miniconda3/share/psi4/basis/jun-cc-pvtz-jkfit.gbs 
    atoms 4                entry N          line   212 file /home/r08543048/miniconda3/share/psi4/basis/jun-cc-pvtz-jkfit.gbs 
    atoms 5-6, 8-12, 14-17 entry H          line    70 file /home/r08543048/miniconda3/share/psi4/basis/jun-cc-pvtz-jkfit.gbs 

  ==> Pre-Iterations <==

   -------------------------------------------------------
    Irrep   Nso     Nmo     Nalpha   Nbeta   Ndocc  Nsocc
   -------------------------------------------------------
     A        388     388       0       0       0       0
   -------------------------------------------------------
    Total     388     388      25      25      25       0
   -------------------------------------------------------

  ==> Integral Setup <==

  ==> DiskDFJK: Density-Fitted J/K Matrices <==

    J tasked:                  Yes
    K tasked:                  Yes
    wK tasked:                  No
    OpenMP threads:              1
    Integrals threads:           1
    Memory [MiB]:            15735
    Algorithm:                Core
    Integral Cache:           SAVE
    Schwarz Cutoff:          1E-12
    Fitting Condition:       1E-10

   => Auxiliary Basis Set <=

  Basis Set: (JUN-CC-PVTZ AUX)
    Blend: JUN-CC-PVTZ-JKFIT
    Number of shells: 284
    Number of basis function: 900
    Number of Cartesian functions: 1081
    Spherical Harmonics?: true
    Max angular momentum: 4

  Minimum eigenvalue in the overlap matrix is 3.3049612473E-05.
  Using Symmetric Orthogonalization.

  SCF Guess: Superposition of Atomic Densities via on-the-fly atomic UHF.

  ==> Iterations <==

                           Total Energy        Delta E     RMS |[F,P]|

   @DF-RHF iter SAD:  -286.04749901435633   -2.86047e+02   0.00000e+00 
   @DF-RHF iter   1:  -287.04029320944392   -9.92794e-01   1.89908e-03 DIIS
   @DF-RHF iter   2:  -287.25942209899711   -2.19129e-01   1.02069e-03 DIIS
   @DF-RHF iter   3:  -287.31775836884731   -5.83363e-02   2.11728e-04 DIIS
   @DF-RHF iter   4:  -287.32156418614608   -3.80582e-03   9.56920e-05 DIIS
   @DF-RHF iter   5:  -287.32239567852844   -8.31492e-04   1.41644e-05 DIIS
   @DF-RHF iter   6:  -287.32243572785745   -4.00493e-05   5.75648e-06 DIIS
   @DF-RHF iter   7:  -287.32244080350910   -5.07565e-06   2.40024e-06 DIIS
   @DF-RHF iter   8:  -287.32244203359687   -1.23009e-06   9.17530e-07 DIIS
   @DF-RHF iter   9:  -287.32244223349670   -1.99900e-07   2.40748e-07 DIIS
   @DF-RHF iter  10:  -287.32244224480337   -1.13067e-08   7.32275e-08 DIIS
   @DF-RHF iter  11:  -287.32244224573043   -9.27059e-10   1.98230e-08 DIIS
   @DF-RHF iter  12:  -287.32244224580381   -7.33849e-11   4.28730e-09 DIIS
  Energy and wave function converged.


  ==> Post-Iterations <==

    Orbital Energies [Eh]
    ---------------------

    Doubly Occupied:                                                      

       1A    -20.518312     2A    -15.583521     3A    -11.350347  
       4A    -11.240728     5A    -11.213976     6A    -11.201743  
       7A     -1.377686     8A     -1.210975     9A     -1.052225  
      10A     -0.941352    11A     -0.893808    12A     -0.781259  
      13A     -0.719549    14A     -0.671779    15A     -0.640102  
      16A     -0.600995    17A     -0.555141    18A     -0.543498  
      19A     -0.542281    20A     -0.537506    21A     -0.526740  
      22A     -0.516410    23A     -0.493259    24A     -0.424106  
      25A     -0.414483  

    Virtual:                                                              

      26A      0.042115    27A      0.055054    28A      0.062954  
      29A      0.063369    30A      0.086379    31A      0.092943  
      32A      0.093598    33A      0.098162    34A      0.099261  
      35A      0.120619    36A      0.124447    37A      0.127137  
      38A      0.132902    39A      0.147958    40A      0.167525  
      41A      0.180167    42A      0.188554    43A      0.190925  
      44A      0.197434    45A      0.204742    46A      0.231919  
      47A      0.242926    48A      0.256624    49A      0.264952  
      50A      0.267318    51A      0.270272    52A      0.279969  
      53A      0.288565    54A      0.293117    55A      0.300425  
      56A      0.303287    57A      0.313816    58A      0.325447  
      59A      0.326608    60A      0.330319    61A      0.342993  
      62A      0.345137    63A      0.354705    64A      0.358988  
      65A      0.375266    66A      0.382007    67A      0.387673  
      68A      0.399735    69A      0.416594    70A      0.422816  
      71A      0.431446    72A      0.436853    73A      0.449234  
      74A      0.457074    75A      0.474441    76A      0.495774  
      77A      0.508811    78A      0.519344    79A      0.528216  
      80A      0.532925    81A      0.534532    82A      0.544829  
      83A      0.582322    84A      0.593548    85A      0.599716  
      86A      0.618006    87A      0.625489    88A      0.637828  
      89A      0.642881    90A      0.649059    91A      0.679316  
      92A      0.686685    93A      0.692110    94A      0.707006  
      95A      0.713283    96A      0.723599    97A      0.730079  
      98A      0.760170    99A      0.766042   100A      0.772985  
     101A      0.780595   102A      0.791417   103A      0.802397  
     104A      0.818511   105A      0.823181   106A      0.831678  
     107A      0.841472   108A      0.859984   109A      0.865490  
     110A      0.882279   111A      0.890548   112A      0.894190  
     113A      0.924230   114A      0.937376   115A      0.945301  
     116A      0.948119   117A      0.961996   118A      0.972993  
     119A      1.005949   120A      1.018576   121A      1.031402  
     122A      1.044981   123A      1.068188   124A      1.102245  
     125A      1.108318   126A      1.113317   127A      1.131081  
     128A      1.146435   129A      1.160111   130A      1.161595  
     131A      1.172123   132A      1.192529   133A      1.196645  
     134A      1.224584   135A      1.243229   136A      1.270323  
     137A      1.285533   138A      1.311377   139A      1.317209  
     140A      1.330530   141A      1.342749   142A      1.346505  
     143A      1.373888   144A      1.378760   145A      1.390045  
     146A      1.399059   147A      1.418081   148A      1.428074  
     149A      1.442700   150A      1.448602   151A      1.455648  
     152A      1.476336   153A      1.499976   154A      1.505904  
     155A      1.520501   156A      1.535906   157A      1.544177  
     158A      1.556419   159A      1.566642   160A      1.592318  
     161A      1.613634   162A      1.624087   163A      1.630113  
     164A      1.637483   165A      1.663704   166A      1.675468  
     167A      1.685896   168A      1.699821   169A      1.709566  
     170A      1.740148   171A      1.746453   172A      1.757570  
     173A      1.780295   174A      1.821372   175A      1.854407  
     176A      1.861538   177A      1.895500   178A      1.909636  
     179A      1.934403   180A      1.949423   181A      1.951795  
     182A      1.966640   183A      2.069202   184A      2.091346  
     185A      2.187232   186A      2.241177   187A      2.277241  
     188A      2.377796   189A      2.430350   190A      2.478512  
     191A      2.519665   192A      2.687364   193A      2.736896  
     194A      2.749985   195A      2.771222   196A      2.782430  
     197A      2.787722   198A      2.798041   199A      2.832752  
     200A      2.857804   201A      2.906350   202A      2.930079  
     203A      2.956488   204A      2.968846   205A      3.001587  
     206A      3.027002   207A      3.032090   208A      3.077501  
     209A      3.084564   210A      3.103419   211A      3.120170  
     212A      3.137231   213A      3.148494   214A      3.154218  
     215A      3.164233   216A      3.179823   217A      3.196405  
     218A      3.223394   219A      3.241759   220A      3.260774  
     221A      3.267027   222A      3.293320   223A      3.308621  
     224A      3.319036   225A      3.336258   226A      3.365420  
     227A      3.373663   228A      3.379770   229A      3.390887  
     230A      3.407133   231A      3.417752   232A      3.420950  
     233A      3.448663   234A      3.451438   235A      3.460940  
     236A      3.465590   237A      3.497572   238A      3.510530  
     239A      3.517790   240A      3.547388   241A      3.573700  
     242A      3.580829   243A      3.602356   244A      3.618945  
     245A      3.625175   246A      3.630457   247A      3.640478  
     248A      3.664070   249A      3.685003   250A      3.698184  
     251A      3.731016   252A      3.731937   253A      3.778615  
     254A      3.782286   255A      3.788636   256A      3.793120  
     257A      3.810309   258A      3.821381   259A      3.829714  
     260A      3.850712   261A      3.859355   262A      3.882823  
     263A      3.900558   264A      3.929205   265A      3.935292  
     266A      3.955116   267A      3.973885   268A      3.990592  
     269A      4.027046   270A      4.039008   271A      4.060710  
     272A      4.083615   273A      4.145206   274A      4.166731  
     275A      4.170818   276A      4.201816   277A      4.209588  
     278A      4.228894   279A      4.244117   280A      4.255428  
     281A      4.261874   282A      4.271492   283A      4.305815  
     284A      4.328123   285A      4.337047   286A      4.360995  
     287A      4.383646   288A      4.387424   289A      4.393768  
     290A      4.398911   291A      4.415796   292A      4.429500  
     293A      4.437958   294A      4.445420   295A      4.463849  
     296A      4.468730   297A      4.497689   298A      4.515637  
     299A      4.521327   300A      4.556796   301A      4.559602  
     302A      4.577033   303A      4.602347   304A      4.610231  
     305A      4.629175   306A      4.632209   307A      4.665211  
     308A      4.693798   309A      4.700066   310A      4.730310  
     311A      4.751499   312A      4.834393   313A      4.840653  
     314A      4.849003   315A      4.906752   316A      4.929610  
     317A      4.957801   318A      5.008220   319A      5.045792  
     320A      5.100585   321A      5.101550   322A      5.117281  
     323A      5.126061   324A      5.151903   325A      5.164430  
     326A      5.222703   327A      5.255700   328A      5.260990  
     329A      5.286619   330A      5.307060   331A      5.323457  
     332A      5.380872   333A      5.391709   334A      5.427948  
     335A      5.470522   336A      5.508716   337A      5.513822  
     338A      5.527759   339A      5.532724   340A      5.598616  
     341A      5.621698   342A      5.651852   343A      5.665105  
     344A      5.688318   345A      5.696325   346A      5.697717  
     347A      5.720862   348A      5.739578   349A      5.745191  
     350A      5.751931   351A      5.760274   352A      5.762504  
     353A      5.804753   354A      5.846171   355A      5.877727  
     356A      5.912973   357A      5.931808   358A      5.997386  
     359A      6.028969   360A      6.074151   361A      6.104391  
     362A      6.199888   363A      6.241248   364A      6.333299  
     365A      6.355198   366A      6.382831   367A      6.391929  
     368A      6.493363   369A      6.509791   370A      6.534563  
     371A      6.565697   372A      6.683492   373A      6.781166  
     374A      6.850678   375A      7.201921   376A      7.272760  
     377A      7.345830   378A      7.448913   379A      7.461768  
     380A      7.498780   381A      7.752189   382A      7.790035  
     383A     11.977543   384A     14.050102   385A     14.274742  
     386A     14.715564   387A     15.200742   388A     15.453691  

    Final Occupation by Irrep:
              A 
    DOCC [    25 ]

  @DF-RHF Final Energy:  -287.32244224580381

   => Energetics <=

    Nuclear Repulsion Energy =            247.9316569269946058
    One-Electron Energy =                -881.4046369221584882
    Two-Electron Energy =                 346.1505377493600690
    Total Energy =                       -287.3224422458038134

Computation Completed


Properties will be evaluated at   0.000000,   0.000000,   0.000000 [a0]

Properties computed using the SCF density matrix

  Nuclear Dipole Moment: [e a0]
     X:    -7.0052      Y:     2.9251      Z:    -3.9700

  Electronic Dipole Moment: [e a0]
     X:     7.1424      Y:    -3.1892      Z:     2.4582

  Dipole Moment: [e a0]
     X:     0.1372      Y:    -0.2641      Z:    -1.5119     Total:     1.5409

  Dipole Moment: [D]
     X:     0.3488      Y:    -0.6713      Z:    -3.8427     Total:     3.9165


*** tstop() called on r282 at Sat Sep 11 02:00:50 2021
Module time:
	user time   =      25.55 seconds =       0.43 minutes
	system time =       0.78 seconds =       0.01 minutes
	total time  =         27 seconds =       0.45 minutes
Total time:
	user time   =      25.55 seconds =       0.43 minutes
	system time =       0.78 seconds =       0.01 minutes
	total time  =         27 seconds =       0.45 minutes

  //>>>>>>>>>>>>>>>>>>>>>>>>>>>>>>>>>>>//
  //            Monomer A HF           //
  //<<<<<<<<<<<<<<<<<<<<<<<<<<<<<<<<<<<//


*** tstart() called on r282
*** at Sat Sep 11 02:00:50 2021

   => Loading Basis Set <=

    Name: JUN-CC-PVTZ
    Role: ORBITAL
    Keyword: BASIS
    atoms 1-2, 7, 13       entry C          line   217 file /home/r08543048/miniconda3/share/psi4/basis/jun-cc-pvtz.gbs 
    atoms 3                entry O          line   305 file /home/r08543048/miniconda3/share/psi4/basis/jun-cc-pvtz.gbs 
    atoms 4                entry N          line   261 file /home/r08543048/miniconda3/share/psi4/basis/jun-cc-pvtz.gbs 
    atoms 5-6, 8-12, 14-17 entry H          line    36 file /home/r08543048/miniconda3/share/psi4/basis/jun-cc-pvtz.gbs 


         ---------------------------------------------------------
                                   SCF
               by Justin Turney, Rob Parrish, Andy Simmonett
                          and Daniel G. A. Smith
                              RHF Reference
                        1 Threads,  20980 MiB Core
         ---------------------------------------------------------

  ==> Geometry <==

    Molecular point group: c1
    Full point group: C1

    Geometry (in Angstrom), charge = 0, multiplicity = 1:

       Center              X                  Y                   Z               Mass       
    ------------   -----------------  -----------------  -----------------  -----------------
         C            0.539061028359     0.803899681452    -0.776727871184    12.000000000000
         C            0.705680028359    -0.414260318548     0.110375128816    12.000000000000
         O            0.544789028359    -0.390261318548     1.322412128816    15.994914619570
         N            1.064243028359    -1.555248318548    -0.549288871184    14.003074004430
         H            1.093546028359    -2.414492318548    -0.028075871184     1.007825032230
         H            1.085065028359    -1.593951318548    -1.551469871184     1.007825032230
         C            0.256979028359     2.063008681452     0.023793128816    12.000000000000
         H            1.072305028359     2.270712681452     0.713464128816     1.007825032230
         H            0.135281028359     2.916959681452    -0.640787871184     1.007825032230
         H           -0.649387971641     1.946153681452     0.613445128816     1.007825032230
         H            1.442875028359     0.915871681452    -1.380044871184     1.007825032230
         H           -0.276994971641     0.597157681452    -1.473892871184     1.007825032230
      Gh(C)          -2.842225971641    -0.379424318548    -0.122742871184    12.000000000000
      Gh(H)          -3.816766971641    -0.705146318548     0.230485128816     1.007825032230
      Gh(H)          -2.487226971641    -1.071704318548    -0.882319871184     1.007825032230
      Gh(H)          -2.930301971641     0.615862681452    -0.551082871184     1.007825032230
      Gh(H)          -2.140381971641    -0.360048318548     0.706977128816     1.007825032230

  Running in c1 symmetry.

  Rotational constants: A =      0.09506  B =      0.07747  C =      0.05685 [cm^-1]
  Rotational constants: A =   2849.78698  B =   2322.54054  C =   1704.23640 [MHz]
  Nuclear repulsion =  179.158955426880880

  Charge       = 0
  Multiplicity = 1
  Electrons    = 40
  Nalpha       = 20
  Nbeta        = 20

  ==> Algorithm <==

  SCF Algorithm Type is DF.
  DIIS enabled.
  MOM disabled.
  Fractional occupation disabled.
  Guess Type is SAD.
  Energy threshold   = 1.00e-08
  Density threshold  = 1.00e-08
  Integral threshold = 0.00e+00

  ==> Primary Basis <==

  Basis Set: JUN-CC-PVTZ
    Blend: JUN-CC-PVTZ
    Number of shells: 144
    Number of basis function: 388
    Number of Cartesian functions: 435
    Spherical Harmonics?: true
    Max angular momentum: 3

   => Loading Basis Set <=

    Name: (JUN-CC-PVTZ AUX)
    Role: JKFIT
    Keyword: DF_BASIS_SCF
    atoms 1-2, 7, 13       entry C          line   152 file /home/r08543048/miniconda3/share/psi4/basis/jun-cc-pvtz-jkfit.gbs 
    atoms 3                entry O          line   272 file /home/r08543048/miniconda3/share/psi4/basis/jun-cc-pvtz-jkfit.gbs 
    atoms 4                entry N          line   212 file /home/r08543048/miniconda3/share/psi4/basis/jun-cc-pvtz-jkfit.gbs 
    atoms 5-6, 8-12, 14-17 entry H          line    70 file /home/r08543048/miniconda3/share/psi4/basis/jun-cc-pvtz-jkfit.gbs 

  ==> Pre-Iterations <==

   -------------------------------------------------------
    Irrep   Nso     Nmo     Nalpha   Nbeta   Ndocc  Nsocc
   -------------------------------------------------------
     A        388     388       0       0       0       0
   -------------------------------------------------------
    Total     388     388      20      20      20       0
   -------------------------------------------------------

  ==> Integral Setup <==

  ==> DiskDFJK: Density-Fitted J/K Matrices <==

    J tasked:                  Yes
    K tasked:                  Yes
    wK tasked:                  No
    OpenMP threads:              1
    Integrals threads:           1
    Memory [MiB]:            15735
    Algorithm:                Core
    Integral Cache:           LOAD
    Schwarz Cutoff:          1E-12
    Fitting Condition:       1E-10

   => Auxiliary Basis Set <=

  Basis Set: (JUN-CC-PVTZ AUX)
    Blend: JUN-CC-PVTZ-JKFIT
    Number of shells: 284
    Number of basis function: 900
    Number of Cartesian functions: 1081
    Spherical Harmonics?: true
    Max angular momentum: 4

  Minimum eigenvalue in the overlap matrix is 3.3049612473E-05.
  Using Symmetric Orthogonalization.

  SCF Guess: Superposition of Atomic Densities via on-the-fly atomic UHF.

  ==> Iterations <==

                           Total Energy        Delta E     RMS |[F,P]|

   @DF-RHF iter SAD:  -246.30304491059255   -2.46303e+02   0.00000e+00 
   @DF-RHF iter   1:  -246.89407228069638   -5.91027e-01   1.68939e-03 DIIS
   @DF-RHF iter   2:  -247.05645582490635   -1.62384e-01   9.68595e-04 DIIS
   @DF-RHF iter   3:  -247.10658394026598   -5.01281e-02   1.88704e-04 DIIS
   @DF-RHF iter   4:  -247.10958813460235   -3.00419e-03   8.35376e-05 DIIS
   @DF-RHF iter   5:  -247.11023417791984   -6.46043e-04   1.32762e-05 DIIS
   @DF-RHF iter   6:  -247.11027243991592   -3.82620e-05   5.47088e-06 DIIS
   @DF-RHF iter   7:  -247.11027741574588   -4.97583e-06   2.39742e-06 DIIS
   @DF-RHF iter   8:  -247.11027856241748   -1.14667e-06   9.01579e-07 DIIS
   @DF-RHF iter   9:  -247.11027875389232   -1.91475e-07   1.93722e-07 DIIS
   @DF-RHF iter  10:  -247.11027876314154   -9.24922e-09   4.39528e-08 DIIS
   @DF-RHF iter  11:  -247.11027876346429   -3.22757e-10   1.27348e-08 DIIS
   @DF-RHF iter  12:  -247.11027876349215   -2.78533e-11   3.91897e-09 DIIS
  Energy and wave function converged.


  ==> Post-Iterations <==

    Orbital Energies [Eh]
    ---------------------

    Doubly Occupied:                                                      

       1A    -20.518278     2A    -15.583335     3A    -11.350070  
       4A    -11.241684     5A    -11.214467     6A     -1.377085  
       7A     -1.210765     8A     -1.052601     9A     -0.894059  
      10A     -0.781201    11A     -0.719518    12A     -0.671619  
      13A     -0.639429    14A     -0.600491    15A     -0.549990  
      16A     -0.527092    17A     -0.517081    18A     -0.494421  
      19A     -0.423816    20A     -0.414112  

    Virtual:                                                              

      21A      0.037496    22A      0.051768    23A      0.054156  
      24A      0.062391    25A      0.082261    26A      0.086383  
      27A      0.088376    28A      0.096495    29A      0.098593  
      30A      0.112003    31A      0.121126    32A      0.125856  
      33A      0.131336    34A      0.147281    35A      0.158691  
      36A      0.180548    37A      0.186606    38A      0.192522  
      39A      0.195054    40A      0.200673    41A      0.220191  
      42A      0.239367    43A      0.243410    44A      0.256596  
      45A      0.261481    46A      0.266298    47A      0.270630  
      48A      0.278139    49A      0.283287    50A      0.299221  
      51A      0.304624    52A      0.313821    53A      0.316196  
      54A      0.319244    55A      0.338152    56A      0.342060  
      57A      0.348959    58A      0.352490    59A      0.372600  
      60A      0.389407    61A      0.391139    62A      0.403472  
      63A      0.405159    64A      0.423522    65A      0.425463  
      66A      0.441435    67A      0.451064    68A      0.452228  
      69A      0.460319    70A      0.486586    71A      0.489625  
      72A      0.498076    73A      0.515706    74A      0.526339  
      75A      0.530807    76A      0.534292    77A      0.547466  
      78A      0.558143    79A      0.571562    80A      0.585796  
      81A      0.596311    82A      0.599595    83A      0.613487  
      84A      0.624612    85A      0.628132    86A      0.643426  
      87A      0.648820    88A      0.655964    89A      0.663469  
      90A      0.711119    91A      0.734928    92A      0.743318  
      93A      0.763421    94A      0.770726    95A      0.780945  
      96A      0.792807    97A      0.810994    98A      0.823154  
      99A      0.835299   100A      0.850063   101A      0.865695  
     102A      0.871722   103A      0.886580   104A      0.893561  
     105A      0.921085   106A      0.931772   107A      0.949111  
     108A      0.955407   109A      0.981295   110A      0.989017  
     111A      0.998413   112A      1.022343   113A      1.029305  
     114A      1.049040   115A      1.059515   116A      1.081712  
     117A      1.098278   118A      1.115577   119A      1.125597  
     120A      1.129294   121A      1.143688   122A      1.155703  
     123A      1.164093   124A      1.176664   125A      1.190853  
     126A      1.211920   127A      1.218902   128A      1.241230  
     129A      1.243764   130A      1.250538   131A      1.270165  
     132A      1.279710   133A      1.305631   134A      1.321898  
     135A      1.332694   136A      1.342119   137A      1.354918  
     138A      1.373539   139A      1.375416   140A      1.395210  
     141A      1.407719   142A      1.419540   143A      1.425870  
     144A      1.439884   145A      1.446519   146A      1.451846  
     147A      1.469983   148A      1.494581   149A      1.512960  
     150A      1.529764   151A      1.542253   152A      1.551447  
     153A      1.565865   154A      1.570205   155A      1.600860  
     156A      1.607984   157A      1.615300   158A      1.620341  
     159A      1.635756   160A      1.649251   161A      1.657316  
     162A      1.685396   163A      1.699242   164A      1.715930  
     165A      1.730454   166A      1.769065   167A      1.783276  
     168A      1.816995   169A      1.844549   170A      1.857826  
     171A      1.874139   172A      1.884034   173A      1.906247  
     174A      1.909339   175A      1.946131   176A      1.954230  
     177A      1.961644   178A      2.068593   179A      2.090663  
     180A      2.185802   181A      2.234999   182A      2.275543  
     183A      2.290683   184A      2.297690   185A      2.334521  
     186A      2.359460   187A      2.387312   188A      2.459476  
     189A      2.489463   190A      2.527043   191A      2.727208  
     192A      2.756892   193A      2.775181   194A      2.828217  
     195A      2.837418   196A      2.910151   197A      2.924309  
     198A      2.958403   199A      2.970748   200A      2.996465  
     201A      3.032579   202A      3.038130   203A      3.102932  
     204A      3.130539   205A      3.142506   206A      3.154259  
     207A      3.189102   208A      3.223323   209A      3.279640  
     210A      3.306990   211A      3.309419   212A      3.332804  
     213A      3.360036   214A      3.388075   215A      3.393265  
     216A      3.406057   217A      3.416835   218A      3.434253  
     219A      3.445692   220A      3.459519   221A      3.460786  
     222A      3.497413   223A      3.511495   224A      3.515839  
     225A      3.536293   226A      3.549031   227A      3.567523  
     228A      3.573927   229A      3.591802   230A      3.601301  
     231A      3.606994   232A      3.616517   233A      3.625194  
     234A      3.629920   235A      3.640321   236A      3.641295  
     237A      3.672006   238A      3.674931   239A      3.695072  
     240A      3.731768   241A      3.778390   242A      3.790017  
     243A      3.803054   244A      3.831605   245A      3.840926  
     246A      3.856802   247A      3.865701   248A      3.887115  
     249A      3.912636   250A      3.930931   251A      3.948349  
     252A      3.969855   253A      3.979102   254A      4.004713  
     255A      4.031845   256A      4.041293   257A      4.051228  
     258A      4.070835   259A      4.097645   260A      4.125109  
     261A      4.137037   262A      4.164368   263A      4.166459  
     264A      4.175686   265A      4.210880   266A      4.227421  
     267A      4.248143   268A      4.255401   269A      4.270653  
     270A      4.302812   271A      4.330350   272A      4.335446  
     273A      4.346445   274A      4.351436   275A      4.368163  
     276A      4.377037   277A      4.385864   278A      4.398507  
     279A      4.413501   280A      4.423462   281A      4.444399  
     282A      4.445797   283A      4.465671   284A      4.472919  
     285A      4.489138   286A      4.515691   287A      4.563145  
     288A      4.587182   289A      4.600093   290A      4.626483  
     291A      4.636892   292A      4.658000   293A      4.671765  
     294A      4.685018   295A      4.696251   296A      4.708418  
     297A      4.717510   298A      4.731330   299A      4.751627  
     300A      4.769386   301A      4.799442   302A      4.816195  
     303A      4.834864   304A      4.836318   305A      4.869247  
     306A      4.871338   307A      4.882181   308A      4.906390  
     309A      4.943103   310A      4.957122   311A      4.974367  
     312A      5.009266   313A      5.035370   314A      5.068506  
     315A      5.107123   316A      5.130096   317A      5.154384  
     318A      5.164869   319A      5.220691   320A      5.241973  
     321A      5.245924   322A      5.249431   323A      5.263914  
     324A      5.266181   325A      5.287998   326A      5.308629  
     327A      5.325259   328A      5.384688   329A      5.395146  
     330A      5.429642   331A      5.473663   332A      5.513398  
     333A      5.602247   334A      5.654253   335A      5.666606  
     336A      5.696635   337A      5.746153   338A      5.748376  
     339A      5.759911   340A      5.800884   341A      5.844417  
     342A      5.874929   343A      5.912553   344A      5.930733  
     345A      5.996865   346A      6.017822   347A      6.028174  
     348A      6.034343   349A      6.039509   350A      6.073624  
     351A      6.104161   352A      6.173451   353A      6.192739  
     354A      6.201266   355A      6.216946   356A      6.248137  
     357A      6.356405   358A      6.360804   359A      6.364781  
     360A      6.493012   361A      6.507420   362A      6.533936  
     363A      6.562642   364A      6.603605   365A      6.683578  
     366A      6.780716   367A      6.850924   368A      7.201897  
     369A      7.271689   370A      7.343223   371A      7.408639  
     372A      7.432752   373A      7.443256   374A      7.463847  
     375A      7.507161   376A      7.525893   377A      7.753096  
     378A      7.790574   379A      7.799907   380A      7.803656  
     381A      7.817817   382A     10.076577   383A     11.978869  
     384A     14.053214   385A     14.276497   386A     14.715528  
     387A     15.430190   388A     46.718821  

    Final Occupation by Irrep:
              A 
    DOCC [    20 ]

  @DF-RHF Final Energy:  -247.11027876349215

   => Energetics <=

    Nuclear Repulsion Energy =            179.1589554268808797
    One-Electron Energy =                -690.9762399388297354
    Two-Electron Energy =                 264.7070057484567087
    Total Energy =                       -247.1102787634921469

Computation Completed


Properties will be evaluated at   0.000000,   0.000000,   0.000000 [a0]

Properties computed using the SCF density matrix

  Nuclear Dipole Moment: [e a0]
     X:    46.7160      Y:    10.1015      Z:    -1.6411

  Electronic Dipole Moment: [e a0]
     X:   -46.5909      Y:   -10.3561      Z:     0.0728

  Dipole Moment: [e a0]
     X:     0.1251      Y:    -0.2546      Z:    -1.5683     Total:     1.5938

  Dipole Moment: [D]
     X:     0.3180      Y:    -0.6472      Z:    -3.9863     Total:     4.0510


*** tstop() called on r282 at Sat Sep 11 02:01:04 2021
Module time:
	user time   =      13.90 seconds =       0.23 minutes
	system time =       0.43 seconds =       0.01 minutes
	total time  =         14 seconds =       0.23 minutes
Total time:
	user time   =      39.45 seconds =       0.66 minutes
	system time =       1.21 seconds =       0.02 minutes
	total time  =         41 seconds =       0.68 minutes

  //>>>>>>>>>>>>>>>>>>>>>>>>>>>>>>>>>>>//
  //            Monomer B HF           //
  //<<<<<<<<<<<<<<<<<<<<<<<<<<<<<<<<<<<//


*** tstart() called on r282
*** at Sat Sep 11 02:01:04 2021

   => Loading Basis Set <=

    Name: JUN-CC-PVTZ
    Role: ORBITAL
    Keyword: BASIS
    atoms 1-2, 7, 13       entry C          line   217 file /home/r08543048/miniconda3/share/psi4/basis/jun-cc-pvtz.gbs 
    atoms 3                entry O          line   305 file /home/r08543048/miniconda3/share/psi4/basis/jun-cc-pvtz.gbs 
    atoms 4                entry N          line   261 file /home/r08543048/miniconda3/share/psi4/basis/jun-cc-pvtz.gbs 
    atoms 5-6, 8-12, 14-17 entry H          line    36 file /home/r08543048/miniconda3/share/psi4/basis/jun-cc-pvtz.gbs 


         ---------------------------------------------------------
                                   SCF
               by Justin Turney, Rob Parrish, Andy Simmonett
                          and Daniel G. A. Smith
                              RHF Reference
                        1 Threads,  20980 MiB Core
         ---------------------------------------------------------

  ==> Geometry <==

    Molecular point group: c1
    Full point group: C1

    Geometry (in Angstrom), charge = 0, multiplicity = 1:

       Center              X                  Y                   Z               Mass       
    ------------   -----------------  -----------------  -----------------  -----------------
      Gh(C)           0.539061028359     0.803899681452    -0.776727871184    12.000000000000
      Gh(C)           0.705680028359    -0.414260318548     0.110375128816    12.000000000000
      Gh(O)           0.544789028359    -0.390261318548     1.322412128816    15.994914619570
      Gh(N)           1.064243028359    -1.555248318548    -0.549288871184    14.003074004430
      Gh(H)           1.093546028359    -2.414492318548    -0.028075871184     1.007825032230
      Gh(H)           1.085065028359    -1.593951318548    -1.551469871184     1.007825032230
      Gh(C)           0.256979028359     2.063008681452     0.023793128816    12.000000000000
      Gh(H)           1.072305028359     2.270712681452     0.713464128816     1.007825032230
      Gh(H)           0.135281028359     2.916959681452    -0.640787871184     1.007825032230
      Gh(H)          -0.649387971641     1.946153681452     0.613445128816     1.007825032230
      Gh(H)           1.442875028359     0.915871681452    -1.380044871184     1.007825032230
      Gh(H)          -0.276994971641     0.597157681452    -1.473892871184     1.007825032230
         C           -2.842225971641    -0.379424318548    -0.122742871184    12.000000000000
         H           -3.816766971641    -0.705146318548     0.230485128816     1.007825032230
         H           -2.487226971641    -1.071704318548    -0.882319871184     1.007825032230
         H           -2.930301971641     0.615862681452    -0.551082871184     1.007825032230
         H           -2.140381971641    -0.360048318548     0.706977128816     1.007825032230

  Running in c1 symmetry.

  Rotational constants: A =      0.09506  B =      0.07747  C =      0.05685 [cm^-1]
  Rotational constants: A =   2849.78698  B =   2322.54054  C =   1704.23640 [MHz]
  Nuclear repulsion =   13.472795759862366

  Charge       = 0
  Multiplicity = 1
  Electrons    = 10
  Nalpha       = 5
  Nbeta        = 5

  ==> Algorithm <==

  SCF Algorithm Type is DF.
  DIIS enabled.
  MOM disabled.
  Fractional occupation disabled.
  Guess Type is SAD.
  Energy threshold   = 1.00e-08
  Density threshold  = 1.00e-08
  Integral threshold = 0.00e+00

  ==> Primary Basis <==

  Basis Set: JUN-CC-PVTZ
    Blend: JUN-CC-PVTZ
    Number of shells: 144
    Number of basis function: 388
    Number of Cartesian functions: 435
    Spherical Harmonics?: true
    Max angular momentum: 3

   => Loading Basis Set <=

    Name: (JUN-CC-PVTZ AUX)
    Role: JKFIT
    Keyword: DF_BASIS_SCF
    atoms 1-2, 7, 13       entry C          line   152 file /home/r08543048/miniconda3/share/psi4/basis/jun-cc-pvtz-jkfit.gbs 
    atoms 3                entry O          line   272 file /home/r08543048/miniconda3/share/psi4/basis/jun-cc-pvtz-jkfit.gbs 
    atoms 4                entry N          line   212 file /home/r08543048/miniconda3/share/psi4/basis/jun-cc-pvtz-jkfit.gbs 
    atoms 5-6, 8-12, 14-17 entry H          line    70 file /home/r08543048/miniconda3/share/psi4/basis/jun-cc-pvtz-jkfit.gbs 

  ==> Pre-Iterations <==

   -------------------------------------------------------
    Irrep   Nso     Nmo     Nalpha   Nbeta   Ndocc  Nsocc
   -------------------------------------------------------
     A        388     388       0       0       0       0
   -------------------------------------------------------
    Total     388     388       5       5       5       0
   -------------------------------------------------------

  ==> Integral Setup <==

  ==> DiskDFJK: Density-Fitted J/K Matrices <==

    J tasked:                  Yes
    K tasked:                  Yes
    wK tasked:                  No
    OpenMP threads:              1
    Integrals threads:           1
    Memory [MiB]:            15735
    Algorithm:                Core
    Integral Cache:           LOAD
    Schwarz Cutoff:          1E-12
    Fitting Condition:       1E-10

   => Auxiliary Basis Set <=

  Basis Set: (JUN-CC-PVTZ AUX)
    Blend: JUN-CC-PVTZ-JKFIT
    Number of shells: 284
    Number of basis function: 900
    Number of Cartesian functions: 1081
    Spherical Harmonics?: true
    Max angular momentum: 4

  Minimum eigenvalue in the overlap matrix is 3.3049612473E-05.
  Using Symmetric Orthogonalization.

  SCF Guess: Superposition of Atomic Densities via on-the-fly atomic UHF.

  ==> Iterations <==

                           Total Energy        Delta E     RMS |[F,P]|

   @DF-RHF iter SAD:   -39.65555081455442   -3.96556e+01   0.00000e+00 
   @DF-RHF iter   1:   -40.14543254435094   -4.89882e-01   8.94801e-04 DIIS
   @DF-RHF iter   2:   -40.20266395665089   -5.72314e-02   3.71309e-04 DIIS
   @DF-RHF iter   3:   -40.21281547975589   -1.01515e-02   5.94866e-05 DIIS
   @DF-RHF iter   4:   -40.21352127329298   -7.05794e-04   7.20884e-06 DIIS
   @DF-RHF iter   5:   -40.21353091370340   -9.64041e-06   6.18436e-07 DIIS
   @DF-RHF iter   6:   -40.21353099337550   -7.96721e-08   5.00348e-08 DIIS
   @DF-RHF iter   7:   -40.21353099380946   -4.33964e-10   4.19704e-09 DIIS
  Energy and wave function converged.


  ==> Post-Iterations <==

    Orbital Energies [Eh]
    ---------------------

    Doubly Occupied:                                                      

       1A    -11.205684     2A     -0.943581     3A     -0.545943  
       4A     -0.545247     5A     -0.544620  

    Virtual:                                                              

       6A      0.031160     7A      0.048660     8A      0.052937  
       9A      0.059744    10A      0.080276    11A      0.088435  
      12A      0.090595    13A      0.091930    14A      0.094317  
      15A      0.110796    16A      0.118966    17A      0.124786  
      18A      0.133367    19A      0.139746    20A      0.144955  
      21A      0.150569    22A      0.162133    23A      0.171684  
      24A      0.197080    25A      0.207668    26A      0.210019  
      27A      0.220021    28A      0.227790    29A      0.234211  
      30A      0.257032    31A      0.269676    32A      0.275855  
      33A      0.281591    34A      0.296813    35A      0.302682  
      36A      0.313321    37A      0.323207    38A      0.329735  
      39A      0.335501    40A      0.342113    41A      0.350711  
      42A      0.352206    43A      0.356125    44A      0.361033  
      45A      0.369695    46A      0.381367    47A      0.396598  
      48A      0.399916    49A      0.420327    50A      0.422697  
      51A      0.432027    52A      0.439059    53A      0.464319  
      54A      0.466533    55A      0.477669    56A      0.490000  
      57A      0.506639    58A      0.518162    59A      0.532531  
      60A      0.538641    61A      0.547737    62A      0.568707  
      63A      0.571648    64A      0.585145    65A      0.607356  
      66A      0.612603    67A      0.629293    68A      0.643300  
      69A      0.660105    70A      0.668004    71A      0.676483  
      72A      0.678739    73A      0.684362    74A      0.704860  
      75A      0.709799    76A      0.731358    77A      0.737682  
      78A      0.754687    79A      0.769265    80A      0.790546  
      81A      0.801919    82A      0.808005    83A      0.822068  
      84A      0.831801    85A      0.846112    86A      0.868458  
      87A      0.878667    88A      0.890000    89A      0.914238  
      90A      0.941455    91A      0.944553    92A      0.965868  
      93A      0.976836    94A      0.987940    95A      0.998837  
      96A      1.022226    97A      1.055689    98A      1.066062  
      99A      1.080801   100A      1.093298   101A      1.111773  
     102A      1.121968   103A      1.132085   104A      1.149342  
     105A      1.164167   106A      1.187571   107A      1.200783  
     108A      1.207373   109A      1.222592   110A      1.240829  
     111A      1.250364   112A      1.265643   113A      1.278940  
     114A      1.303893   115A      1.313070   116A      1.331929  
     117A      1.344647   118A      1.353549   119A      1.368991  
     120A      1.379932   121A      1.383607   122A      1.394233  
     123A      1.399993   124A      1.419498   125A      1.432173  
     126A      1.464309   127A      1.470888   128A      1.484540  
     129A      1.506206   130A      1.521153   131A      1.527214  
     132A      1.545439   133A      1.547660   134A      1.554911  
     135A      1.576123   136A      1.589448   137A      1.594964  
     138A      1.604210   139A      1.621805   140A      1.626365  
     141A      1.659276   142A      1.669293   143A      1.680554  
     144A      1.699142   145A      1.710757   146A      1.723478  
     147A      1.738010   148A      1.754403   149A      1.770836  
     150A      1.800913   151A      1.809562   152A      1.874889  
     153A      1.882659   154A      1.897407   155A      1.923036  
     156A      1.955328   157A      1.969817   158A      2.009465  
     159A      2.032182   160A      2.077649   161A      2.127015  
     162A      2.141261   163A      2.170210   164A      2.210565  
     165A      2.263898   166A      2.281801   167A      2.342659  
     168A      2.387967   169A      2.416145   170A      2.426856  
     171A      2.474453   172A      2.507126   173A      2.542652  
     174A      2.570594   175A      2.651171   176A      2.668248  
     177A      2.705671   178A      2.765615   179A      2.772356  
     180A      2.800597   181A      2.808852   182A      2.829373  
     183A      2.848689   184A      2.866386   185A      2.894429  
     186A      2.924434   187A      3.035662   188A      3.049535  
     189A      3.090832   190A      3.105606   191A      3.127308  
     192A      3.152722   193A      3.158774   194A      3.179176  
     195A      3.234646   196A      3.268183   197A      3.275923  
     198A      3.322453   199A      3.379116   200A      3.396894  
     201A      3.407892   202A      3.498419   203A      3.558588  
     204A      3.585509   205A      3.605599   206A      3.607947  
     207A      3.620607   208A      3.628011   209A      3.653644  
     210A      3.668608   211A      3.680775   212A      3.712863  
     213A      3.737975   214A      3.751039   215A      3.770419  
     216A      3.787229   217A      3.796522   218A      3.805142  
     219A      3.809346   220A      3.837135   221A      3.847661  
     222A      3.855886   223A      3.870210   224A      3.878746  
     225A      3.924961   226A      3.928604   227A      3.954622  
     228A      3.989034   229A      3.997495   230A      4.021069  
     231A      4.036906   232A      4.044121   233A      4.091490  
     234A      4.144376   235A      4.166850   236A      4.180086  
     237A      4.193656   238A      4.202347   239A      4.227758  
     240A      4.262086   241A      4.269919   242A      4.320951  
     243A      4.339502   244A      4.365360   245A      4.376442  
     246A      4.382319   247A      4.404364   248A      4.412299  
     249A      4.420504   250A      4.444693   251A      4.466481  
     252A      4.480636   253A      4.505661   254A      4.519156  
     255A      4.539263   256A      4.552388   257A      4.561058  
     258A      4.583034   259A      4.599201   260A      4.609486  
     261A      4.633221   262A      4.648726   263A      4.664370  
     264A      4.687405   265A      4.697782   266A      4.712080  
     267A      4.720103   268A      4.752540   269A      4.760905  
     270A      4.801582   271A      4.807741   272A      4.813728  
     273A      4.826080   274A      4.833173   275A      4.846426  
     276A      4.865842   277A      4.878641   278A      4.882974  
     279A      4.896767   280A      4.902302   281A      4.913224  
     282A      4.919678   283A      4.946450   284A      4.953558  
     285A      4.972306   286A      4.985496   287A      5.002548  
     288A      5.004301   289A      5.038562   290A      5.067134  
     291A      5.068290   292A      5.093617   293A      5.108081  
     294A      5.113003   295A      5.129482   296A      5.163995  
     297A      5.179888   298A      5.232587   299A      5.279253  
     300A      5.292442   301A      5.352115   302A      5.364157  
     303A      5.488295   304A      5.511265   305A      5.524149  
     306A      5.529830   307A      5.578799   308A      5.588180  
     309A      5.619845   310A      5.670887   311A      5.686535  
     312A      5.693836   313A      5.706066   314A      5.720842  
     315A      5.731040   316A      5.755384   317A      5.765700  
     318A      5.797708   319A      5.838314   320A      5.884576  
     321A      5.977094   322A      6.012332   323A      6.098566  
     324A      6.139096   325A      6.189244   326A      6.263244  
     327A      6.300057   328A      6.320450   329A      6.328915  
     330A      6.372071   331A      6.379331   332A      6.388787  
     333A      6.409921   334A      6.438078   335A      6.462910  
     336A      6.491675   337A      6.518873   338A      6.565451  
     339A      6.591302   340A      6.609454   341A      6.694655  
     342A      6.778640   343A      6.873002   344A      6.967595  
     345A      7.009035   346A      7.093608   347A      7.256560  
     348A      7.308562   349A      7.410461   350A      7.453224  
     351A      7.509950   352A      7.551940   353A      7.630659  
     354A      7.688535   355A      7.708542   356A      7.800733  
     357A      7.810879   358A      7.876777   359A      7.915745  
     360A      7.994677   361A      8.019368   362A      8.264363  
     363A      8.395679   364A      8.410784   365A      8.815694  
     366A      9.092397   367A      9.138572   368A      9.158470  
     369A      9.522260   370A      9.680269   371A      9.829134  
     372A      9.897885   373A      9.930354   374A      9.969512  
     375A     10.106824   376A     10.484587   377A     10.949208  
     378A     11.390659   379A     11.544323   380A     11.687421  
     381A     12.050308   382A     13.856579   383A     15.221620  
     384A     42.449586   385A     45.131680   386A     45.896487  
     387A     54.612519   388A     61.223345  

    Final Occupation by Irrep:
              A 
    DOCC [     5 ]

  @DF-RHF Final Energy:   -40.21353099380946

   => Energetics <=

    Nuclear Repulsion Energy =             13.4727957598623664
    One-Electron Energy =                 -79.8025034901692010
    Two-Electron Energy =                  26.1161767364973727
    Total Energy =                        -40.2135309938094636

Computation Completed


Properties will be evaluated at   0.000000,   0.000000,   0.000000 [a0]

Properties computed using the SCF density matrix

  Nuclear Dipole Moment: [e a0]
     X:   -53.7212      Y:    -7.1764      Z:    -2.3289

  Electronic Dipole Moment: [e a0]
     X:    53.7201      Y:     7.1760      Z:     2.3284

  Dipole Moment: [e a0]
     X:    -0.0011      Y:    -0.0004      Z:    -0.0005     Total:     0.0013

  Dipole Moment: [D]
     X:    -0.0029      Y:    -0.0010      Z:    -0.0014     Total:     0.0033


*** tstop() called on r282 at Sat Sep 11 02:01:13 2021
Module time:
	user time   =       8.35 seconds =       0.14 minutes
	system time =       0.24 seconds =       0.00 minutes
	total time  =          9 seconds =       0.15 minutes
Total time:
	user time   =      47.80 seconds =       0.80 minutes
	system time =       1.45 seconds =       0.02 minutes
	total time  =         50 seconds =       0.83 minutes
  Constructing Basis Sets for SAPT...

   => Loading Basis Set <=

    Name: (JUN-CC-PVTZ AUX)
    Role: RIFIT
    Keyword: DF_BASIS_SAPT
    atoms 1-2, 7, 13       entry C          line   132 file /home/r08543048/miniconda3/share/psi4/basis/jun-cc-pvtz-ri.gbs 
    atoms 3                entry O          line   244 file /home/r08543048/miniconda3/share/psi4/basis/jun-cc-pvtz-ri.gbs 
    atoms 4                entry N          line   188 file /home/r08543048/miniconda3/share/psi4/basis/jun-cc-pvtz-ri.gbs 
    atoms 5-6, 8-12, 14-17 entry H          line    30 file /home/r08543048/miniconda3/share/psi4/basis/jun-cc-pvtz-ri.gbs 


  //>>>>>>>>>>>>>>>>>>>>>>>>>>>>>>>>>>>//
  //               SAPT0               //
  //<<<<<<<<<<<<<<<<<<<<<<<<<<<<<<<<<<<//


*** tstart() called on r282
*** at Sat Sep 11 02:01:13 2021

        SAPT0  
    Ed Hohenstein
     6 June 2009

      Orbital Information
  --------------------------
    NSO        =       388
    NMO        =       388
    NRI        =       912
    NOCC A     =        20
    NOCC B     =         5
    FOCC A     =         0
    FOCC B     =         0
    NVIR A     =       368
    NVIR B     =       383

    Elst10,r            =    -0.001795482819 [Eh]
    Exch10              =     0.003704294864 [Eh]
    Exch10 (S^2)        =     0.003698911436 [Eh]

    Iter     Energy [mEh]          dE [mEh]         Residual      Time [s]
       1      -0.16914362       0.169143621       1.721185474             1
       2      -0.20185753       0.032713907       0.550008337             1
       3      -0.20364171       0.001784182       0.166121699             2
       4      -0.20294528      -0.000696430       0.063884030             2
       5      -0.20277144      -0.000173837       0.015189629             3
       6      -0.20283619       0.000064749       0.006255686             3
       7      -0.20283764       0.000001453       0.003252732             4
       8      -0.20283013      -0.000007512       0.001134286             4
       9      -0.20282994      -0.000000194       0.000276328             5
      10      -0.20283065       0.000000715       0.000087276             5
      11      -0.20283058      -0.000000076       0.000030168             6
      12      -0.20283053      -0.000000049       0.000010786             6
      13      -0.20283054       0.000000014       0.000003863             7
      14      -0.20283055       0.000000004       0.000000922             7

    CHF Iterations converged


    Iter     Energy [mEh]          dE [mEh]         Residual      Time [s]
       1      -0.62839408       0.628394077       3.535405351             0
       2      -0.76011420       0.131720125       0.716857042             1
       3      -0.76144399       0.001329787       0.167834120             1
       4      -0.75984203      -0.001601957       0.042628478             2
       5      -0.75978128      -0.000060748       0.007898202             2
       6      -0.75987234       0.000091056       0.001100957             2
       7      -0.75986361      -0.000008725       0.000174528             3
       8      -0.75986445       0.000000839       0.000019326             3
       9      -0.75986439      -0.000000058       0.000002220             4
      10      -0.75986440       0.000000005       0.000000284             4

    CHF Iterations converged

    Ind20,r (A<-B)      =    -0.000202830545 [Eh]
    Ind20,r (B<-A)      =    -0.000759864399 [Eh]
    Ind20,r             =    -0.000962694944 [Eh]
    Exch-Ind20,r (A<-B) =     0.000161458625 [Eh]
    Exch-Ind20,r (B<-A) =     0.000483910974 [Eh]
    Exch-Ind20,r        =     0.000645369600 [Eh]
    Disp20              =    -0.004643113854 [Eh]
    Disp20 (SS)         =    -0.002321556927 [Eh]
    Disp20 (OS)         =    -0.002321556927 [Eh]
    Exch-Disp20         =     0.000395311928 [Eh]
    Exch-Disp20 (SS)    =     0.000261542603 [Eh]
    Exch-Disp20 (OS)    =     0.000133769326 [Eh]

    SAPT Results 
  --------------------------------------------------------------------------------------------------------
    Electrostatics                 -1.79548282 [mEh]      -1.12668248 [kcal/mol]      -4.71403949 [kJ/mol]
      Elst10,r                     -1.79548282 [mEh]      -1.12668248 [kcal/mol]      -4.71403949 [kJ/mol]

    Exchange                        3.70429486 [mEh]       2.32448012 [kcal/mol]       9.72562482 [kJ/mol]
      Exch10                        3.70429486 [mEh]       2.32448012 [kcal/mol]       9.72562482 [kJ/mol]
      Exch10(S^2)                   3.69891144 [mEh]       2.32110197 [kcal/mol]       9.71149064 [kJ/mol]

    Induction                      -0.54130055 [mEh]      -0.33967122 [kcal/mol]      -1.42118439 [kJ/mol]
      Ind20,r                      -0.96269494 [mEh]      -0.60410020 [kcal/mol]      -2.52755523 [kJ/mol]
      Exch-Ind20,r                  0.64536960 [mEh]       0.40497554 [kcal/mol]       1.69441765 [kJ/mol]
      delta HF,r (2)               -0.22397520 [mEh]      -0.14054656 [kcal/mol]      -0.58804681 [kJ/mol]

    Dispersion                     -4.24780193 [mEh]      -2.66553595 [kcal/mol]     -11.15260242 [kJ/mol]
      Disp20                       -4.64311385 [mEh]      -2.91359793 [kcal/mol]     -12.19049374 [kJ/mol]
      Exch-Disp20                   0.39531193 [mEh]       0.24806198 [kcal/mol]       1.03789133 [kJ/mol]
      Disp20 (SS)                  -2.32155693 [mEh]      -1.45679897 [kcal/mol]      -6.09524687 [kJ/mol]
      Disp20 (OS)                  -2.32155693 [mEh]      -1.45679897 [kcal/mol]      -6.09524687 [kJ/mol]
      Exch-Disp20 (SS)              0.26154260 [mEh]       0.16412046 [kcal/mol]       0.68668001 [kJ/mol]
      Exch-Disp20 (OS)              0.13376933 [mEh]       0.08394152 [kcal/mol]       0.35121132 [kJ/mol]

  Total HF                          1.36751150 [mEh]       0.85812642 [kcal/mol]       3.59040094 [kJ/mol]
  Total SAPT0                      -2.88029043 [mEh]      -1.80740953 [kcal/mol]      -7.56220148 [kJ/mol]

  Special recipe for scaled SAPT0 (see Manual):
    Electrostatics sSAPT0          -1.79548282 [mEh]      -1.12668248 [kcal/mol]      -4.71403949 [kJ/mol]
    Exchange sSAPT0                 3.70429486 [mEh]       2.32448012 [kcal/mol]       9.72562482 [kJ/mol]
    Induction sSAPT0               -0.53847861 [mEh]      -0.33790043 [kcal/mol]      -1.41377541 [kJ/mol]
    Dispersion sSAPT0              -4.24607339 [mEh]      -2.66445128 [kcal/mol]     -11.14806415 [kJ/mol]
  Total sSAPT0                     -2.87573996 [mEh]      -1.80455407 [kcal/mol]      -7.55025423 [kJ/mol]
  --------------------------------------------------------------------------------------------------------

*** tstop() called on r282 at Sat Sep 11 02:01:58 2021
Module time:
	user time   =      37.27 seconds =       0.62 minutes
	system time =       7.30 seconds =       0.12 minutes
	total time  =         45 seconds =       0.75 minutes
Total time:
	user time   =      85.18 seconds =       1.42 minutes
	system time =       8.75 seconds =       0.15 minutes
	total time  =         95 seconds =       1.58 minutes

    Psi4 stopped on: Saturday, 11 September 2021 02:01AM
    Psi4 wall time for execution: 0:01:34.72

*** Psi4 exiting successfully. Buy a developer a beer!
