
    -----------------------------------------------------------------------
          Psi4: An Open-Source Ab Initio Electronic Structure Package
                               Psi4 1.3.2 release

                         Git: Rev {HEAD} ecbda83 


    R. M. Parrish, L. A. Burns, D. G. A. Smith, A. C. Simmonett,
    A. E. DePrince III, E. G. Hohenstein, U. Bozkaya, A. Yu. Sokolov,
    R. Di Remigio, R. M. Richard, J. F. Gonthier, A. M. James,
    H. R. McAlexander, A. Kumar, M. Saitow, X. Wang, B. P. Pritchard,
    P. Verma, H. F. Schaefer III, K. Patkowski, R. A. King, E. F. Valeev,
    F. A. Evangelista, J. M. Turney, T. D. Crawford, and C. D. Sherrill,
    J. Chem. Theory Comput. 13(7) pp 3185--3197 (2017).
    (doi: 10.1021/acs.jctc.7b00174)


                         Additional Contributions by
    P. Kraus, H. Kruse, M. H. Lechner, M. C. Schieber, R. A. Shaw,
    A. Alenaizan, R. Galvelis, Z. L. Glick, S. Lehtola, and J. P. Misiewicz

    -----------------------------------------------------------------------


    Psi4 started on: Saturday, 11 September 2021 01:55AM

    Process ID: 57474
    Host:       r282
    PSIDATADIR: /home/r08543048/miniconda3/share/psi4
    Memory:     500.0 MiB
    Threads:    1
    
  ==> Input File <==

--------------------------------------------------------------------------
# Any line starting with the # character is a comment line
#! Sample  computation

memory 22 gb

molecule Dimer {
0 1
 C -1.813251    1.242880   -0.505065
 C -1.523615   -0.049506    0.218732
 O -1.114543   -0.073825    1.371783
 N -1.755868   -1.190636   -0.489941
 H -2.170429    1.098191   -1.522255
 H -2.558452    1.795263    0.063521
 H -0.900733    1.835965   -0.521819
 H -1.514250   -2.069810   -0.065233
 H -2.006867   -1.168673   -1.460151
 
 
 




    
    
 --
0 1
 C   1.984339    1.257297    0.232723
 C   1.870414    0.040334   -0.677932
 C   1.949548   -1.262547    0.108607
 H   1.190649    1.248498    0.980968
 H   2.939835    1.252624    0.759350
 H   1.920075    2.189760   -0.329290
 H   2.660782    0.066888   -1.431591
 H   0.924748    0.077202   -1.224667
 H   1.857217   -2.132300   -0.542683
 H   2.904459   -1.337200    0.631032
 H   1.155778   -1.302098    0.855750
   
   
   





units angstrom

no_reorient
symmetry c1
}

set globals{
  basis jun-cc-pvtz
}

energy('sapt0')


--------------------------------------------------------------------------

  Memory set to  20.489 GiB by Python driver.

  //>>>>>>>>>>>>>>>>>>>>>>>>>>>>>>>>>>>//
  //              Dimer HF             //
  //<<<<<<<<<<<<<<<<<<<<<<<<<<<<<<<<<<<//


*** tstart() called on r282
*** at Sat Sep 11 01:55:16 2021

   => Loading Basis Set <=

    Name: JUN-CC-PVTZ
    Role: ORBITAL
    Keyword: BASIS
    atoms 1-2, 10-12 entry C          line   217 file /home/r08543048/miniconda3/share/psi4/basis/jun-cc-pvtz.gbs 
    atoms 3          entry O          line   305 file /home/r08543048/miniconda3/share/psi4/basis/jun-cc-pvtz.gbs 
    atoms 4          entry N          line   261 file /home/r08543048/miniconda3/share/psi4/basis/jun-cc-pvtz.gbs 
    atoms 5-9, 13-20 entry H          line    36 file /home/r08543048/miniconda3/share/psi4/basis/jun-cc-pvtz.gbs 


         ---------------------------------------------------------
                                   SCF
               by Justin Turney, Rob Parrish, Andy Simmonett
                          and Daniel G. A. Smith
                              RHF Reference
                        1 Threads,  20980 MiB Core
         ---------------------------------------------------------

  ==> Geometry <==

    Molecular point group: c1
    Full point group: C1

    Geometry (in Angstrom), charge = 0, multiplicity = 1:

       Center              X                  Y                   Z               Mass       
    ------------   -----------------  -----------------  -----------------  -----------------
         C           -1.751636518141     1.257869566951    -0.541619839031    12.000000000000
         C           -1.462000518141    -0.034516433049     0.182177160969    12.000000000000
         O           -1.052928518141    -0.058835433049     1.335228160969    15.994914619570
         N           -1.694253518141    -1.175646433049    -0.526495839031    14.003074004430
         H           -2.108814518141     1.113180566951    -1.558809839031     1.007825032230
         H           -2.496837518141     1.810252566951     0.026966160969     1.007825032230
         H           -0.839118518141     1.850954566951    -0.558373839031     1.007825032230
         H           -1.452635518141    -2.054820433049    -0.101787839031     1.007825032230
         H           -1.945252518141    -1.153683433049    -1.496705839031     1.007825032230
         C            2.045953481859     1.272286566951     0.196168160969    12.000000000000
         C            1.932028481859     0.055323566951    -0.714486839031    12.000000000000
         C            2.011162481859    -1.247557433049     0.072052160969    12.000000000000
         H            1.252263481859     1.263487566951     0.944413160969     1.007825032230
         H            3.001449481859     1.267613566951     0.722795160969     1.007825032230
         H            1.981689481859     2.204749566951    -0.365844839031     1.007825032230
         H            2.722396481859     0.081877566951    -1.468145839031     1.007825032230
         H            0.986362481859     0.092191566951    -1.261221839031     1.007825032230
         H            1.918831481859    -2.117310433049    -0.579237839031     1.007825032230
         H            2.966073481859    -1.322210433049     0.594477160969     1.007825032230
         H            1.217392481859    -1.287108433049     0.819195160969     1.007825032230

  Running in c1 symmetry.

  Rotational constants: A =      0.10485  B =      0.04516  C =      0.03968 [cm^-1]
  Rotational constants: A =   3143.39007  B =   1353.99822  C =   1189.43175 [MHz]
  Nuclear repulsion =  318.027014917950112

  Charge       = 0
  Multiplicity = 1
  Electrons    = 58
  Nalpha       = 29
  Nbeta        = 29

  ==> Algorithm <==

  SCF Algorithm Type is DF.
  DIIS enabled.
  MOM disabled.
  Fractional occupation disabled.
  Guess Type is SAD.
  Energy threshold   = 1.00e-08
  Density threshold  = 1.00e-08
  Integral threshold = 0.00e+00

  ==> Primary Basis <==

  Basis Set: JUN-CC-PVTZ
    Blend: JUN-CC-PVTZ
    Number of shells: 169
    Number of basis function: 455
    Number of Cartesian functions: 510
    Spherical Harmonics?: true
    Max angular momentum: 3

   => Loading Basis Set <=

    Name: (JUN-CC-PVTZ AUX)
    Role: JKFIT
    Keyword: DF_BASIS_SCF
    atoms 1-2, 10-12 entry C          line   152 file /home/r08543048/miniconda3/share/psi4/basis/jun-cc-pvtz-jkfit.gbs 
    atoms 3          entry O          line   272 file /home/r08543048/miniconda3/share/psi4/basis/jun-cc-pvtz-jkfit.gbs 
    atoms 4          entry N          line   212 file /home/r08543048/miniconda3/share/psi4/basis/jun-cc-pvtz-jkfit.gbs 
    atoms 5-9, 13-20 entry H          line    70 file /home/r08543048/miniconda3/share/psi4/basis/jun-cc-pvtz-jkfit.gbs 

  ==> Pre-Iterations <==

   -------------------------------------------------------
    Irrep   Nso     Nmo     Nalpha   Nbeta   Ndocc  Nsocc
   -------------------------------------------------------
     A        455     455       0       0       0       0
   -------------------------------------------------------
    Total     455     455      29      29      29       0
   -------------------------------------------------------

  ==> Integral Setup <==

  ==> DiskDFJK: Density-Fitted J/K Matrices <==

    J tasked:                  Yes
    K tasked:                  Yes
    wK tasked:                  No
    OpenMP threads:              1
    Integrals threads:           1
    Memory [MiB]:            15735
    Algorithm:                Core
    Integral Cache:           SAVE
    Schwarz Cutoff:          1E-12
    Fitting Condition:       1E-10

   => Auxiliary Basis Set <=

  Basis Set: (JUN-CC-PVTZ AUX)
    Blend: JUN-CC-PVTZ-JKFIT
    Number of shells: 333
    Number of basis function: 1055
    Number of Cartesian functions: 1267
    Spherical Harmonics?: true
    Max angular momentum: 4

  Minimum eigenvalue in the overlap matrix is 3.5390374893E-05.
  Using Symmetric Orthogonalization.

  SCF Guess: Superposition of Atomic Densities via on-the-fly atomic UHF.

  ==> Iterations <==

                           Total Energy        Delta E     RMS |[F,P]|

   @DF-RHF iter SAD:  -325.11786360030260   -3.25118e+02   0.00000e+00 
   @DF-RHF iter   1:  -326.03609567402651   -9.18232e-01   1.73031e-03 DIIS
   @DF-RHF iter   2:  -326.29116957373822   -2.55074e-01   9.38920e-04 DIIS
   @DF-RHF iter   3:  -326.36245507683884   -7.12855e-02   1.85917e-04 DIIS
   @DF-RHF iter   4:  -326.36673617546825   -4.28110e-03   8.66477e-05 DIIS
   @DF-RHF iter   5:  -326.36761669517671   -8.80520e-04   1.43666e-05 DIIS
   @DF-RHF iter   6:  -326.36766241254281   -4.57174e-05   5.61861e-06 DIIS
   @DF-RHF iter   7:  -326.36766905490293   -6.64236e-06   2.05705e-06 DIIS
   @DF-RHF iter   8:  -326.36767034993147   -1.29503e-06   7.76996e-07 DIIS
   @DF-RHF iter   9:  -326.36767055270116   -2.02770e-07   2.40166e-07 DIIS
   @DF-RHF iter  10:  -326.36767056753808   -1.48369e-08   7.60686e-08 DIIS
   @DF-RHF iter  11:  -326.36767056909281   -1.55472e-09   2.07601e-08 DIIS
   @DF-RHF iter  12:  -326.36767056918546   -9.26548e-11   5.23013e-09 DIIS
  Energy and wave function converged.


  ==> Post-Iterations <==

    Orbital Energies [Eh]
    ---------------------

    Doubly Occupied:                                                      

       1A    -20.517939     2A    -15.589551     3A    -11.356641  
       4A    -11.239264     5A    -11.211125     6A    -11.198284  
       7A    -11.198214     8A     -1.379255     9A     -1.215478  
      10A     -1.047432    11A     -1.008706    12A     -0.916288  
      13A     -0.803049    14A     -0.793024    15A     -0.730098  
      16A     -0.667348    17A     -0.633639    18A     -0.603587  
      19A     -0.591887    20A     -0.587472    21A     -0.564819  
      22A     -0.540933    23A     -0.530280    24A     -0.517233  
      25A     -0.468265    26A     -0.467660    27A     -0.462661  
      28A     -0.427187    29A     -0.416409  

    Virtual:                                                              

      30A      0.040735    31A      0.052888    32A      0.062109  
      33A      0.062715    34A      0.072597    35A      0.082058  
      36A      0.087917    37A      0.093098    38A      0.100446  
      39A      0.112036    40A      0.115911    41A      0.120701  
      42A      0.126803    43A      0.133371    44A      0.138562  
      45A      0.148945    46A      0.156909    47A      0.166517  
      48A      0.169883    49A      0.184573    50A      0.194063  
      51A      0.201469    52A      0.209660    53A      0.211823  
      54A      0.238841    55A      0.250748    56A      0.254419  
      57A      0.264573    58A      0.274413    59A      0.279386  
      60A      0.285292    61A      0.296227    62A      0.300452  
      63A      0.304495    64A      0.307193    65A      0.314115  
      66A      0.319960    67A      0.329008    68A      0.334943  
      69A      0.341987    70A      0.347476    71A      0.349685  
      72A      0.352178    73A      0.363690    74A      0.368346  
      75A      0.372933    76A      0.376177    77A      0.385720  
      78A      0.402470    79A      0.410363    80A      0.416518  
      81A      0.420349    82A      0.435044    83A      0.447593  
      84A      0.449424    85A      0.457429    86A      0.467252  
      87A      0.474728    88A      0.494092    89A      0.500687  
      90A      0.514048    91A      0.523590    92A      0.527561  
      93A      0.535752    94A      0.543383    95A      0.559095  
      96A      0.564595    97A      0.573534    98A      0.578799  
      99A      0.585864   100A      0.598934   101A      0.607377  
     102A      0.619434   103A      0.633037   104A      0.640208  
     105A      0.654119   106A      0.661315   107A      0.676370  
     108A      0.679967   109A      0.692150   110A      0.694440  
     111A      0.724923   112A      0.734430   113A      0.749627  
     114A      0.754953   115A      0.767393   116A      0.779533  
     117A      0.793220   118A      0.796193   119A      0.802896  
     120A      0.804928   121A      0.818348   122A      0.822223  
     123A      0.827895   124A      0.833316   125A      0.837127  
     126A      0.864499   127A      0.868096   128A      0.877284  
     129A      0.886691   130A      0.890307   131A      0.912606  
     132A      0.918978   133A      0.929093   134A      0.938806  
     135A      0.949880   136A      0.965740   137A      0.972753  
     138A      0.978121   139A      0.997612   140A      1.003370  
     141A      1.015348   142A      1.025492   143A      1.042199  
     144A      1.072696   145A      1.079356   146A      1.101508  
     147A      1.119449   148A      1.133788   149A      1.142496  
     150A      1.155372   151A      1.174920   152A      1.182622  
     153A      1.188992   154A      1.205499   155A      1.234053  
     156A      1.241591   157A      1.245849   158A      1.254453  
     159A      1.295573   160A      1.303313   161A      1.318474  
     162A      1.338962   163A      1.344018   164A      1.356024  
     165A      1.360610   166A      1.373000   167A      1.383132  
     168A      1.397994   169A      1.403255   170A      1.421235  
     171A      1.423476   172A      1.436988   173A      1.447707  
     174A      1.458218   175A      1.468135   176A      1.473964  
     177A      1.483030   178A      1.490027   179A      1.517767  
     180A      1.528336   181A      1.534797   182A      1.543235  
     183A      1.557468   184A      1.566083   185A      1.586161  
     186A      1.597991   187A      1.601535   188A      1.607905  
     189A      1.618444   190A      1.631499   191A      1.636537  
     192A      1.647593   193A      1.661338   194A      1.679454  
     195A      1.688371   196A      1.701199   197A      1.714848  
     198A      1.732352   199A      1.741438   200A      1.761772  
     201A      1.777661   202A      1.796557   203A      1.815025  
     204A      1.851795   205A      1.864456   206A      1.879363  
     207A      1.891552   208A      1.919964   209A      1.924624  
     210A      1.935733   211A      1.969102   212A      1.972782  
     213A      1.979894   214A      1.995020   215A      2.005039  
     216A      2.055972   217A      2.121030   218A      2.158411  
     219A      2.213397   220A      2.283361   221A      2.444503  
     222A      2.475694   223A      2.513639   224A      2.536483  
     225A      2.702043   226A      2.738536   227A      2.753363  
     228A      2.758335   229A      2.780123   230A      2.788236  
     231A      2.823477   232A      2.832099   233A      2.870868  
     234A      2.887615   235A      2.907172   236A      2.915528  
     237A      2.943357   238A      2.948989   239A      2.969131  
     240A      2.981969   241A      3.001977   242A      3.034633  
     243A      3.044558   244A      3.057250   245A      3.070273  
     246A      3.098876   247A      3.109390   248A      3.115702  
     249A      3.136556   250A      3.148724   251A      3.181145  
     252A      3.182396   253A      3.205162   254A      3.212865  
     255A      3.240356   256A      3.254756   257A      3.263059  
     258A      3.278174   259A      3.286361   260A      3.297406  
     261A      3.312194   262A      3.337189   263A      3.345955  
     264A      3.362536   265A      3.373221   266A      3.383418  
     267A      3.394604   268A      3.410914   269A      3.414583  
     270A      3.439865   271A      3.442773   272A      3.452617  
     273A      3.464083   274A      3.477829   275A      3.489245  
     276A      3.499629   277A      3.510962   278A      3.518791  
     279A      3.522985   280A      3.537131   281A      3.543950  
     282A      3.548231   283A      3.561451   284A      3.570992  
     285A      3.584847   286A      3.606369   287A      3.620925  
     288A      3.627515   289A      3.635873   290A      3.664704  
     291A      3.672458   292A      3.682073   293A      3.694773  
     294A      3.715360   295A      3.733505   296A      3.735028  
     297A      3.759508   298A      3.774638   299A      3.780653  
     300A      3.802618   301A      3.815081   302A      3.836182  
     303A      3.841366   304A      3.859995   305A      3.872351  
     306A      3.880912   307A      3.891530   308A      3.901213  
     309A      3.924029   310A      3.941310   311A      3.963336  
     312A      3.968264   313A      3.988148   314A      3.996420  
     315A      4.007569   316A      4.028388   317A      4.031622  
     318A      4.074700   319A      4.115297   320A      4.125517  
     321A      4.146431   322A      4.166187   323A      4.188603  
     324A      4.198689   325A      4.215618   326A      4.229249  
     327A      4.238579   328A      4.247943   329A      4.262450  
     330A      4.275689   331A      4.280848   332A      4.317392  
     333A      4.321591   334A      4.338163   335A      4.345147  
     336A      4.360393   337A      4.373477   338A      4.378549  
     339A      4.388236   340A      4.390890   341A      4.406214  
     342A      4.428399   343A      4.442706   344A      4.445288  
     345A      4.454784   346A      4.466361   347A      4.492812  
     348A      4.499020   349A      4.506926   350A      4.522015  
     351A      4.535068   352A      4.552754   353A      4.562353  
     354A      4.568441   355A      4.580403   356A      4.591426  
     357A      4.616538   358A      4.630625   359A      4.635082  
     360A      4.671749   361A      4.681833   362A      4.706745  
     363A      4.714752   364A      4.726573   365A      4.759674  
     366A      4.790792   367A      4.805483   368A      4.833476  
     369A      4.836014   370A      4.870904   371A      4.887784  
     372A      4.906491   373A      4.950008   374A      4.951326  
     375A      4.998498   376A      5.012150   377A      5.048480  
     378A      5.114358   379A      5.138708   380A      5.145108  
     381A      5.168544   382A      5.185014   383A      5.196502  
     384A      5.209531   385A      5.222305   386A      5.265408  
     387A      5.279901   388A      5.290606   389A      5.293509  
     390A      5.299595   391A      5.316711   392A      5.349045  
     393A      5.391502   394A      5.402439   395A      5.438622  
     396A      5.466461   397A      5.487367   398A      5.499267  
     399A      5.527450   400A      5.537770   401A      5.591399  
     402A      5.595590   403A      5.603949   404A      5.619428  
     405A      5.678105   406A      5.694900   407A      5.712505  
     408A      5.734880   409A      5.738430   410A      5.756256  
     411A      5.774549   412A      5.790190   413A      5.793950  
     414A      5.814042   415A      5.817032   416A      5.829864  
     417A      5.851064   418A      5.897266   419A      5.934958  
     420A      5.939161   421A      5.967540   422A      5.993804  
     423A      6.008177   424A      6.047381   425A      6.103410  
     426A      6.118389   427A      6.204512   428A      6.232129  
     429A      6.317612   430A      6.430259   431A      6.458294  
     432A      6.485735   433A      6.534768   434A      6.539442  
     435A      6.552091   436A      6.564661   437A      6.609813  
     438A      6.686652   439A      6.768740   440A      6.819841  
     441A      7.217705   442A      7.321313   443A      7.369467  
     444A      7.431919   445A      7.473711   446A      7.518263  
     447A      7.733031   448A      7.789585   449A     12.350206  
     450A     13.815018   451A     13.984554   452A     14.527753  
     453A     14.725576   454A     14.913074   455A     15.425632  

    Final Occupation by Irrep:
              A 
    DOCC [    29 ]

  @DF-RHF Final Energy:  -326.36767056918546

   => Energetics <=

    Nuclear Repulsion Energy =            318.0270149179501118
    One-Electron Energy =               -1073.4219160114448641
    Two-Electron Energy =                 429.0272305243093456
    Total Energy =                       -326.3676705691854636

Computation Completed


Properties will be evaluated at   0.000000,   0.000000,   0.000000 [a0]

Properties computed using the SCF density matrix

  Nuclear Dipole Moment: [e a0]
     X:     6.7532      Y:     1.6429      Z:    -4.0066

  Electronic Dipole Moment: [e a0]
     X:    -7.2834      Y:    -1.8409      Z:     2.5171

  Dipole Moment: [e a0]
     X:    -0.5302      Y:    -0.1980      Z:    -1.4895     Total:     1.5934

  Dipole Moment: [D]
     X:    -1.3476      Y:    -0.5032      Z:    -3.7859     Total:     4.0500


*** tstop() called on r282 at Sat Sep 11 01:56:06 2021
Module time:
	user time   =      48.22 seconds =       0.80 minutes
	system time =       1.16 seconds =       0.02 minutes
	total time  =         50 seconds =       0.83 minutes
Total time:
	user time   =      48.22 seconds =       0.80 minutes
	system time =       1.16 seconds =       0.02 minutes
	total time  =         50 seconds =       0.83 minutes

  //>>>>>>>>>>>>>>>>>>>>>>>>>>>>>>>>>>>//
  //            Monomer A HF           //
  //<<<<<<<<<<<<<<<<<<<<<<<<<<<<<<<<<<<//


*** tstart() called on r282
*** at Sat Sep 11 01:56:06 2021

   => Loading Basis Set <=

    Name: JUN-CC-PVTZ
    Role: ORBITAL
    Keyword: BASIS
    atoms 1-2, 10-12 entry C          line   217 file /home/r08543048/miniconda3/share/psi4/basis/jun-cc-pvtz.gbs 
    atoms 3          entry O          line   305 file /home/r08543048/miniconda3/share/psi4/basis/jun-cc-pvtz.gbs 
    atoms 4          entry N          line   261 file /home/r08543048/miniconda3/share/psi4/basis/jun-cc-pvtz.gbs 
    atoms 5-9, 13-20 entry H          line    36 file /home/r08543048/miniconda3/share/psi4/basis/jun-cc-pvtz.gbs 


         ---------------------------------------------------------
                                   SCF
               by Justin Turney, Rob Parrish, Andy Simmonett
                          and Daniel G. A. Smith
                              RHF Reference
                        1 Threads,  20980 MiB Core
         ---------------------------------------------------------

  ==> Geometry <==

    Molecular point group: c1
    Full point group: C1

    Geometry (in Angstrom), charge = 0, multiplicity = 1:

       Center              X                  Y                   Z               Mass       
    ------------   -----------------  -----------------  -----------------  -----------------
         C           -1.751636518141     1.257869566951    -0.541619839031    12.000000000000
         C           -1.462000518141    -0.034516433049     0.182177160969    12.000000000000
         O           -1.052928518141    -0.058835433049     1.335228160969    15.994914619570
         N           -1.694253518141    -1.175646433049    -0.526495839031    14.003074004430
         H           -2.108814518141     1.113180566951    -1.558809839031     1.007825032230
         H           -2.496837518141     1.810252566951     0.026966160969     1.007825032230
         H           -0.839118518141     1.850954566951    -0.558373839031     1.007825032230
         H           -1.452635518141    -2.054820433049    -0.101787839031     1.007825032230
         H           -1.945252518141    -1.153683433049    -1.496705839031     1.007825032230
      Gh(C)           2.045953481859     1.272286566951     0.196168160969    12.000000000000
      Gh(C)           1.932028481859     0.055323566951    -0.714486839031    12.000000000000
      Gh(C)           2.011162481859    -1.247557433049     0.072052160969    12.000000000000
      Gh(H)           1.252263481859     1.263487566951     0.944413160969     1.007825032230
      Gh(H)           3.001449481859     1.267613566951     0.722795160969     1.007825032230
      Gh(H)           1.981689481859     2.204749566951    -0.365844839031     1.007825032230
      Gh(H)           2.722396481859     0.081877566951    -1.468145839031     1.007825032230
      Gh(H)           0.986362481859     0.092191566951    -1.261221839031     1.007825032230
      Gh(H)           1.918831481859    -2.117310433049    -0.579237839031     1.007825032230
      Gh(H)           2.966073481859    -1.322210433049     0.594477160969     1.007825032230
      Gh(H)           1.217392481859    -1.287108433049     0.819195160969     1.007825032230

  Running in c1 symmetry.

  Rotational constants: A =      0.10485  B =      0.04516  C =      0.03968 [cm^-1]
  Rotational constants: A =   3143.39007  B =   1353.99822  C =   1189.43175 [MHz]
  Nuclear repulsion =  121.772359690752694

  Charge       = 0
  Multiplicity = 1
  Electrons    = 32
  Nalpha       = 16
  Nbeta        = 16

  ==> Algorithm <==

  SCF Algorithm Type is DF.
  DIIS enabled.
  MOM disabled.
  Fractional occupation disabled.
  Guess Type is SAD.
  Energy threshold   = 1.00e-08
  Density threshold  = 1.00e-08
  Integral threshold = 0.00e+00

  ==> Primary Basis <==

  Basis Set: JUN-CC-PVTZ
    Blend: JUN-CC-PVTZ
    Number of shells: 169
    Number of basis function: 455
    Number of Cartesian functions: 510
    Spherical Harmonics?: true
    Max angular momentum: 3

   => Loading Basis Set <=

    Name: (JUN-CC-PVTZ AUX)
    Role: JKFIT
    Keyword: DF_BASIS_SCF
    atoms 1-2, 10-12 entry C          line   152 file /home/r08543048/miniconda3/share/psi4/basis/jun-cc-pvtz-jkfit.gbs 
    atoms 3          entry O          line   272 file /home/r08543048/miniconda3/share/psi4/basis/jun-cc-pvtz-jkfit.gbs 
    atoms 4          entry N          line   212 file /home/r08543048/miniconda3/share/psi4/basis/jun-cc-pvtz-jkfit.gbs 
    atoms 5-9, 13-20 entry H          line    70 file /home/r08543048/miniconda3/share/psi4/basis/jun-cc-pvtz-jkfit.gbs 

  ==> Pre-Iterations <==

   -------------------------------------------------------
    Irrep   Nso     Nmo     Nalpha   Nbeta   Ndocc  Nsocc
   -------------------------------------------------------
     A        455     455       0       0       0       0
   -------------------------------------------------------
    Total     455     455      16      16      16       0
   -------------------------------------------------------

  ==> Integral Setup <==

  ==> DiskDFJK: Density-Fitted J/K Matrices <==

    J tasked:                  Yes
    K tasked:                  Yes
    wK tasked:                  No
    OpenMP threads:              1
    Integrals threads:           1
    Memory [MiB]:            15735
    Algorithm:                Core
    Integral Cache:           LOAD
    Schwarz Cutoff:          1E-12
    Fitting Condition:       1E-10

   => Auxiliary Basis Set <=

  Basis Set: (JUN-CC-PVTZ AUX)
    Blend: JUN-CC-PVTZ-JKFIT
    Number of shells: 333
    Number of basis function: 1055
    Number of Cartesian functions: 1267
    Spherical Harmonics?: true
    Max angular momentum: 4

  Minimum eigenvalue in the overlap matrix is 3.5390374893E-05.
  Using Symmetric Orthogonalization.

  SCF Guess: Superposition of Atomic Densities via on-the-fly atomic UHF.

  ==> Iterations <==

                           Total Energy        Delta E     RMS |[F,P]|

   @DF-RHF iter SAD:  -207.24435132987188   -2.07244e+02   0.00000e+00 
   @DF-RHF iter   1:  -207.88890612853660   -6.44555e-01   1.32779e-03 DIIS
   @DF-RHF iter   2:  -208.01677361529050   -1.27867e-01   7.90753e-04 DIIS
   @DF-RHF iter   3:  -208.05926233241235   -4.24887e-02   1.45739e-04 DIIS
   @DF-RHF iter   4:  -208.06168892907758   -2.42660e-03   5.97995e-05 DIIS
   @DF-RHF iter   5:  -208.06218534540116   -4.96416e-04   1.12227e-05 DIIS
   @DF-RHF iter   6:  -208.06221662065954   -3.12753e-05   5.37084e-06 DIIS
   @DF-RHF iter   7:  -208.06222245433696   -5.83368e-06   2.02485e-06 DIIS
   @DF-RHF iter   8:  -208.06222371470909   -1.26037e-06   6.45874e-07 DIIS
   @DF-RHF iter   9:  -208.06222386444642   -1.49737e-07   1.63904e-07 DIIS
   @DF-RHF iter  10:  -208.06222387170206   -7.25564e-09   5.30358e-08 DIIS
   @DF-RHF iter  11:  -208.06222387234075   -6.38693e-10   1.37763e-08 DIIS
   @DF-RHF iter  12:  -208.06222387238893   -4.81748e-11   2.88369e-09 DIIS
  Energy and wave function converged.


  ==> Post-Iterations <==

    Orbital Energies [Eh]
    ---------------------

    Doubly Occupied:                                                      

       1A    -20.515673     2A    -15.588392     3A    -11.354551  
       4A    -11.238839     5A     -1.376011     6A     -1.213739  
       7A     -1.007483     8A     -0.801221     9A     -0.728628  
      10A     -0.664868    11A     -0.616149    12A     -0.585423  
      13A     -0.563869    14A     -0.524722    15A     -0.424808  
      16A     -0.415109  

    Virtual:                                                              

      17A      0.031756    18A      0.046993    19A      0.049849  
      20A      0.059512    21A      0.068782    22A      0.081330  
      23A      0.083995    24A      0.091223    25A      0.096728  
      26A      0.108453    27A      0.112973    28A      0.114378  
      29A      0.121781    30A      0.124231    31A      0.134682  
      32A      0.139576    33A      0.149807    34A      0.155540  
      35A      0.161974    36A      0.164008    37A      0.176018  
      38A      0.180319    39A      0.200693    40A      0.205459  
      41A      0.228485    42A      0.239110    43A      0.244199  
      44A      0.256760    45A      0.264332    46A      0.275722  
      47A      0.279589    48A      0.285285    49A      0.293574  
      50A      0.297718    51A      0.300278    52A      0.307476  
      53A      0.311734    54A      0.327385    55A      0.332180  
      56A      0.336351    57A      0.344237    58A      0.349241  
      59A      0.355872    60A      0.365134    61A      0.371970  
      62A      0.381983    63A      0.387757    64A      0.399529  
      65A      0.403107    66A      0.412484    67A      0.424200  
      68A      0.426104    69A      0.439754    70A      0.449273  
      71A      0.471685    72A      0.476713    73A      0.483677  
      74A      0.490364    75A      0.494520    76A      0.506978  
      77A      0.517245    78A      0.522298    79A      0.537518  
      80A      0.542305    81A      0.543450    82A      0.563858  
      83A      0.570797    84A      0.577641    85A      0.586617  
      86A      0.594363    87A      0.602855    88A      0.608493  
      89A      0.619978    90A      0.623389    91A      0.632894  
      92A      0.638252    93A      0.639730    94A      0.654586  
      95A      0.659440    96A      0.665793    97A      0.675670  
      98A      0.691188    99A      0.702218   100A      0.713101  
     101A      0.721321   102A      0.738261   103A      0.757164  
     104A      0.773604   105A      0.780908   106A      0.787234  
     107A      0.804553   108A      0.810846   109A      0.820626  
     110A      0.824207   111A      0.868673   112A      0.879242  
     113A      0.888888   114A      0.913465   115A      0.933589  
     116A      0.956546   117A      0.961056   118A      0.982467  
     119A      0.999101   120A      1.034447   121A      1.044622  
     122A      1.053218   123A      1.065992   124A      1.087291  
     125A      1.094897   126A      1.105243   127A      1.117410  
     128A      1.123797   129A      1.139868   130A      1.149589  
     131A      1.151566   132A      1.161878   133A      1.176358  
     134A      1.185322   135A      1.193609   136A      1.208006  
     137A      1.210953   138A      1.237920   139A      1.242988  
     140A      1.260139   141A      1.262704   142A      1.271196  
     143A      1.292190   144A      1.300872   145A      1.306053  
     146A      1.312930   147A      1.321831   148A      1.346419  
     149A      1.350973   150A      1.357742   151A      1.377852  
     152A      1.380780   153A      1.390003   154A      1.394985  
     155A      1.410849   156A      1.421978   157A      1.426291  
     158A      1.431678   159A      1.454693   160A      1.457302  
     161A      1.459289   162A      1.474758   163A      1.480562  
     164A      1.502452   165A      1.509525   166A      1.515808  
     167A      1.530985   168A      1.541852   169A      1.547226  
     170A      1.555327   171A      1.583502   172A      1.593089  
     173A      1.598366   174A      1.612903   175A      1.614726  
     176A      1.642659   177A      1.658282   178A      1.660348  
     179A      1.670961   180A      1.689368   181A      1.702876  
     182A      1.714568   183A      1.728178   184A      1.750081  
     185A      1.759228   186A      1.785953   187A      1.794241  
     188A      1.806487   189A      1.834137   190A      1.857380  
     191A      1.879336   192A      1.894032   193A      1.915813  
     194A      1.930763   195A      1.947550   196A      1.961579  
     197A      1.981439   198A      2.029895   199A      2.053524  
     200A      2.087856   201A      2.100750   202A      2.138719  
     203A      2.159658   204A      2.186363   205A      2.192129  
     206A      2.213502   207A      2.231251   208A      2.281830  
     209A      2.348133   210A      2.392224   211A      2.413200  
     212A      2.424216   213A      2.460422   214A      2.481866  
     215A      2.501830   216A      2.515189   217A      2.536734  
     218A      2.549284   219A      2.571618   220A      2.606758  
     221A      2.613801   222A      2.747340   223A      2.763920  
     224A      2.800281   225A      2.838810   226A      2.915631  
     227A      2.958852   228A      3.016726   229A      3.036103  
     230A      3.059532   231A      3.112597   232A      3.148174  
     233A      3.200595   234A      3.224094   235A      3.255567  
     236A      3.277153   237A      3.291331   238A      3.328505  
     239A      3.372950   240A      3.404020   241A      3.434758  
     242A      3.447453   243A      3.462852   244A      3.478241  
     245A      3.508260   246A      3.527472   247A      3.534514  
     248A      3.536379   249A      3.541720   250A      3.571023  
     251A      3.577132   252A      3.583411   253A      3.591552  
     254A      3.618264   255A      3.625727   256A      3.630606  
     257A      3.642767   258A      3.648742   259A      3.666124  
     260A      3.672235   261A      3.679133   262A      3.706244  
     263A      3.730121   264A      3.741539   265A      3.745117  
     266A      3.777844   267A      3.787902   268A      3.796683  
     269A      3.825898   270A      3.833092   271A      3.856596  
     272A      3.860094   273A      3.871345   274A      3.883433  
     275A      3.900236   276A      3.906700   277A      3.912081  
     278A      3.937118   279A      3.949305   280A      3.955497  
     281A      3.975744   282A      3.994035   283A      4.017068  
     284A      4.028332   285A      4.065994   286A      4.093771  
     287A      4.099547   288A      4.110598   289A      4.144132  
     290A      4.161978   291A      4.163890   292A      4.170434  
     293A      4.182238   294A      4.205075   295A      4.208013  
     296A      4.230757   297A      4.240951   298A      4.255956  
     299A      4.280777   300A      4.321022   301A      4.324841  
     302A      4.347243   303A      4.370303   304A      4.385722  
     305A      4.390228   306A      4.399875   307A      4.409542  
     308A      4.425268   309A      4.433866   310A      4.446811  
     311A      4.466999   312A      4.476384   313A      4.495191  
     314A      4.509080   315A      4.519020   316A      4.529567  
     317A      4.541716   318A      4.553864   319A      4.566643  
     320A      4.571740   321A      4.600528   322A      4.600830  
     323A      4.621924   324A      4.631151   325A      4.635935  
     326A      4.657750   327A      4.681906   328A      4.693079  
     329A      4.704795   330A      4.719272   331A      4.725030  
     332A      4.735897   333A      4.757702   334A      4.761825  
     335A      4.778674   336A      4.812066   337A      4.816184  
     338A      4.824141   339A      4.834576   340A      4.840567  
     341A      4.854093   342A      4.869785   343A      4.877867  
     344A      4.895417   345A      4.905217   346A      4.916527  
     347A      4.928027   348A      4.934162   349A      4.949481  
     350A      4.961994   351A      4.979202   352A      4.983170  
     353A      5.001101   354A      5.004539   355A      5.036309  
     356A      5.068065   357A      5.091645   358A      5.113412  
     359A      5.118970   360A      5.139414   361A      5.143576  
     362A      5.151521   363A      5.176975   364A      5.179368  
     365A      5.200619   366A      5.210046   367A      5.240481  
     368A      5.245074   369A      5.282999   370A      5.306227  
     371A      5.316271   372A      5.395287   373A      5.398001  
     374A      5.416331   375A      5.459170   376A      5.486656  
     377A      5.503506   378A      5.538485   379A      5.594256  
     380A      5.601110   381A      5.611752   382A      5.626513  
     383A      5.632167   384A      5.642471   385A      5.648031  
     386A      5.682739   387A      5.703036   388A      5.721312  
     389A      5.750366   390A      5.789761   391A      5.842416  
     392A      5.847071   393A      5.900694   394A      5.919503  
     395A      5.970638   396A      6.000200   397A      6.034936  
     398A      6.048672   399A      6.069664   400A      6.104505  
     401A      6.190815   402A      6.204936   403A      6.208296  
     404A      6.234189   405A      6.263424   406A      6.317101  
     407A      6.350073   408A      6.355545   409A      6.380892  
     410A      6.422151   411A      6.435181   412A      6.445566  
     413A      6.471897   414A      6.510439   415A      6.516097  
     416A      6.550716   417A      6.626360   418A      6.689188  
     419A      6.766546   420A      6.781754   421A      6.820784  
     422A      6.908633   423A      6.997734   424A      7.220438  
     425A      7.306020   426A      7.324754   427A      7.370612  
     428A      7.432787   429A      7.475100   430A      7.489076  
     431A      7.534064   432A      7.578099   433A      7.593770  
     434A      7.646118   435A      7.696476   436A      7.704893  
     437A      7.737905   438A      7.796263   439A      7.810332  
     440A      7.843805   441A      7.868553   442A      7.915999  
     443A      8.057836   444A      8.226738   445A      8.501399  
     446A      9.574840   447A      9.924222   448A      9.934301  
     449A     12.360295   450A     13.967642   451A     14.910868  
     452A     15.423467   453A     44.326348   454A     45.402102  
     455A     45.895821  

    Final Occupation by Irrep:
              A 
    DOCC [    16 ]

  @DF-RHF Final Energy:  -208.06222387238893

   => Energetics <=

    Nuclear Repulsion Energy =            121.7723596907526940
    One-Electron Energy =                -524.4301948537781755
    Two-Electron Energy =                 194.5956112906365547
    Total Energy =                       -208.0622238723889268

Computation Completed


Properties will be evaluated at   0.000000,   0.000000,   0.000000 [a0]

Properties computed using the SCF density matrix

  Nuclear Dipole Moment: [e a0]
     X:   -91.4773      Y:     0.3889      Z:     2.1751

  Electronic Dipole Moment: [e a0]
     X:    91.0149      Y:    -0.5840      Z:    -3.7764

  Dipole Moment: [e a0]
     X:    -0.4624      Y:    -0.1951      Z:    -1.6013     Total:     1.6781

  Dipole Moment: [D]
     X:    -1.1753      Y:    -0.4958      Z:    -4.0702     Total:     4.2654


*** tstop() called on r282 at Sat Sep 11 01:56:34 2021
Module time:
	user time   =      28.31 seconds =       0.47 minutes
	system time =       0.54 seconds =       0.01 minutes
	total time  =         28 seconds =       0.47 minutes
Total time:
	user time   =      76.53 seconds =       1.28 minutes
	system time =       1.70 seconds =       0.03 minutes
	total time  =         78 seconds =       1.30 minutes

  //>>>>>>>>>>>>>>>>>>>>>>>>>>>>>>>>>>>//
  //            Monomer B HF           //
  //<<<<<<<<<<<<<<<<<<<<<<<<<<<<<<<<<<<//


*** tstart() called on r282
*** at Sat Sep 11 01:56:34 2021

   => Loading Basis Set <=

    Name: JUN-CC-PVTZ
    Role: ORBITAL
    Keyword: BASIS
    atoms 1-2, 10-12 entry C          line   217 file /home/r08543048/miniconda3/share/psi4/basis/jun-cc-pvtz.gbs 
    atoms 3          entry O          line   305 file /home/r08543048/miniconda3/share/psi4/basis/jun-cc-pvtz.gbs 
    atoms 4          entry N          line   261 file /home/r08543048/miniconda3/share/psi4/basis/jun-cc-pvtz.gbs 
    atoms 5-9, 13-20 entry H          line    36 file /home/r08543048/miniconda3/share/psi4/basis/jun-cc-pvtz.gbs 


         ---------------------------------------------------------
                                   SCF
               by Justin Turney, Rob Parrish, Andy Simmonett
                          and Daniel G. A. Smith
                              RHF Reference
                        1 Threads,  20980 MiB Core
         ---------------------------------------------------------

  ==> Geometry <==

    Molecular point group: c1
    Full point group: C1

    Geometry (in Angstrom), charge = 0, multiplicity = 1:

       Center              X                  Y                   Z               Mass       
    ------------   -----------------  -----------------  -----------------  -----------------
      Gh(C)          -1.751636518141     1.257869566951    -0.541619839031    12.000000000000
      Gh(C)          -1.462000518141    -0.034516433049     0.182177160969    12.000000000000
      Gh(O)          -1.052928518141    -0.058835433049     1.335228160969    15.994914619570
      Gh(N)          -1.694253518141    -1.175646433049    -0.526495839031    14.003074004430
      Gh(H)          -2.108814518141     1.113180566951    -1.558809839031     1.007825032230
      Gh(H)          -2.496837518141     1.810252566951     0.026966160969     1.007825032230
      Gh(H)          -0.839118518141     1.850954566951    -0.558373839031     1.007825032230
      Gh(H)          -1.452635518141    -2.054820433049    -0.101787839031     1.007825032230
      Gh(H)          -1.945252518141    -1.153683433049    -1.496705839031     1.007825032230
         C            2.045953481859     1.272286566951     0.196168160969    12.000000000000
         C            1.932028481859     0.055323566951    -0.714486839031    12.000000000000
         C            2.011162481859    -1.247557433049     0.072052160969    12.000000000000
         H            1.252263481859     1.263487566951     0.944413160969     1.007825032230
         H            3.001449481859     1.267613566951     0.722795160969     1.007825032230
         H            1.981689481859     2.204749566951    -0.365844839031     1.007825032230
         H            2.722396481859     0.081877566951    -1.468145839031     1.007825032230
         H            0.986362481859     0.092191566951    -1.261221839031     1.007825032230
         H            1.918831481859    -2.117310433049    -0.579237839031     1.007825032230
         H            2.966073481859    -1.322210433049     0.594477160969     1.007825032230
         H            1.217392481859    -1.287108433049     0.819195160969     1.007825032230

  Running in c1 symmetry.

  Rotational constants: A =      0.10485  B =      0.04516  C =      0.03968 [cm^-1]
  Rotational constants: A =   3143.39007  B =   1353.99822  C =   1189.43175 [MHz]
  Nuclear repulsion =   82.836039591946530

  Charge       = 0
  Multiplicity = 1
  Electrons    = 26
  Nalpha       = 13
  Nbeta        = 13

  ==> Algorithm <==

  SCF Algorithm Type is DF.
  DIIS enabled.
  MOM disabled.
  Fractional occupation disabled.
  Guess Type is SAD.
  Energy threshold   = 1.00e-08
  Density threshold  = 1.00e-08
  Integral threshold = 0.00e+00

  ==> Primary Basis <==

  Basis Set: JUN-CC-PVTZ
    Blend: JUN-CC-PVTZ
    Number of shells: 169
    Number of basis function: 455
    Number of Cartesian functions: 510
    Spherical Harmonics?: true
    Max angular momentum: 3

   => Loading Basis Set <=

    Name: (JUN-CC-PVTZ AUX)
    Role: JKFIT
    Keyword: DF_BASIS_SCF
    atoms 1-2, 10-12 entry C          line   152 file /home/r08543048/miniconda3/share/psi4/basis/jun-cc-pvtz-jkfit.gbs 
    atoms 3          entry O          line   272 file /home/r08543048/miniconda3/share/psi4/basis/jun-cc-pvtz-jkfit.gbs 
    atoms 4          entry N          line   212 file /home/r08543048/miniconda3/share/psi4/basis/jun-cc-pvtz-jkfit.gbs 
    atoms 5-9, 13-20 entry H          line    70 file /home/r08543048/miniconda3/share/psi4/basis/jun-cc-pvtz-jkfit.gbs 

  ==> Pre-Iterations <==

   -------------------------------------------------------
    Irrep   Nso     Nmo     Nalpha   Nbeta   Ndocc  Nsocc
   -------------------------------------------------------
     A        455     455       0       0       0       0
   -------------------------------------------------------
    Total     455     455      13      13      13       0
   -------------------------------------------------------

  ==> Integral Setup <==

  ==> DiskDFJK: Density-Fitted J/K Matrices <==

    J tasked:                  Yes
    K tasked:                  Yes
    wK tasked:                  No
    OpenMP threads:              1
    Integrals threads:           1
    Memory [MiB]:            15735
    Algorithm:                Core
    Integral Cache:           LOAD
    Schwarz Cutoff:          1E-12
    Fitting Condition:       1E-10

   => Auxiliary Basis Set <=

  Basis Set: (JUN-CC-PVTZ AUX)
    Blend: JUN-CC-PVTZ-JKFIT
    Number of shells: 333
    Number of basis function: 1055
    Number of Cartesian functions: 1267
    Spherical Harmonics?: true
    Max angular momentum: 4

  Minimum eigenvalue in the overlap matrix is 3.5390374893E-05.
  Using Symmetric Orthogonalization.

  SCF Guess: Superposition of Atomic Densities via on-the-fly atomic UHF.

  ==> Iterations <==

                           Total Energy        Delta E     RMS |[F,P]|

   @DF-RHF iter SAD:  -117.72605136211948   -1.17726e+02   0.00000e+00 
   @DF-RHF iter   1:  -118.14632762277833   -4.20276e-01   1.13252e-03 DIIS
   @DF-RHF iter   2:  -118.27566011889233   -1.29332e-01   5.35896e-04 DIIS
   @DF-RHF iter   3:  -118.30608421793421   -3.04241e-02   9.00830e-05 DIIS
   @DF-RHF iter   4:  -118.30793620625238   -1.85199e-03   1.77915e-05 DIIS
   @DF-RHF iter   5:  -118.30799466817602   -5.84619e-05   5.00496e-06 DIIS
   @DF-RHF iter   6:  -118.30799930992697   -4.64175e-06   8.99671e-07 DIIS
   @DF-RHF iter   7:  -118.30799948279144   -1.72864e-07   1.69889e-07 DIIS
   @DF-RHF iter   8:  -118.30799949039375   -7.60231e-09   2.99435e-08 DIIS
   @DF-RHF iter   9:  -118.30799949063410   -2.40348e-10   5.92258e-09 DIIS
  Energy and wave function converged.


  ==> Post-Iterations <==

    Orbital Energies [Eh]
    ---------------------

    Doubly Occupied:                                                      

       1A    -11.215581     2A    -11.208017     3A    -11.207923  
       4A     -1.054107     5A     -0.924415     6A     -0.799485  
       7A     -0.624905     8A     -0.598557     9A     -0.548942  
      10A     -0.530405    11A     -0.475730    12A     -0.474435  
      13A     -0.467915  

    Virtual:                                                              

      14A      0.034707    15A      0.049027    16A      0.054304  
      17A      0.058807    18A      0.070221    19A      0.076765  
      20A      0.085652    21A      0.090400    22A      0.094484  
      23A      0.107197    24A      0.112497    25A      0.115531  
      26A      0.118250    27A      0.126388    28A      0.134499  
      29A      0.139055    30A      0.151074    31A      0.159946  
      32A      0.167098    33A      0.171639    34A      0.177607  
      35A      0.197856    36A      0.204874    37A      0.208686  
      38A      0.223517    39A      0.232192    40A      0.235046  
      41A      0.252307    42A      0.265159    43A      0.269940  
      44A      0.279669    45A      0.292232    46A      0.296147  
      47A      0.312368    48A      0.316090    49A      0.318842  
      50A      0.323153    51A      0.336115    52A      0.338924  
      53A      0.341241    54A      0.346126    55A      0.348009  
      56A      0.355004    57A      0.369435    58A      0.373521  
      59A      0.381585    60A      0.385314    61A      0.394329  
      62A      0.404461    63A      0.408005    64A      0.412447  
      65A      0.419178    66A      0.425389    67A      0.438213  
      68A      0.444285    69A      0.453323    70A      0.474108  
      71A      0.479250    72A      0.491386    73A      0.495210  
      74A      0.511630    75A      0.522085    76A      0.532799  
      77A      0.539396    78A      0.548596    79A      0.555466  
      80A      0.560420    81A      0.568025    82A      0.582267  
      83A      0.586238    84A      0.590734    85A      0.610264  
      86A      0.623039    87A      0.641310    88A      0.656242  
      89A      0.664413    90A      0.672602    91A      0.681063  
      92A      0.684909    93A      0.691361    94A      0.699598  
      95A      0.725476    96A      0.738384    97A      0.756947  
      98A      0.767253    99A      0.773681   100A      0.776638  
     101A      0.790133   102A      0.806299   103A      0.807647  
     104A      0.816360   105A      0.824681   106A      0.841806  
     107A      0.852269   108A      0.855882   109A      0.870552  
     110A      0.875373   111A      0.886477   112A      0.898760  
     113A      0.902209   114A      0.923745   115A      0.931578  
     116A      0.950647   117A      0.959471   118A      0.961788  
     119A      0.989862   120A      0.998849   121A      1.008129  
     122A      1.018669   123A      1.035878   124A      1.043615  
     125A      1.056308   126A      1.076534   127A      1.107199  
     128A      1.108301   129A      1.124527   130A      1.137311  
     131A      1.149778   132A      1.178374   133A      1.183383  
     134A      1.191006   135A      1.198963   136A      1.220879  
     137A      1.225702   138A      1.255181   139A      1.277213  
     140A      1.281330   141A      1.287033   142A      1.310863  
     143A      1.324730   144A      1.340716   145A      1.345852  
     146A      1.353961   147A      1.356521   148A      1.372903  
     149A      1.391944   150A      1.399100   151A      1.413275  
     152A      1.420052   153A      1.428636   154A      1.441351  
     155A      1.460849   156A      1.475298   157A      1.478596  
     158A      1.496077   159A      1.509125   160A      1.536868  
     161A      1.545916   162A      1.547336   163A      1.567508  
     164A      1.572003   165A      1.574806   166A      1.590998  
     167A      1.595261   168A      1.606662   169A      1.617814  
     170A      1.622355   171A      1.626973   172A      1.634900  
     173A      1.652164   174A      1.674856   175A      1.686613  
     176A      1.697866   177A      1.717420   178A      1.721753  
     179A      1.737892   180A      1.746143   181A      1.766375  
     182A      1.779720   183A      1.790932   184A      1.828204  
     185A      1.841211   186A      1.851579   187A      1.857202  
     188A      1.862341   189A      1.898655   190A      1.909599  
     191A      1.949536   192A      1.964404   193A      1.970504  
     194A      1.975816   195A      1.993946   196A      2.009497  
     197A      2.032821   198A      2.063118   199A      2.090540  
     200A      2.138297   201A      2.177345   202A      2.249470  
     203A      2.332899   204A      2.358004   205A      2.395997  
     206A      2.415609   207A      2.462511   208A      2.519532  
     209A      2.611341   210A      2.665746   211A      2.676791  
     212A      2.736637   213A      2.750994   214A      2.769015  
     215A      2.781900   216A      2.807277   217A      2.835027  
     218A      2.851315   219A      2.858387   220A      2.876428  
     221A      2.907195   222A      2.928965   223A      2.938754  
     224A      2.946763   225A      2.966144   226A      2.993203  
     227A      3.008110   228A      3.038275   229A      3.069867  
     230A      3.082755   231A      3.108958   232A      3.121960  
     233A      3.143437   234A      3.160770   235A      3.175617  
     236A      3.198718   237A      3.239287   238A      3.265365  
     239A      3.281192   240A      3.325153   241A      3.326003  
     242A      3.344824   243A      3.355528   244A      3.373847  
     245A      3.384313   246A      3.392304   247A      3.431734  
     248A      3.451443   249A      3.464655   250A      3.491141  
     251A      3.500612   252A      3.511775   253A      3.516094  
     254A      3.536459   255A      3.540437   256A      3.546544  
     257A      3.580015   258A      3.591030   259A      3.603140  
     260A      3.609281   261A      3.634486   262A      3.639280  
     263A      3.653479   264A      3.660539   265A      3.700988  
     266A      3.723965   267A      3.749401   268A      3.762345  
     269A      3.779486   270A      3.797433   271A      3.807675  
     272A      3.831173   273A      3.842506   274A      3.848892  
     275A      3.857834   276A      3.874233   277A      3.888101  
     278A      3.908245   279A      3.929682   280A      3.943834  
     281A      3.953095   282A      3.965612   283A      3.977230  
     284A      3.987966   285A      4.002599   286A      4.032055  
     287A      4.053209   288A      4.083670   289A      4.113262  
     290A      4.124832   291A      4.180058   292A      4.201381  
     293A      4.209740   294A      4.224819   295A      4.227532  
     296A      4.246637   297A      4.250686   298A      4.257664  
     299A      4.296761   300A      4.308480   301A      4.312155  
     302A      4.320249   303A      4.325516   304A      4.348705  
     305A      4.364112   306A      4.370636   307A      4.383640  
     308A      4.387348   309A      4.410707   310A      4.419437  
     311A      4.426250   312A      4.442084   313A      4.483332  
     314A      4.493713   315A      4.503268   316A      4.514768  
     317A      4.517531   318A      4.539606   319A      4.551360  
     320A      4.559650   321A      4.572452   322A      4.611425  
     323A      4.619750   324A      4.644229   325A      4.650416  
     326A      4.660056   327A      4.680306   328A      4.691516  
     329A      4.698989   330A      4.705136   331A      4.715744  
     332A      4.748648   333A      4.757237   334A      4.772010  
     335A      4.779181   336A      4.784294   337A      4.798498  
     338A      4.813903   339A      4.821191   340A      4.823292  
     341A      4.836972   342A      4.862482   343A      4.882448  
     344A      4.894562   345A      4.900696   346A      4.916239  
     347A      4.937798   348A      4.953666   349A      4.967155  
     350A      4.991417   351A      5.000608   352A      5.010137  
     353A      5.040992   354A      5.051272   355A      5.065546  
     356A      5.095806   357A      5.124247   358A      5.133025  
     359A      5.146908   360A      5.156617   361A      5.183541  
     362A      5.197930   363A      5.218194   364A      5.245582  
     365A      5.267942   366A      5.285546   367A      5.291507  
     368A      5.309775   369A      5.341735   370A      5.396583  
     371A      5.438497   372A      5.453273   373A      5.483505  
     374A      5.522841   375A      5.583202   376A      5.596945  
     377A      5.610773   378A      5.666600   379A      5.690085  
     380A      5.728758   381A      5.746132   382A      5.771024  
     383A      5.779874   384A      5.791133   385A      5.806007  
     386A      5.818408   387A      5.835916   388A      5.878038  
     389A      5.928689   390A      5.931383   391A      5.957045  
     392A      5.988119   393A      5.990542   394A      6.047622  
     395A      6.062636   396A      6.110496   397A      6.147243  
     398A      6.194939   399A      6.229525   400A      6.316024  
     401A      6.360158   402A      6.443902   403A      6.455931  
     404A      6.472886   405A      6.478909   406A      6.504608  
     407A      6.531294   408A      6.552043   409A      6.557491  
     410A      6.583712   411A      6.602395   412A      6.618650  
     413A      6.731516   414A      6.749288   415A      6.854829  
     416A      6.970146   417A      7.070944   418A      7.274903  
     419A      7.337451   420A      7.422628   421A      7.458763  
     422A      7.533245   423A      7.586512   424A      7.691355  
     425A      7.831245   426A      7.840964   427A      7.862933  
     428A      7.897421   429A      7.986676   430A      8.267982  
     431A      8.422951   432A      8.775153   433A      9.110713  
     434A      9.145815   435A      9.180447   436A      9.620225  
     437A      9.845028   438A      9.872272   439A      9.910178  
     440A      9.942405   441A     10.091980   442A     10.489367  
     443A     10.957924   444A     11.394432   445A     11.552663  
     446A     11.738643   447A     11.977819   448A     13.826776  
     449A     13.874965   450A     14.505848   451A     14.717208  
     452A     42.724177   453A     46.303653   454A     54.591547  
     455A     61.465641  

    Final Occupation by Irrep:
              A 
    DOCC [    13 ]

  @DF-RHF Final Energy:  -118.30799949063410

   => Energetics <=

    Nuclear Repulsion Energy =             82.8360395919465304
    One-Electron Energy =                -322.0272434787898419
    Two-Electron Energy =                 120.8832043962092087
    Total Energy =                       -118.3079994906341028

Computation Completed


Properties will be evaluated at   0.000000,   0.000000,   0.000000 [a0]

Properties computed using the SCF density matrix

  Nuclear Dipole Moment: [e a0]
     X:    98.2305      Y:     1.2540      Z:    -6.1816

  Electronic Dipole Moment: [e a0]
     X:   -98.2323      Y:    -1.2523      Z:     6.1488

  Dipole Moment: [e a0]
     X:    -0.0018      Y:     0.0017      Z:    -0.0328     Total:     0.0329

  Dipole Moment: [D]
     X:    -0.0046      Y:     0.0044      Z:    -0.0833     Total:     0.0836


*** tstop() called on r282 at Sat Sep 11 01:56:57 2021
Module time:
	user time   =      21.80 seconds =       0.36 minutes
	system time =       0.48 seconds =       0.01 minutes
	total time  =         23 seconds =       0.38 minutes
Total time:
	user time   =      98.33 seconds =       1.64 minutes
	system time =       2.18 seconds =       0.04 minutes
	total time  =        101 seconds =       1.68 minutes
  Constructing Basis Sets for SAPT...

   => Loading Basis Set <=

    Name: (JUN-CC-PVTZ AUX)
    Role: RIFIT
    Keyword: DF_BASIS_SAPT
    atoms 1-2, 10-12 entry C          line   132 file /home/r08543048/miniconda3/share/psi4/basis/jun-cc-pvtz-ri.gbs 
    atoms 3          entry O          line   244 file /home/r08543048/miniconda3/share/psi4/basis/jun-cc-pvtz-ri.gbs 
    atoms 4          entry N          line   188 file /home/r08543048/miniconda3/share/psi4/basis/jun-cc-pvtz-ri.gbs 
    atoms 5-9, 13-20 entry H          line    30 file /home/r08543048/miniconda3/share/psi4/basis/jun-cc-pvtz-ri.gbs 


  //>>>>>>>>>>>>>>>>>>>>>>>>>>>>>>>>>>>//
  //               SAPT0               //
  //<<<<<<<<<<<<<<<<<<<<<<<<<<<<<<<<<<<//


*** tstart() called on r282
*** at Sat Sep 11 01:56:57 2021

        SAPT0  
    Ed Hohenstein
     6 June 2009

      Orbital Information
  --------------------------
    NSO        =       455
    NMO        =       455
    NRI        =      1069
    NOCC A     =        16
    NOCC B     =        13
    FOCC A     =         0
    FOCC B     =         0
    NVIR A     =       439
    NVIR B     =       442

    Elst10,r            =    -0.003381105549 [Eh]
    Exch10              =     0.007332713085 [Eh]
    Exch10 (S^2)        =     0.007320974100 [Eh]

    Iter     Energy [mEh]          dE [mEh]         Residual      Time [s]
       1      -0.45541378       0.455413782       2.924889130             1
       2      -0.55812462       0.102710843       0.701548111             1
       3      -0.55890977       0.000785142       0.245954013             2
       4      -0.55704885      -0.001860912       0.087687298             3
       5      -0.55697952      -0.000069331       0.030720145             4
       6      -0.55716656       0.000187033       0.014318121             4
       7      -0.55718450       0.000017944       0.005152539             5
       8      -0.55715908      -0.000025425       0.001541873             6
       9      -0.55715756      -0.000001520       0.000411789             7
      10      -0.55715943       0.000001879       0.000103463             7
      11      -0.55715925      -0.000000182       0.000030914             8
      12      -0.55715919      -0.000000061       0.000009741             9
      13      -0.55715921       0.000000015       0.000003322            10
      14      -0.55715921       0.000000005       0.000000890            10

    CHF Iterations converged


    Iter     Energy [mEh]          dE [mEh]         Residual      Time [s]
       1      -1.49216672       1.492166719       6.037162279             1
       2      -1.72758314       0.235416419       2.102036402             2
       3      -1.77363650       0.046053359       0.465158255             3
       4      -1.76901686      -0.004619637       0.153146176             3
       5      -1.76646316      -0.002553700       0.023513647             4
       6      -1.76678511       0.000321952       0.006928474             5
       7      -1.76682629       0.000041174       0.001514841             6
       8      -1.76680997      -0.000016316       0.000319997             6
       9      -1.76681026       0.000000289       0.000071329             7
      10      -1.76681074       0.000000481       0.000017686             8
      11      -1.76681073      -0.000000015       0.000004620             8
      12      -1.76681070      -0.000000022       0.000001188             9
      13      -1.76681070      -0.000000000       0.000000228            10

    CHF Iterations converged

    Ind20,r (A<-B)      =    -0.000557159212 [Eh]
    Ind20,r (B<-A)      =    -0.001766810703 [Eh]
    Ind20,r             =    -0.002323969915 [Eh]
    Exch-Ind20,r (A<-B) =     0.000462763933 [Eh]
    Exch-Ind20,r (B<-A) =     0.000985318692 [Eh]
    Exch-Ind20,r        =     0.001448082625 [Eh]
    Disp20              =    -0.008632642831 [Eh]
    Disp20 (SS)         =    -0.004316321415 [Eh]
    Disp20 (OS)         =    -0.004316321415 [Eh]
    Exch-Disp20         =     0.000832410715 [Eh]
    Exch-Disp20 (SS)    =     0.000535144824 [Eh]
    Exch-Disp20 (OS)    =     0.000297265891 [Eh]

    SAPT Results 
  --------------------------------------------------------------------------------------------------------
    Electrostatics                 -3.38110555 [mEh]      -2.12167576 [kcal/mol]      -8.87709140 [kJ/mol]
      Elst10,r                     -3.38110555 [mEh]      -2.12167576 [kcal/mol]      -8.87709140 [kJ/mol]

    Exchange                        7.33271308 [mEh]       4.60134693 [kcal/mol]      19.25203555 [kJ/mol]
      Exch10                        7.33271308 [mEh]       4.60134693 [kcal/mol]      19.25203555 [kJ/mol]
      Exch10(S^2)                   7.32097410 [mEh]       4.59398061 [kcal/mol]      19.22121485 [kJ/mol]

    Induction                      -1.39881370 [mEh]      -0.87776885 [kcal/mol]      -3.67258486 [kJ/mol]
      Ind20,r                      -2.32396991 [mEh]      -1.45831314 [kcal/mol]      -6.10158217 [kJ/mol]
      Exch-Ind20,r                  1.44808262 [mEh]       0.90868557 [kcal/mol]       3.80194041 [kJ/mol]
      delta HF,r (2)               -0.52292641 [mEh]      -0.32814128 [kcal/mol]      -1.37294310 [kJ/mol]

    Dispersion                     -7.80023212 [mEh]      -4.89471955 [kcal/mol]     -20.47950660 [kJ/mol]
      Disp20                       -8.63264283 [mEh]      -5.41706516 [kcal/mol]     -22.66500063 [kJ/mol]
      Exch-Disp20                   0.83241071 [mEh]       0.52234561 [kcal/mol]       2.18549403 [kJ/mol]
      Disp20 (SS)                  -4.31632142 [mEh]      -2.70853258 [kcal/mol]     -11.33250031 [kJ/mol]
      Disp20 (OS)                  -4.31632142 [mEh]      -2.70853258 [kcal/mol]     -11.33250031 [kJ/mol]
      Exch-Disp20 (SS)              0.53514482 [mEh]       0.33580845 [kcal/mol]       1.40502254 [kJ/mol]
      Exch-Disp20 (OS)              0.29726589 [mEh]       0.18653716 [kcal/mol]       0.78047149 [kJ/mol]

  Total HF                          2.55279384 [mEh]       1.60190232 [kcal/mol]       6.70235930 [kJ/mol]
  Total SAPT0                      -5.24743828 [mEh]      -3.29281723 [kcal/mol]     -13.77714730 [kJ/mol]

  Special recipe for scaled SAPT0 (see Manual):
    Electrostatics sSAPT0          -3.38110555 [mEh]      -2.12167576 [kcal/mol]      -8.87709140 [kJ/mol]
    Exchange sSAPT0                 7.33271308 [mEh]       4.60134693 [kcal/mol]      19.25203555 [kJ/mol]
    Induction sSAPT0               -1.39183664 [mEh]      -0.87339068 [kcal/mol]      -3.65426659 [kJ/mol]
    Dispersion sSAPT0              -7.79622145 [mEh]      -4.89220282 [kcal/mol]     -20.46897659 [kJ/mol]
  Total sSAPT0                     -5.23645055 [mEh]      -3.28592233 [kcal/mol]     -13.74829902 [kJ/mol]
  --------------------------------------------------------------------------------------------------------

*** tstop() called on r282 at Sat Sep 11 01:58:23 2021
Module time:
	user time   =      73.10 seconds =       1.22 minutes
	system time =      13.27 seconds =       0.22 minutes
	total time  =         86 seconds =       1.43 minutes
Total time:
	user time   =     171.56 seconds =       2.86 minutes
	system time =      15.45 seconds =       0.26 minutes
	total time  =        187 seconds =       3.12 minutes

    Psi4 stopped on: Saturday, 11 September 2021 01:58AM
    Psi4 wall time for execution: 0:03:07.28

*** Psi4 exiting successfully. Buy a developer a beer!
