
    -----------------------------------------------------------------------
          Psi4: An Open-Source Ab Initio Electronic Structure Package
                               Psi4 1.3.2 release

                         Git: Rev {HEAD} ecbda83 


    R. M. Parrish, L. A. Burns, D. G. A. Smith, A. C. Simmonett,
    A. E. DePrince III, E. G. Hohenstein, U. Bozkaya, A. Yu. Sokolov,
    R. Di Remigio, R. M. Richard, J. F. Gonthier, A. M. James,
    H. R. McAlexander, A. Kumar, M. Saitow, X. Wang, B. P. Pritchard,
    P. Verma, H. F. Schaefer III, K. Patkowski, R. A. King, E. F. Valeev,
    F. A. Evangelista, J. M. Turney, T. D. Crawford, and C. D. Sherrill,
    J. Chem. Theory Comput. 13(7) pp 3185--3197 (2017).
    (doi: 10.1021/acs.jctc.7b00174)


                         Additional Contributions by
    P. Kraus, H. Kruse, M. H. Lechner, M. C. Schieber, R. A. Shaw,
    A. Alenaizan, R. Galvelis, Z. L. Glick, S. Lehtola, and J. P. Misiewicz

    -----------------------------------------------------------------------


    Psi4 started on: Saturday, 11 September 2021 01:58AM

    Process ID: 57479
    Host:       r282
    PSIDATADIR: /home/r08543048/miniconda3/share/psi4
    Memory:     500.0 MiB
    Threads:    1
    
  ==> Input File <==

--------------------------------------------------------------------------
# Any line starting with the # character is a comment line
#! Sample  computation

memory 22 gb

molecule Dimer {
0 1
 C 2.157709   -0.449437    0.071021
 O 1.327598   -1.137577   -0.497970
 N 2.050313    0.889461    0.261783
 H 2.767973    1.399934    0.742008
 H 1.233979    1.373488   -0.073652
 H 3.086510   -0.863636    0.489953
 
 
 
 
 
 




    
    
 --
0 1
 C   -1.385159    1.224043   -0.580087
 C   -1.644182    0.285518    0.592633
 C   -2.153767   -1.070085    0.120731
 H   -0.667854    0.777009   -1.270554
 H   -2.304319    1.410706   -1.137096
 H   -1.003718    2.193351   -0.250898
 H   -2.366546    0.741225    1.273462
 H   -0.722501    0.143044    1.160513
 H   -2.356238   -1.735360    0.959709
 H   -3.077111   -0.958269   -0.449960
 H   -1.410754   -1.547339   -0.517988
   
   
   





units angstrom

no_reorient
symmetry c1
}

set globals{
  basis jun-cc-pvtz
}

energy('sapt0')


--------------------------------------------------------------------------

  Memory set to  20.489 GiB by Python driver.

  //>>>>>>>>>>>>>>>>>>>>>>>>>>>>>>>>>>>//
  //              Dimer HF             //
  //<<<<<<<<<<<<<<<<<<<<<<<<<<<<<<<<<<<//


*** tstart() called on r282
*** at Sat Sep 11 01:58:48 2021

   => Loading Basis Set <=

    Name: JUN-CC-PVTZ
    Role: ORBITAL
    Keyword: BASIS
    atoms 1, 7-9     entry C          line   217 file /home/r08543048/miniconda3/share/psi4/basis/jun-cc-pvtz.gbs 
    atoms 2          entry O          line   305 file /home/r08543048/miniconda3/share/psi4/basis/jun-cc-pvtz.gbs 
    atoms 3          entry N          line   261 file /home/r08543048/miniconda3/share/psi4/basis/jun-cc-pvtz.gbs 
    atoms 4-6, 10-17 entry H          line    36 file /home/r08543048/miniconda3/share/psi4/basis/jun-cc-pvtz.gbs 


         ---------------------------------------------------------
                                   SCF
               by Justin Turney, Rob Parrish, Andy Simmonett
                          and Daniel G. A. Smith
                              RHF Reference
                        1 Threads,  20980 MiB Core
         ---------------------------------------------------------

  ==> Geometry <==

    Molecular point group: c1
    Full point group: C1

    Geometry (in Angstrom), charge = 0, multiplicity = 1:

       Center              X                  Y                   Z               Mass       
    ------------   -----------------  -----------------  -----------------  -----------------
         C            2.081749700686    -0.416853417598     0.081291140655    12.000000000000
         O            1.251638700686    -1.104993417598    -0.487699859345    15.994914619570
         N            1.974353700686     0.922044582402     0.272053140655    14.003074004430
         H            2.692013700686     1.432517582402     0.752278140655     1.007825032230
         H            1.158019700686     1.406071582402    -0.063381859345     1.007825032230
         H            3.010550700686    -0.831052417598     0.500223140655     1.007825032230
         C           -1.461118299314     1.256626582402    -0.569816859345    12.000000000000
         C           -1.720141299314     0.318101582402     0.602903140655    12.000000000000
         C           -2.229726299314    -1.037501417598     0.131001140655    12.000000000000
         H           -0.743813299314     0.809592582402    -1.260283859345     1.007825032230
         H           -2.380278299314     1.443289582402    -1.126825859345     1.007825032230
         H           -1.079677299314     2.225934582402    -0.240627859345     1.007825032230
         H           -2.442505299314     0.773808582402     1.283732140655     1.007825032230
         H           -0.798460299314     0.175627582402     1.170783140655     1.007825032230
         H           -2.432197299314    -1.702776417598     0.969979140655     1.007825032230
         H           -3.153070299314    -0.925685417598    -0.439689859345     1.007825032230
         H           -1.486713299314    -1.514755417598    -0.507717859345     1.007825032230

  Running in c1 symmetry.

  Rotational constants: A =      0.15707  B =      0.05201  C =      0.04340 [cm^-1]
  Rotational constants: A =   4708.71060  B =   1559.11482  C =   1300.98228 [MHz]
  Nuclear repulsion =  239.313284750075780

  Charge       = 0
  Multiplicity = 1
  Electrons    = 50
  Nalpha       = 25
  Nbeta        = 25

  ==> Algorithm <==

  SCF Algorithm Type is DF.
  DIIS enabled.
  MOM disabled.
  Fractional occupation disabled.
  Guess Type is SAD.
  Energy threshold   = 1.00e-08
  Density threshold  = 1.00e-08
  Integral threshold = 0.00e+00

  ==> Primary Basis <==

  Basis Set: JUN-CC-PVTZ
    Blend: JUN-CC-PVTZ
    Number of shells: 144
    Number of basis function: 388
    Number of Cartesian functions: 435
    Spherical Harmonics?: true
    Max angular momentum: 3

   => Loading Basis Set <=

    Name: (JUN-CC-PVTZ AUX)
    Role: JKFIT
    Keyword: DF_BASIS_SCF
    atoms 1, 7-9     entry C          line   152 file /home/r08543048/miniconda3/share/psi4/basis/jun-cc-pvtz-jkfit.gbs 
    atoms 2          entry O          line   272 file /home/r08543048/miniconda3/share/psi4/basis/jun-cc-pvtz-jkfit.gbs 
    atoms 3          entry N          line   212 file /home/r08543048/miniconda3/share/psi4/basis/jun-cc-pvtz-jkfit.gbs 
    atoms 4-6, 10-17 entry H          line    70 file /home/r08543048/miniconda3/share/psi4/basis/jun-cc-pvtz-jkfit.gbs 

  ==> Pre-Iterations <==

   -------------------------------------------------------
    Irrep   Nso     Nmo     Nalpha   Nbeta   Ndocc  Nsocc
   -------------------------------------------------------
     A        388     388       0       0       0       0
   -------------------------------------------------------
    Total     388     388      25      25      25       0
   -------------------------------------------------------

  ==> Integral Setup <==

  ==> DiskDFJK: Density-Fitted J/K Matrices <==

    J tasked:                  Yes
    K tasked:                  Yes
    wK tasked:                  No
    OpenMP threads:              1
    Integrals threads:           1
    Memory [MiB]:            15735
    Algorithm:                Core
    Integral Cache:           SAVE
    Schwarz Cutoff:          1E-12
    Fitting Condition:       1E-10

   => Auxiliary Basis Set <=

  Basis Set: (JUN-CC-PVTZ AUX)
    Blend: JUN-CC-PVTZ-JKFIT
    Number of shells: 284
    Number of basis function: 900
    Number of Cartesian functions: 1081
    Spherical Harmonics?: true
    Max angular momentum: 4

  Minimum eigenvalue in the overlap matrix is 9.9047409040E-05.
  Using Symmetric Orthogonalization.

  SCF Guess: Superposition of Atomic Densities via on-the-fly atomic UHF.

  ==> Iterations <==

                           Total Energy        Delta E     RMS |[F,P]|

   @DF-RHF iter SAD:  -286.06161391582032   -2.86062e+02   0.00000e+00 
   @DF-RHF iter   1:  -287.02803082052731   -9.66417e-01   1.90265e-03 DIIS
   @DF-RHF iter   2:  -287.23167020533845   -2.03639e-01   1.13226e-03 DIIS
   @DF-RHF iter   3:  -287.30600823448208   -7.43380e-02   2.11335e-04 DIIS
   @DF-RHF iter   4:  -287.30971709713162   -3.70886e-03   9.33978e-05 DIIS
   @DF-RHF iter   5:  -287.31047300029070   -7.55903e-04   1.53099e-05 DIIS
   @DF-RHF iter   6:  -287.31051646360476   -4.34633e-05   6.48845e-06 DIIS
   @DF-RHF iter   7:  -287.31052347938305   -7.01578e-06   2.58253e-06 DIIS
   @DF-RHF iter   8:  -287.31052504181389   -1.56243e-06   1.00195e-06 DIIS
   @DF-RHF iter   9:  -287.31052527929614   -2.37482e-07   2.69157e-07 DIIS
   @DF-RHF iter  10:  -287.31052529412597   -1.48298e-08   9.16972e-08 DIIS
   @DF-RHF iter  11:  -287.31052529566830   -1.54233e-09   2.86800e-08 DIIS
   @DF-RHF iter  12:  -287.31052529581086   -1.42563e-10   6.82490e-09 DIIS
  Energy and wave function converged.


  ==> Post-Iterations <==

    Orbital Energies [Eh]
    ---------------------

    Doubly Occupied:                                                      

       1A    -20.531439     2A    -15.597327     3A    -11.359491  
       4A    -11.207691     5A    -11.205816     6A    -11.192731  
       7A     -1.385238     8A     -1.223014     9A     -1.046627  
      10A     -0.917022    11A     -0.855442    12A     -0.791800  
      13A     -0.754387    14A     -0.678479    15A     -0.622518  
      16A     -0.606525    17A     -0.591867    18A     -0.572467  
      19A     -0.540933    20A     -0.521688    21A     -0.467789  
      22A     -0.466915    23A     -0.460108    24A     -0.438610  
      25A     -0.423558  

    Virtual:                                                              

      26A      0.045781    27A      0.057379    28A      0.063034  
      29A      0.065134    30A      0.076320    31A      0.085676  
      32A      0.090498    33A      0.100006    34A      0.105624  
      35A      0.120025    36A      0.122421    37A      0.129091  
      38A      0.138928    39A      0.142365    40A      0.156443  
      41A      0.163362    42A      0.179702    43A      0.188092  
      44A      0.201361    45A      0.210946    46A      0.225483  
      47A      0.238101    48A      0.252576    49A      0.255798  
      50A      0.268702    51A      0.272012    52A      0.278111  
      53A      0.292786    54A      0.298989    55A      0.305145  
      56A      0.309293    57A      0.318072    58A      0.330928  
      59A      0.334693    60A      0.341014    61A      0.349159  
      62A      0.351699    63A      0.355242    64A      0.374399  
      65A      0.376031    66A      0.392419    67A      0.395883  
      68A      0.402596    69A      0.417703    70A      0.426092  
      71A      0.431972    72A      0.436757    73A      0.450560  
      74A      0.454576    75A      0.475604    76A      0.496811  
      77A      0.500404    78A      0.514613    79A      0.524525  
      80A      0.535993    81A      0.539435    82A      0.542669  
      83A      0.562683    84A      0.566237    85A      0.577588  
      86A      0.589050    87A      0.600790    88A      0.620007  
      89A      0.624267    90A      0.639009    91A      0.650484  
      92A      0.675780    93A      0.684195    94A      0.696385  
      95A      0.716005    96A      0.733182    97A      0.736748  
      98A      0.766843    99A      0.769704   100A      0.779470  
     101A      0.788656   102A      0.790480   103A      0.797621  
     104A      0.808972   105A      0.819356   106A      0.820404  
     107A      0.856547   108A      0.865431   109A      0.869550  
     110A      0.876980   111A      0.895072   112A      0.896056  
     113A      0.899216   114A      0.907561   115A      0.937587  
     116A      0.961789   117A      0.966530   118A      0.994190  
     119A      0.997996   120A      1.002789   121A      1.011026  
     122A      1.032174   123A      1.053727   124A      1.059920  
     125A      1.067054   126A      1.097403   127A      1.103779  
     128A      1.133806   129A      1.156970   130A      1.176645  
     131A      1.181890   132A      1.198598   133A      1.213451  
     134A      1.234996   135A      1.249522   136A      1.261516  
     137A      1.279013   138A      1.302575   139A      1.315078  
     140A      1.338902   141A      1.346293   142A      1.355327  
     143A      1.357015   144A      1.378767   145A      1.387087  
     146A      1.392604   147A      1.402939   148A      1.412147  
     149A      1.414884   150A      1.438920   151A      1.465190  
     152A      1.470391   153A      1.502308   154A      1.515025  
     155A      1.537749   156A      1.547671   157A      1.556974  
     158A      1.572753   159A      1.587387   160A      1.594137  
     161A      1.599192   162A      1.638558   163A      1.640457  
     164A      1.658806   165A      1.660975   166A      1.674534  
     167A      1.696986   168A      1.720071   169A      1.725438  
     170A      1.742283   171A      1.761875   172A      1.787017  
     173A      1.814094   174A      1.845414   175A      1.852156  
     176A      1.876931   177A      1.881093   178A      1.905144  
     179A      1.943150   180A      1.961296   181A      1.978219  
     182A      1.988657   183A      2.035727   184A      2.097323  
     185A      2.111894   186A      2.149495   187A      2.222669  
     188A      2.316011   189A      2.374811   190A      2.427294  
     191A      2.504502   192A      2.605144   193A      2.686153  
     194A      2.722199   195A      2.755150   196A      2.768794  
     197A      2.799903   198A      2.824338   199A      2.846479  
     200A      2.852607   201A      2.890143   202A      2.926981  
     203A      2.933488   204A      2.958005   205A      2.979174  
     206A      2.992873   207A      3.018793   208A      3.046212  
     209A      3.090583   210A      3.105527   211A      3.131159  
     212A      3.145083   213A      3.152763   214A      3.160646  
     215A      3.164056   216A      3.191291   217A      3.202773  
     218A      3.252290   219A      3.274792   220A      3.292528  
     221A      3.298633   222A      3.325101   223A      3.332455  
     224A      3.353325   225A      3.372732   226A      3.385102  
     227A      3.392294   228A      3.397468   229A      3.427436  
     230A      3.440727   231A      3.446833   232A      3.450361  
     233A      3.480233   234A      3.484112   235A      3.493898  
     236A      3.496969   237A      3.504394   238A      3.514532  
     239A      3.524239   240A      3.537671   241A      3.543334  
     242A      3.565987   243A      3.570704   244A      3.604643  
     245A      3.616407   246A      3.621029   247A      3.642700  
     248A      3.659081   249A      3.675296   250A      3.683130  
     251A      3.723795   252A      3.732870   253A      3.770161  
     254A      3.774675   255A      3.802868   256A      3.818583  
     257A      3.824061   258A      3.846261   259A      3.854738  
     260A      3.866587   261A      3.878339   262A      3.915338  
     263A      3.936858   264A      3.940995   265A      3.950189  
     266A      3.960034   267A      3.967353   268A      3.980618  
     269A      3.986367   270A      4.070032   271A      4.096202  
     272A      4.117822   273A      4.159727   274A      4.180491  
     275A      4.200116   276A      4.208694   277A      4.223591  
     278A      4.231037   279A      4.252965   280A      4.266474  
     281A      4.281329   282A      4.290530   283A      4.320883  
     284A      4.324910   285A      4.335774   286A      4.356051  
     287A      4.367823   288A      4.382296   289A      4.388297  
     290A      4.415204   291A      4.432334   292A      4.449167  
     293A      4.468683   294A      4.481998   295A      4.489798  
     296A      4.497757   297A      4.519996   298A      4.532382  
     299A      4.540924   300A      4.553110   301A      4.567522  
     302A      4.586698   303A      4.611825   304A      4.635112  
     305A      4.653243   306A      4.670953   307A      4.689331  
     308A      4.701765   309A      4.712637   310A      4.748922  
     311A      4.763318   312A      4.821160   313A      4.827504  
     314A      4.838706   315A      4.868402   316A      4.894987  
     317A      4.995580   318A      5.002857   319A      5.006473  
     320A      5.027642   321A      5.044234   322A      5.145910  
     323A      5.155096   324A      5.176068   325A      5.197373  
     326A      5.201669   327A      5.230489   328A      5.257318  
     329A      5.264895   330A      5.278791   331A      5.286917  
     332A      5.293217   333A      5.307579   334A      5.339024  
     335A      5.401210   336A      5.420938   337A      5.467381  
     338A      5.477757   339A      5.498039   340A      5.519198  
     341A      5.530324   342A      5.593721   343A      5.621961  
     344A      5.708975   345A      5.725559   346A      5.736698  
     347A      5.749562   348A      5.766519   349A      5.783836  
     350A      5.801114   351A      5.811438   352A      5.830682  
     353A      5.887979   354A      5.922769   355A      5.929243  
     356A      5.939597   357A      5.964823   358A      5.985262  
     359A      5.995832   360A      6.033118   361A      6.067038  
     362A      6.111011   363A      6.163653   364A      6.257661  
     365A      6.354599   366A      6.473333   367A      6.503903  
     368A      6.520069   369A      6.561034   370A      6.566865  
     371A      6.596685   372A      6.668586   373A      6.796877  
     374A      6.923144   375A      7.145102   376A      7.256383  
     377A      7.271675   378A      7.392018   379A      7.463581  
     380A      7.597612   381A      7.730235   382A      7.815248  
     383A     12.625758   384A     13.834114   385A     14.183974  
     386A     14.473697   387A     14.740777   388A     15.616352  

    Final Occupation by Irrep:
              A 
    DOCC [    25 ]

  @DF-RHF Final Energy:  -287.31052529581086

   => Energetics <=

    Nuclear Repulsion Energy =            239.3132847500757805
    One-Electron Energy =                -864.3286571919568360
    Two-Electron Energy =                 337.7048471460701649
    Total Energy =                       -287.3105252958108622

Computation Completed


Properties will be evaluated at   0.000000,   0.000000,   0.000000 [a0]

Properties computed using the SCF density matrix

  Nuclear Dipole Moment: [e a0]
     X:    -7.1771      Y:     3.0787      Z:     0.9704

  Electronic Dipole Moment: [e a0]
     X:     8.0794      Y:    -1.9294      Z:    -0.2944

  Dipole Moment: [e a0]
     X:     0.9022      Y:     1.1493      Z:     0.6760     Total:     1.6099

  Dipole Moment: [D]
     X:     2.2933      Y:     2.9212      Z:     1.7182     Total:     4.0920


*** tstop() called on r282 at Sat Sep 11 01:59:13 2021
Module time:
	user time   =      24.46 seconds =       0.41 minutes
	system time =       0.69 seconds =       0.01 minutes
	total time  =         25 seconds =       0.42 minutes
Total time:
	user time   =      24.46 seconds =       0.41 minutes
	system time =       0.69 seconds =       0.01 minutes
	total time  =         25 seconds =       0.42 minutes

  //>>>>>>>>>>>>>>>>>>>>>>>>>>>>>>>>>>>//
  //            Monomer A HF           //
  //<<<<<<<<<<<<<<<<<<<<<<<<<<<<<<<<<<<//


*** tstart() called on r282
*** at Sat Sep 11 01:59:13 2021

   => Loading Basis Set <=

    Name: JUN-CC-PVTZ
    Role: ORBITAL
    Keyword: BASIS
    atoms 1, 7-9     entry C          line   217 file /home/r08543048/miniconda3/share/psi4/basis/jun-cc-pvtz.gbs 
    atoms 2          entry O          line   305 file /home/r08543048/miniconda3/share/psi4/basis/jun-cc-pvtz.gbs 
    atoms 3          entry N          line   261 file /home/r08543048/miniconda3/share/psi4/basis/jun-cc-pvtz.gbs 
    atoms 4-6, 10-17 entry H          line    36 file /home/r08543048/miniconda3/share/psi4/basis/jun-cc-pvtz.gbs 


         ---------------------------------------------------------
                                   SCF
               by Justin Turney, Rob Parrish, Andy Simmonett
                          and Daniel G. A. Smith
                              RHF Reference
                        1 Threads,  20980 MiB Core
         ---------------------------------------------------------

  ==> Geometry <==

    Molecular point group: c1
    Full point group: C1

    Geometry (in Angstrom), charge = 0, multiplicity = 1:

       Center              X                  Y                   Z               Mass       
    ------------   -----------------  -----------------  -----------------  -----------------
         C            2.081749700686    -0.416853417598     0.081291140655    12.000000000000
         O            1.251638700686    -1.104993417598    -0.487699859345    15.994914619570
         N            1.974353700686     0.922044582402     0.272053140655    14.003074004430
         H            2.692013700686     1.432517582402     0.752278140655     1.007825032230
         H            1.158019700686     1.406071582402    -0.063381859345     1.007825032230
         H            3.010550700686    -0.831052417598     0.500223140655     1.007825032230
      Gh(C)          -1.461118299314     1.256626582402    -0.569816859345    12.000000000000
      Gh(C)          -1.720141299314     0.318101582402     0.602903140655    12.000000000000
      Gh(C)          -2.229726299314    -1.037501417598     0.131001140655    12.000000000000
      Gh(H)          -0.743813299314     0.809592582402    -1.260283859345     1.007825032230
      Gh(H)          -2.380278299314     1.443289582402    -1.126825859345     1.007825032230
      Gh(H)          -1.079677299314     2.225934582402    -0.240627859345     1.007825032230
      Gh(H)          -2.442505299314     0.773808582402     1.283732140655     1.007825032230
      Gh(H)          -0.798460299314     0.175627582402     1.170783140655     1.007825032230
      Gh(H)          -2.432197299314    -1.702776417598     0.969979140655     1.007825032230
      Gh(H)          -3.153070299314    -0.925685417598    -0.439689859345     1.007825032230
      Gh(H)          -1.486713299314    -1.514755417598    -0.507717859345     1.007825032230

  Running in c1 symmetry.

  Rotational constants: A =      0.15707  B =      0.05201  C =      0.04340 [cm^-1]
  Rotational constants: A =   4708.71060  B =   1559.11482  C =   1300.98228 [MHz]
  Nuclear repulsion =   71.149217083482554

  Charge       = 0
  Multiplicity = 1
  Electrons    = 24
  Nalpha       = 12
  Nbeta        = 12

  ==> Algorithm <==

  SCF Algorithm Type is DF.
  DIIS enabled.
  MOM disabled.
  Fractional occupation disabled.
  Guess Type is SAD.
  Energy threshold   = 1.00e-08
  Density threshold  = 1.00e-08
  Integral threshold = 0.00e+00

  ==> Primary Basis <==

  Basis Set: JUN-CC-PVTZ
    Blend: JUN-CC-PVTZ
    Number of shells: 144
    Number of basis function: 388
    Number of Cartesian functions: 435
    Spherical Harmonics?: true
    Max angular momentum: 3

   => Loading Basis Set <=

    Name: (JUN-CC-PVTZ AUX)
    Role: JKFIT
    Keyword: DF_BASIS_SCF
    atoms 1, 7-9     entry C          line   152 file /home/r08543048/miniconda3/share/psi4/basis/jun-cc-pvtz-jkfit.gbs 
    atoms 2          entry O          line   272 file /home/r08543048/miniconda3/share/psi4/basis/jun-cc-pvtz-jkfit.gbs 
    atoms 3          entry N          line   212 file /home/r08543048/miniconda3/share/psi4/basis/jun-cc-pvtz-jkfit.gbs 
    atoms 4-6, 10-17 entry H          line    70 file /home/r08543048/miniconda3/share/psi4/basis/jun-cc-pvtz-jkfit.gbs 

  ==> Pre-Iterations <==

   -------------------------------------------------------
    Irrep   Nso     Nmo     Nalpha   Nbeta   Ndocc  Nsocc
   -------------------------------------------------------
     A        388     388       0       0       0       0
   -------------------------------------------------------
    Total     388     388      12      12      12       0
   -------------------------------------------------------

  ==> Integral Setup <==

  ==> DiskDFJK: Density-Fitted J/K Matrices <==

    J tasked:                  Yes
    K tasked:                  Yes
    wK tasked:                  No
    OpenMP threads:              1
    Integrals threads:           1
    Memory [MiB]:            15735
    Algorithm:                Core
    Integral Cache:           LOAD
    Schwarz Cutoff:          1E-12
    Fitting Condition:       1E-10

   => Auxiliary Basis Set <=

  Basis Set: (JUN-CC-PVTZ AUX)
    Blend: JUN-CC-PVTZ-JKFIT
    Number of shells: 284
    Number of basis function: 900
    Number of Cartesian functions: 1081
    Spherical Harmonics?: true
    Max angular momentum: 4

  Minimum eigenvalue in the overlap matrix is 9.9047409040E-05.
  Using Symmetric Orthogonalization.

  SCF Guess: Superposition of Atomic Densities via on-the-fly atomic UHF.

  ==> Iterations <==

                           Total Energy        Delta E     RMS |[F,P]|

   @DF-RHF iter SAD:  -168.21795715736354   -1.68218e+02   0.00000e+00 
   @DF-RHF iter   1:  -168.88157428055527   -6.63617e-01   1.37669e-03 DIIS
   @DF-RHF iter   2:  -168.95801551235320   -7.64412e-02   9.47685e-04 DIIS
   @DF-RHF iter   3:  -169.00214458805689   -4.41291e-02   1.32567e-04 DIIS
   @DF-RHF iter   4:  -169.00355412947306   -1.40954e-03   5.74201e-05 DIIS
   @DF-RHF iter   5:  -169.00384914913596   -2.95020e-04   1.17912e-05 DIIS
   @DF-RHF iter   6:  -169.00388024791292   -3.10988e-05   5.69694e-06 DIIS
   @DF-RHF iter   7:  -169.00388689447328   -6.64656e-06   2.29937e-06 DIIS
   @DF-RHF iter   8:  -169.00388804130128   -1.14683e-06   6.60786e-07 DIIS
   @DF-RHF iter   9:  -169.00388813766352   -9.63622e-08   1.77583e-07 DIIS
   @DF-RHF iter  10:  -169.00388814477583   -7.11231e-09   4.42182e-08 DIIS
   @DF-RHF iter  11:  -169.00388814514119   -3.65361e-10   7.92100e-09 DIIS
  Energy and wave function converged.


  ==> Post-Iterations <==

    Orbital Energies [Eh]
    ---------------------

    Doubly Occupied:                                                      

       1A    -20.530509     2A    -15.598091     3A    -11.358270  
       4A     -1.383273     5A     -1.222788     6A     -0.854770  
       7A     -0.753768     8A     -0.676609     9A     -0.608990  
      10A     -0.571753    11A     -0.437815    12A     -0.422825  

    Virtual:                                                              

      13A      0.033904    14A      0.049746    15A      0.052850  
      16A      0.061227    17A      0.074038    18A      0.084606  
      19A      0.086320    20A      0.095026    21A      0.101640  
      22A      0.117082    23A      0.118309    24A      0.121770  
      25A      0.126749    26A      0.140094    27A      0.143796  
      28A      0.153398    29A      0.160057    30A      0.172196  
      31A      0.176234    32A      0.190128    33A      0.218415  
      34A      0.238250    35A      0.239884    36A      0.247548  
      37A      0.253443    38A      0.259079    39A      0.265192  
      40A      0.280804    41A      0.292895    42A      0.295495  
      43A      0.301670    44A      0.320951    45A      0.329451  
      46A      0.334276    47A      0.337315    48A      0.342898  
      49A      0.360013    50A      0.365129    51A      0.375907  
      52A      0.386287    53A      0.392347    54A      0.398742  
      55A      0.418599    56A      0.427794    57A      0.438427  
      58A      0.442127    59A      0.446535    60A      0.456510  
      61A      0.480959    62A      0.490448    63A      0.495720  
      64A      0.505776    65A      0.511079    66A      0.521823  
      67A      0.532307    68A      0.545196    69A      0.559633  
      70A      0.568305    71A      0.574708    72A      0.586641  
      73A      0.589196    74A      0.604866    75A      0.606633  
      76A      0.614276    77A      0.627324    78A      0.630228  
      79A      0.636394    80A      0.645189    81A      0.661404  
      82A      0.675510    83A      0.695325    84A      0.698906  
      85A      0.712581    86A      0.737286    87A      0.754872  
      88A      0.775693    89A      0.779313    90A      0.794015  
      91A      0.806507    92A      0.852790    93A      0.868260  
      94A      0.875816    95A      0.893358    96A      0.936751  
      97A      0.960692    98A      1.013215    99A      1.014614  
     100A      1.026731   101A      1.036042   102A      1.055944  
     103A      1.064176   104A      1.077683   105A      1.091799  
     106A      1.094459   107A      1.124816   108A      1.128428  
     109A      1.141670   110A      1.144932   111A      1.172074  
     112A      1.182546   113A      1.190901   114A      1.200091  
     115A      1.211151   116A      1.230624   117A      1.235919  
     118A      1.263176   119A      1.269977   120A      1.274207  
     121A      1.284514   122A      1.286183   123A      1.299700  
     124A      1.308634   125A      1.312488   126A      1.323279  
     127A      1.344393   128A      1.359012   129A      1.368122  
     130A      1.388206   131A      1.390277   132A      1.398070  
     133A      1.399754   134A      1.418794   135A      1.419834  
     136A      1.434672   137A      1.458530   138A      1.470687  
     139A      1.487808   140A      1.501699   141A      1.520097  
     142A      1.530259   143A      1.549099   144A      1.568030  
     145A      1.575328   146A      1.596356   147A      1.613459  
     148A      1.626618   149A      1.635180   150A      1.653913  
     151A      1.662834   152A      1.704447   153A      1.719998  
     154A      1.741372   155A      1.749153   156A      1.770566  
     157A      1.789580   158A      1.800149   159A      1.811308  
     160A      1.859562   161A      1.882640   162A      1.895403  
     163A      1.920933   164A      1.936069   165A      2.021844  
     166A      2.038370   167A      2.056116   168A      2.080084  
     169A      2.102509   170A      2.143432   171A      2.145354  
     172A      2.170695   173A      2.186028   174A      2.205912  
     175A      2.260505   176A      2.318742   177A      2.342473  
     178A      2.365794   179A      2.387782   180A      2.407615  
     181A      2.414868   182A      2.452936   183A      2.472170  
     184A      2.493492   185A      2.524753   186A      2.562533  
     187A      2.607895   188A      2.615112   189A      2.640260  
     190A      2.715839   191A      2.741284   192A      2.860689  
     193A      3.026968   194A      3.132538   195A      3.162545  
     196A      3.168673   197A      3.252786   198A      3.334661  
     199A      3.385249   200A      3.421511   201A      3.440050  
     202A      3.456393   203A      3.483071   204A      3.495270  
     205A      3.515688   206A      3.526066   207A      3.537805  
     208A      3.552834   209A      3.575122   210A      3.580894  
     211A      3.603623   212A      3.605638   213A      3.617996  
     214A      3.626505   215A      3.628233   216A      3.634946  
     217A      3.686366   218A      3.710991   219A      3.726616  
     220A      3.738785   221A      3.766547   222A      3.792076  
     223A      3.803061   224A      3.808221   225A      3.823571  
     226A      3.833955   227A      3.847602   228A      3.866237  
     229A      3.899080   230A      3.905764   231A      3.921880  
     232A      3.933508   233A      3.940446   234A      3.949535  
     235A      3.961703   236A      3.975621   237A      4.041466  
     238A      4.065738   239A      4.074777   240A      4.105166  
     241A      4.127961   242A      4.148117   243A      4.171763  
     244A      4.183297   245A      4.207431   246A      4.219252  
     247A      4.234252   248A      4.251590   249A      4.264984  
     250A      4.282644   251A      4.320576   252A      4.357780  
     253A      4.370577   254A      4.379330   255A      4.392526  
     256A      4.416402   257A      4.423510   258A      4.456012  
     259A      4.472120   260A      4.483901   261A      4.493206  
     262A      4.515356   263A      4.524926   264A      4.528605  
     265A      4.550130   266A      4.579007   267A      4.582103  
     268A      4.605270   269A      4.613735   270A      4.630823  
     271A      4.633752   272A      4.654114   273A      4.655750  
     274A      4.688875   275A      4.708709   276A      4.719301  
     277A      4.736696   278A      4.746021   279A      4.765111  
     280A      4.785851   281A      4.803589   282A      4.812243  
     283A      4.826164   284A      4.833390   285A      4.842858  
     286A      4.847764   287A      4.858367   288A      4.872449  
     289A      4.906283   290A      4.918926   291A      4.941657  
     292A      4.954384   293A      4.965391   294A      4.967098  
     295A      4.979959   296A      4.985129   297A      4.994933  
     298A      5.014034   299A      5.020424   300A      5.043408  
     301A      5.049636   302A      5.096247   303A      5.133142  
     304A      5.139398   305A      5.161669   306A      5.172453  
     307A      5.186454   308A      5.207956   309A      5.247294  
     310A      5.253686   311A      5.269208   312A      5.286119  
     313A      5.292963   314A      5.388567   315A      5.407385  
     316A      5.465994   317A      5.489397   318A      5.506050  
     319A      5.517462   320A      5.607466   321A      5.614996  
     322A      5.624892   323A      5.640399   324A      5.650599  
     325A      5.714379   326A      5.739893   327A      5.833907  
     328A      5.892233   329A      5.916899   330A      5.929925  
     331A      5.963194   332A      5.991682   333A      6.021835  
     334A      6.036199   335A      6.050614   336A      6.069677  
     337A      6.162778   338A      6.196621   339A      6.203349  
     340A      6.256953   341A      6.266136   342A      6.341634  
     343A      6.349911   344A      6.356964   345A      6.377302  
     346A      6.424244   347A      6.437849   348A      6.485232  
     349A      6.515908   350A      6.556217   351A      6.628385  
     352A      6.667414   353A      6.777926   354A      6.799462  
     355A      6.906590   356A      6.921342   357A      6.998515  
     358A      7.145333   359A      7.256219   360A      7.272424  
     361A      7.311815   362A      7.389688   363A      7.463202  
     364A      7.487415   365A      7.563650   366A      7.590130  
     367A      7.599628   368A      7.638218   369A      7.685996  
     370A      7.696722   371A      7.739414   372A      7.806084  
     373A      7.822091   374A      7.843505   375A      7.864017  
     376A      7.919051   377A      8.056685   378A      8.209400  
     379A      8.502836   380A      9.571050   381A      9.897073  
     382A      9.955563   383A     12.631738   384A     14.169734  
     385A     15.617498   386A     44.315869   387A     45.359250  
     388A     45.881097  

    Final Occupation by Irrep:
              A 
    DOCC [    12 ]

  @DF-RHF Final Energy:  -169.00388814514119

   => Energetics <=

    Nuclear Repulsion Energy =             71.1492170834825544
    One-Electron Energy =                -371.4672862547616887
    Two-Electron Energy =                 131.3141810261379590
    Total Energy =                       -169.0038881451411896

Computation Completed


Properties will be evaluated at   0.000000,   0.000000,   0.000000 [a0]

Properties computed using the SCF density matrix

  Nuclear Dipole Moment: [e a0]
     X:    81.6072      Y:    -5.4409      Z:    -0.6054

  Electronic Dipole Moment: [e a0]
     X:   -80.7414      Y:     6.7226      Z:     1.3118

  Dipole Moment: [e a0]
     X:     0.8658      Y:     1.2816      Z:     0.7064     Total:     1.7003

  Dipole Moment: [D]
     X:     2.2007      Y:     3.2575      Z:     1.7955     Total:     4.3219


*** tstop() called on r282 at Sat Sep 11 01:59:25 2021
Module time:
	user time   =      11.76 seconds =       0.20 minutes
	system time =       0.27 seconds =       0.00 minutes
	total time  =         12 seconds =       0.20 minutes
Total time:
	user time   =      36.23 seconds =       0.60 minutes
	system time =       0.96 seconds =       0.02 minutes
	total time  =         37 seconds =       0.62 minutes

  //>>>>>>>>>>>>>>>>>>>>>>>>>>>>>>>>>>>//
  //            Monomer B HF           //
  //<<<<<<<<<<<<<<<<<<<<<<<<<<<<<<<<<<<//


*** tstart() called on r282
*** at Sat Sep 11 01:59:25 2021

   => Loading Basis Set <=

    Name: JUN-CC-PVTZ
    Role: ORBITAL
    Keyword: BASIS
    atoms 1, 7-9     entry C          line   217 file /home/r08543048/miniconda3/share/psi4/basis/jun-cc-pvtz.gbs 
    atoms 2          entry O          line   305 file /home/r08543048/miniconda3/share/psi4/basis/jun-cc-pvtz.gbs 
    atoms 3          entry N          line   261 file /home/r08543048/miniconda3/share/psi4/basis/jun-cc-pvtz.gbs 
    atoms 4-6, 10-17 entry H          line    36 file /home/r08543048/miniconda3/share/psi4/basis/jun-cc-pvtz.gbs 


         ---------------------------------------------------------
                                   SCF
               by Justin Turney, Rob Parrish, Andy Simmonett
                          and Daniel G. A. Smith
                              RHF Reference
                        1 Threads,  20980 MiB Core
         ---------------------------------------------------------

  ==> Geometry <==

    Molecular point group: c1
    Full point group: C1

    Geometry (in Angstrom), charge = 0, multiplicity = 1:

       Center              X                  Y                   Z               Mass       
    ------------   -----------------  -----------------  -----------------  -----------------
      Gh(C)           2.081749700686    -0.416853417598     0.081291140655    12.000000000000
      Gh(O)           1.251638700686    -1.104993417598    -0.487699859345    15.994914619570
      Gh(N)           1.974353700686     0.922044582402     0.272053140655    14.003074004430
      Gh(H)           2.692013700686     1.432517582402     0.752278140655     1.007825032230
      Gh(H)           1.158019700686     1.406071582402    -0.063381859345     1.007825032230
      Gh(H)           3.010550700686    -0.831052417598     0.500223140655     1.007825032230
         C           -1.461118299314     1.256626582402    -0.569816859345    12.000000000000
         C           -1.720141299314     0.318101582402     0.602903140655    12.000000000000
         C           -2.229726299314    -1.037501417598     0.131001140655    12.000000000000
         H           -0.743813299314     0.809592582402    -1.260283859345     1.007825032230
         H           -2.380278299314     1.443289582402    -1.126825859345     1.007825032230
         H           -1.079677299314     2.225934582402    -0.240627859345     1.007825032230
         H           -2.442505299314     0.773808582402     1.283732140655     1.007825032230
         H           -0.798460299314     0.175627582402     1.170783140655     1.007825032230
         H           -2.432197299314    -1.702776417598     0.969979140655     1.007825032230
         H           -3.153070299314    -0.925685417598    -0.439689859345     1.007825032230
         H           -1.486713299314    -1.514755417598    -0.507717859345     1.007825032230

  Running in c1 symmetry.

  Rotational constants: A =      0.15707  B =      0.05201  C =      0.04340 [cm^-1]
  Rotational constants: A =   4708.71060  B =   1559.11482  C =   1300.98228 [MHz]
  Nuclear repulsion =   82.871466381077298

  Charge       = 0
  Multiplicity = 1
  Electrons    = 26
  Nalpha       = 13
  Nbeta        = 13

  ==> Algorithm <==

  SCF Algorithm Type is DF.
  DIIS enabled.
  MOM disabled.
  Fractional occupation disabled.
  Guess Type is SAD.
  Energy threshold   = 1.00e-08
  Density threshold  = 1.00e-08
  Integral threshold = 0.00e+00

  ==> Primary Basis <==

  Basis Set: JUN-CC-PVTZ
    Blend: JUN-CC-PVTZ
    Number of shells: 144
    Number of basis function: 388
    Number of Cartesian functions: 435
    Spherical Harmonics?: true
    Max angular momentum: 3

   => Loading Basis Set <=

    Name: (JUN-CC-PVTZ AUX)
    Role: JKFIT
    Keyword: DF_BASIS_SCF
    atoms 1, 7-9     entry C          line   152 file /home/r08543048/miniconda3/share/psi4/basis/jun-cc-pvtz-jkfit.gbs 
    atoms 2          entry O          line   272 file /home/r08543048/miniconda3/share/psi4/basis/jun-cc-pvtz-jkfit.gbs 
    atoms 3          entry N          line   212 file /home/r08543048/miniconda3/share/psi4/basis/jun-cc-pvtz-jkfit.gbs 
    atoms 4-6, 10-17 entry H          line    70 file /home/r08543048/miniconda3/share/psi4/basis/jun-cc-pvtz-jkfit.gbs 

  ==> Pre-Iterations <==

   -------------------------------------------------------
    Irrep   Nso     Nmo     Nalpha   Nbeta   Ndocc  Nsocc
   -------------------------------------------------------
     A        388     388       0       0       0       0
   -------------------------------------------------------
    Total     388     388      13      13      13       0
   -------------------------------------------------------

  ==> Integral Setup <==

  ==> DiskDFJK: Density-Fitted J/K Matrices <==

    J tasked:                  Yes
    K tasked:                  Yes
    wK tasked:                  No
    OpenMP threads:              1
    Integrals threads:           1
    Memory [MiB]:            15735
    Algorithm:                Core
    Integral Cache:           LOAD
    Schwarz Cutoff:          1E-12
    Fitting Condition:       1E-10

   => Auxiliary Basis Set <=

  Basis Set: (JUN-CC-PVTZ AUX)
    Blend: JUN-CC-PVTZ-JKFIT
    Number of shells: 284
    Number of basis function: 900
    Number of Cartesian functions: 1081
    Spherical Harmonics?: true
    Max angular momentum: 4

  Minimum eigenvalue in the overlap matrix is 9.9047409040E-05.
  Using Symmetric Orthogonalization.

  SCF Guess: Superposition of Atomic Densities via on-the-fly atomic UHF.

  ==> Iterations <==

                           Total Energy        Delta E     RMS |[F,P]|

   @DF-RHF iter SAD:  -117.72891057759738   -1.17729e+02   0.00000e+00 
   @DF-RHF iter   1:  -118.14604022031826   -4.17130e-01   1.32920e-03 DIIS
   @DF-RHF iter   2:  -118.27549389825811   -1.29454e-01   6.29315e-04 DIIS
   @DF-RHF iter   3:  -118.30599680293162   -3.05029e-02   1.05648e-04 DIIS
   @DF-RHF iter   4:  -118.30784894936065   -1.85215e-03   2.07529e-05 DIIS
   @DF-RHF iter   5:  -118.30790702340471   -5.80740e-05   5.85463e-06 DIIS
   @DF-RHF iter   6:  -118.30791163470204   -4.61130e-06   1.05527e-06 DIIS
   @DF-RHF iter   7:  -118.30791180725576   -1.72554e-07   1.98593e-07 DIIS
   @DF-RHF iter   8:  -118.30791181479778   -7.54201e-09   3.47627e-08 DIIS
   @DF-RHF iter   9:  -118.30791181503446   -2.36682e-10   6.86113e-09 DIIS
  Energy and wave function converged.


  ==> Post-Iterations <==

    Orbital Energies [Eh]
    ---------------------

    Doubly Occupied:                                                      

       1A    -11.215430     2A    -11.208081     3A    -11.207662  
       4A     -1.054442     5A     -0.924212     6A     -0.799445  
       7A     -0.625750     8A     -0.598346     9A     -0.548534  
      10A     -0.530522    11A     -0.475401    12A     -0.474219  
      13A     -0.468534  

    Virtual:                                                              

      14A      0.039981    15A      0.054180    16A      0.056734  
      17A      0.060336    18A      0.075331    19A      0.082995  
      20A      0.084974    21A      0.096893    22A      0.100719  
      23A      0.108567    24A      0.120353    25A      0.129037  
      26A      0.138090    27A      0.140151    28A      0.153900  
      29A      0.161882    30A      0.169869    31A      0.182851  
      32A      0.184457    33A      0.201922    34A      0.212260  
      35A      0.218324    36A      0.221408    37A      0.234544  
      38A      0.259671    39A      0.282786    40A      0.290883  
      41A      0.300220    42A      0.304004    43A      0.310863  
      44A      0.313259    45A      0.328823    46A      0.331092  
      47A      0.333912    48A      0.341966    49A      0.348505  
      50A      0.354792    51A      0.363917    52A      0.368439  
      53A      0.383566    54A      0.388632    55A      0.403216  
      56A      0.406743    57A      0.414322    58A      0.416211  
      59A      0.423419    60A      0.430078    61A      0.447339  
      62A      0.450008    63A      0.460461    64A      0.473557  
      65A      0.488597    66A      0.499070    67A      0.512392  
      68A      0.520081    69A      0.534329    70A      0.544799  
      71A      0.552672    72A      0.569351    73A      0.576466  
      74A      0.597429    75A      0.609381    76A      0.632079  
      77A      0.654287    78A      0.663955    79A      0.666481  
      80A      0.686046    81A      0.712491    82A      0.724869  
      83A      0.741092    84A      0.746005    85A      0.752517  
      86A      0.769945    87A      0.778252    88A      0.788219  
      89A      0.792867    90A      0.794604    91A      0.809318  
      92A      0.813541    93A      0.817015    94A      0.828517  
      95A      0.843713    96A      0.856154    97A      0.868746  
      98A      0.880674    99A      0.882906   100A      0.891008  
     101A      0.910065   102A      0.922097   103A      0.943869  
     104A      0.965985   105A      0.978597   106A      0.993370  
     107A      0.996767   108A      1.003498   109A      1.017404  
     110A      1.020718   111A      1.039821   112A      1.054958  
     113A      1.080514   114A      1.111501   115A      1.140631  
     116A      1.152962   117A      1.174179   118A      1.179250  
     119A      1.210511   120A      1.232966   121A      1.263386  
     122A      1.280065   123A      1.285432   124A      1.303637  
     125A      1.317326   126A      1.340386   127A      1.348580  
     128A      1.359955   129A      1.364145   130A      1.390678  
     131A      1.398021   132A      1.416584   133A      1.426889  
     134A      1.431418   135A      1.455959   136A      1.463602  
     137A      1.476567   138A      1.487811   139A      1.503012  
     140A      1.526712   141A      1.552417   142A      1.557479  
     143A      1.559546   144A      1.582038   145A      1.589423  
     146A      1.609474   147A      1.610527   148A      1.621807  
     149A      1.640974   150A      1.652660   151A      1.665652  
     152A      1.682764   153A      1.687034   154A      1.705522  
     155A      1.715357   156A      1.745181   157A      1.771044  
     158A      1.799171   159A      1.812040   160A      1.829917  
     161A      1.851319   162A      1.858617   163A      1.874389  
     164A      1.902390   165A      1.926749   166A      1.943379  
     167A      1.947035   168A      1.964310   169A      1.989130  
     170A      2.060034   171A      2.067808   172A      2.134405  
     173A      2.203027   174A      2.238818   175A      2.321174  
     176A      2.405479   177A      2.524532   178A      2.557928  
     179A      2.598667   180A      2.634959   181A      2.695047  
     182A      2.734347   183A      2.747836   184A      2.755653  
     185A      2.771616   186A      2.800732   187A      2.828276  
     188A      2.843904   189A      2.859479   190A      2.871575  
     191A      2.888005   192A      2.923845   193A      2.934385  
     194A      2.958861   195A      2.997044   196A      3.010537  
     197A      3.018206   198A      3.052838   199A      3.083490  
     200A      3.089760   201A      3.103589   202A      3.137236  
     203A      3.164022   204A      3.167312   205A      3.204212  
     206A      3.245944   207A      3.266557   208A      3.282153  
     209A      3.299579   210A      3.328831   211A      3.339905  
     212A      3.367405   213A      3.380909   214A      3.399647  
     215A      3.420297   216A      3.432494   217A      3.454127  
     218A      3.480882   219A      3.487903   220A      3.493510  
     221A      3.498508   222A      3.531768   223A      3.537536  
     224A      3.549628   225A      3.588088   226A      3.606529  
     227A      3.612905   228A      3.643860   229A      3.652506  
     230A      3.693422   231A      3.712545   232A      3.717430  
     233A      3.730477   234A      3.755370   235A      3.784875  
     236A      3.794848   237A      3.813924   238A      3.825836  
     239A      3.846417   240A      3.870742   241A      3.894289  
     242A      3.932362   243A      3.941810   244A      3.954656  
     245A      3.962392   246A      3.967241   247A      3.975237  
     248A      3.990371   249A      4.016251   250A      4.095710  
     251A      4.117937   252A      4.164291   253A      4.186589  
     254A      4.200441   255A      4.209565   256A      4.222899  
     257A      4.239522   258A      4.266627   259A      4.280850  
     260A      4.311351   261A      4.319036   262A      4.323859  
     263A      4.353381   264A      4.358069   265A      4.368429  
     266A      4.377297   267A      4.387369   268A      4.417541  
     269A      4.426807   270A      4.449128   271A      4.456656  
     272A      4.482114   273A      4.487368   274A      4.506018  
     275A      4.523230   276A      4.527253   277A      4.545463  
     278A      4.550333   279A      4.557337   280A      4.581920  
     281A      4.605248   282A      4.633558   283A      4.657519  
     284A      4.687123   285A      4.692259   286A      4.699184  
     287A      4.724498   288A      4.741249   289A      4.763055  
     290A      4.791322   291A      4.813963   292A      4.824601  
     293A      4.838614   294A      4.841889   295A      4.846896  
     296A      4.861545   297A      4.872161   298A      4.919638  
     299A      4.943066   300A      4.989414   301A      5.000062  
     302A      5.004997   303A      5.031462   304A      5.052094  
     305A      5.081752   306A      5.102438   307A      5.141117  
     308A      5.149615   309A      5.175584   310A      5.196099  
     311A      5.253825   312A      5.277291   313A      5.283469  
     314A      5.292939   315A      5.328355   316A      5.393828  
     317A      5.404262   318A      5.441418   319A      5.476538  
     320A      5.522354   321A      5.545745   322A      5.590726  
     323A      5.613922   324A      5.687248   325A      5.723956  
     326A      5.745387   327A      5.750668   328A      5.776425  
     329A      5.790525   330A      5.799110   331A      5.812717  
     332A      5.825740   333A      5.882228   334A      5.917084  
     335A      5.928880   336A      5.954561   337A      5.980250  
     338A      6.051440   339A      6.096089   340A      6.120523  
     341A      6.172577   342A      6.320323   343A      6.325727  
     344A      6.426127   345A      6.466318   346A      6.484440  
     347A      6.504020   348A      6.517274   349A      6.537160  
     350A      6.550883   351A      6.562067   352A      6.569286  
     353A      6.613203   354A      6.781332   355A      6.828302  
     356A      6.963830   357A      7.103008   358A      7.321241  
     359A      7.336366   360A      7.446313   361A      7.474137  
     362A      7.774602   363A      7.855211   364A      8.053083  
     365A      8.320502   366A      8.453461   367A      8.815568  
     368A      9.041625   369A      9.086472   370A      9.272904  
     371A      9.407681   372A      9.810153   373A      9.852877  
     374A      9.914534   375A     10.093679   376A     10.422935  
     377A     10.876081   378A     11.286758   379A     11.583422  
     380A     11.658303   381A     11.898820   382A     13.750972  
     383A     13.846068   384A     14.461702   385A     14.737444  
     386A     44.679779   387A     54.730346   388A     60.147876  

    Final Occupation by Irrep:
              A 
    DOCC [    13 ]

  @DF-RHF Final Energy:  -118.30791181503446

   => Energetics <=

    Nuclear Repulsion Energy =             82.8714663810772976
    One-Electron Energy =                -322.0975949558101092
    Two-Electron Energy =                 120.9182167596983390
    Total Energy =                       -118.3079118150344584

Computation Completed


Properties will be evaluated at   0.000000,   0.000000,   0.000000 [a0]

Properties computed using the SCF density matrix

  Nuclear Dipole Moment: [e a0]
     X:   -88.7843      Y:     8.5196      Z:     1.5758

  Electronic Dipole Moment: [e a0]
     X:    88.7872      Y:    -8.5131      Z:    -1.5438

  Dipole Moment: [e a0]
     X:     0.0029      Y:     0.0065      Z:     0.0320     Total:     0.0328

  Dipole Moment: [D]
     X:     0.0073      Y:     0.0166      Z:     0.0814     Total:     0.0834


*** tstop() called on r282 at Sat Sep 11 01:59:36 2021
Module time:
	user time   =      10.87 seconds =       0.18 minutes
	system time =       0.31 seconds =       0.01 minutes
	total time  =         11 seconds =       0.18 minutes
Total time:
	user time   =      47.11 seconds =       0.79 minutes
	system time =       1.27 seconds =       0.02 minutes
	total time  =         48 seconds =       0.80 minutes
  Constructing Basis Sets for SAPT...

   => Loading Basis Set <=

    Name: (JUN-CC-PVTZ AUX)
    Role: RIFIT
    Keyword: DF_BASIS_SAPT
    atoms 1, 7-9     entry C          line   132 file /home/r08543048/miniconda3/share/psi4/basis/jun-cc-pvtz-ri.gbs 
    atoms 2          entry O          line   244 file /home/r08543048/miniconda3/share/psi4/basis/jun-cc-pvtz-ri.gbs 
    atoms 3          entry N          line   188 file /home/r08543048/miniconda3/share/psi4/basis/jun-cc-pvtz-ri.gbs 
    atoms 4-6, 10-17 entry H          line    30 file /home/r08543048/miniconda3/share/psi4/basis/jun-cc-pvtz-ri.gbs 


  //>>>>>>>>>>>>>>>>>>>>>>>>>>>>>>>>>>>//
  //               SAPT0               //
  //<<<<<<<<<<<<<<<<<<<<<<<<<<<<<<<<<<<//


*** tstart() called on r282
*** at Sat Sep 11 01:59:36 2021

        SAPT0  
    Ed Hohenstein
     6 June 2009

      Orbital Information
  --------------------------
    NSO        =       388
    NMO        =       388
    NRI        =       912
    NOCC A     =        12
    NOCC B     =        13
    FOCC A     =         0
    FOCC B     =         0
    NVIR A     =       376
    NVIR B     =       375

    Elst10,r            =    -0.002946850533 [Eh]
    Exch10              =     0.005872675915 [Eh]
    Exch10 (S^2)        =     0.005859435398 [Eh]

    Iter     Energy [mEh]          dE [mEh]         Residual      Time [s]
       1      -0.46881582       0.468815822       2.879399007             0
       2      -0.58314575       0.114329933       0.652557967             1
       3      -0.58204505      -0.001100704       0.304013676             1
       4      -0.58020211      -0.001842939       0.107532812             1
       5      -0.58033235       0.000130238       0.043134254             2
       6      -0.58060034       0.000267991       0.016738187             2
       7      -0.58057711      -0.000023230       0.006527828             3
       8      -0.58055094      -0.000026172       0.001575345             3
       9      -0.58055245       0.000001508       0.000388930             4
      10      -0.58055384       0.000001391       0.000089933             4
      11      -0.58055352      -0.000000320       0.000025841             4
      12      -0.58055353       0.000000016       0.000011515             5
      13      -0.58055356       0.000000023       0.000003625             5
      14      -0.58055355      -0.000000010       0.000000707             6

    CHF Iterations converged


    Iter     Energy [mEh]          dE [mEh]         Residual      Time [s]
       1      -1.50138469       1.501384691       6.687699517             0
       2      -1.69865686       0.197272173       2.538147066             0
       3      -1.76820158       0.069544714       0.548006649             1
       4      -1.76692876      -0.001272821       0.157166823             1
       5      -1.76381922      -0.003109535       0.027236840             2
       6      -1.76403260       0.000213374       0.007951021             2
       7      -1.76410097       0.000068371       0.002115612             3
       8      -1.76409342      -0.000007547       0.000537463             3
       9      -1.76408890      -0.000004520       0.000113201             4
      10      -1.76408945       0.000000546       0.000030178             4
      11      -1.76408963       0.000000185       0.000007339             4
      12      -1.76408961      -0.000000022       0.000001617             5
      13      -1.76408960      -0.000000011       0.000000320             5

    CHF Iterations converged

    Ind20,r (A<-B)      =    -0.000580553547 [Eh]
    Ind20,r (B<-A)      =    -0.001764089598 [Eh]
    Ind20,r             =    -0.002344643145 [Eh]
    Exch-Ind20,r (A<-B) =     0.000542629239 [Eh]
    Exch-Ind20,r (B<-A) =     0.000623828807 [Eh]
    Exch-Ind20,r        =     0.001166458047 [Eh]
    Disp20              =    -0.006408223274 [Eh]
    Disp20 (SS)         =    -0.003204111637 [Eh]
    Disp20 (OS)         =    -0.003204111637 [Eh]
    Exch-Disp20         =     0.000618688608 [Eh]
    Exch-Disp20 (SS)    =     0.000398455893 [Eh]
    Exch-Disp20 (OS)    =     0.000220232715 [Eh]

    SAPT Results 
  --------------------------------------------------------------------------------------------------------
    Electrostatics                 -2.94685053 [mEh]      -1.84917663 [kcal/mol]      -7.73695501 [kJ/mol]
      Elst10,r                     -2.94685053 [mEh]      -1.84917663 [kcal/mol]      -7.73695501 [kJ/mol]

    Exchange                        5.87267591 [mEh]       3.68515977 [kcal/mol]      15.41870849 [kJ/mol]
      Exch10                        5.87267591 [mEh]       3.68515977 [kcal/mol]      15.41870849 [kJ/mol]
      Exch10(S^2)                   5.85943540 [mEh]       3.67685122 [kcal/mol]      15.38394552 [kJ/mol]

    Induction                      -1.65116102 [mEh]      -1.03611918 [kcal/mol]      -4.33512265 [kJ/mol]
      Ind20,r                      -2.34464314 [mEh]      -1.47128579 [kcal/mol]      -6.15585973 [kJ/mol]
      Exch-Ind20,r                  1.16645805 [mEh]       0.73196347 [kcal/mol]       3.06253518 [kJ/mol]
      delta HF,r (2)               -0.47297592 [mEh]      -0.29679687 [kcal/mol]      -1.24179810 [kJ/mol]

    Dispersion                     -5.78953467 [mEh]      -3.63298785 [kcal/mol]     -15.20042117 [kJ/mol]
      Disp20                       -6.40822327 [mEh]      -4.02122081 [kcal/mol]     -16.82478789 [kJ/mol]
      Exch-Disp20                   0.61868861 [mEh]       0.38823296 [kcal/mol]       1.62436672 [kJ/mol]
      Disp20 (SS)                  -3.20411164 [mEh]      -2.01061041 [kcal/mol]      -8.41239394 [kJ/mol]
      Disp20 (OS)                  -3.20411164 [mEh]      -2.01061041 [kcal/mol]      -8.41239394 [kJ/mol]
      Exch-Disp20 (SS)              0.39845589 [mEh]       0.25003485 [kcal/mol]       1.04614580 [kJ/mol]
      Exch-Disp20 (OS)              0.22023271 [mEh]       0.13819812 [kcal/mol]       0.57822091 [kJ/mol]

  Total HF                          1.27466436 [mEh]       0.79986396 [kcal/mol]       3.34663083 [kJ/mol]
  Total SAPT0                      -4.51487030 [mEh]      -2.83312389 [kcal/mol]     -11.85379034 [kJ/mol]

  Special recipe for scaled SAPT0 (see Manual):
    Electrostatics sSAPT0          -2.94685053 [mEh]      -1.84917663 [kcal/mol]      -7.73695501 [kJ/mol]
    Exchange sSAPT0                 5.87267591 [mEh]       3.68515977 [kcal/mol]      15.41870849 [kJ/mol]
    Induction sSAPT0               -1.64323563 [mEh]      -1.03114592 [kcal/mol]      -4.31431455 [kJ/mol]
    Dispersion sSAPT0              -5.78533105 [mEh]      -3.63035004 [kcal/mol]     -15.18938457 [kJ/mol]
  Total sSAPT0                     -4.50274129 [mEh]      -2.82551282 [kcal/mol]     -11.82194563 [kJ/mol]
  --------------------------------------------------------------------------------------------------------

*** tstop() called on r282 at Sat Sep 11 02:00:23 2021
Module time:
	user time   =      38.65 seconds =       0.64 minutes
	system time =       7.92 seconds =       0.13 minutes
	total time  =         47 seconds =       0.78 minutes
Total time:
	user time   =      85.87 seconds =       1.43 minutes
	system time =       9.19 seconds =       0.15 minutes
	total time  =         95 seconds =       1.58 minutes

    Psi4 stopped on: Saturday, 11 September 2021 02:00AM
    Psi4 wall time for execution: 0:01:35.21

*** Psi4 exiting successfully. Buy a developer a beer!
