
    -----------------------------------------------------------------------
          Psi4: An Open-Source Ab Initio Electronic Structure Package
                               Psi4 1.3.2 release

                         Git: Rev {HEAD} ecbda83 


    R. M. Parrish, L. A. Burns, D. G. A. Smith, A. C. Simmonett,
    A. E. DePrince III, E. G. Hohenstein, U. Bozkaya, A. Yu. Sokolov,
    R. Di Remigio, R. M. Richard, J. F. Gonthier, A. M. James,
    H. R. McAlexander, A. Kumar, M. Saitow, X. Wang, B. P. Pritchard,
    P. Verma, H. F. Schaefer III, K. Patkowski, R. A. King, E. F. Valeev,
    F. A. Evangelista, J. M. Turney, T. D. Crawford, and C. D. Sherrill,
    J. Chem. Theory Comput. 13(7) pp 3185--3197 (2017).
    (doi: 10.1021/acs.jctc.7b00174)


                         Additional Contributions by
    P. Kraus, H. Kruse, M. H. Lechner, M. C. Schieber, R. A. Shaw,
    A. Alenaizan, R. Galvelis, Z. L. Glick, S. Lehtola, and J. P. Misiewicz

    -----------------------------------------------------------------------


    Psi4 started on: Saturday, 11 September 2021 01:39AM

    Process ID: 57463
    Host:       r282
    PSIDATADIR: /home/r08543048/miniconda3/share/psi4
    Memory:     500.0 MiB
    Threads:    1
    
  ==> Input File <==

--------------------------------------------------------------------------
# Any line starting with the # character is a comment line
#! Sample  computation

memory 22 gb

molecule Dimer {
0 1
 C -1.439324    0.654744   -0.832134
 C -1.525504   -0.354671    0.294952
 O -1.052374   -0.159726    1.406342
 N -2.169131   -1.515877   -0.023015
 H -2.147505   -2.267166    0.645187
 H -2.453222   -1.712522   -0.964934
 C -1.072424    2.041559   -0.331583
 H -0.135386    2.011340    0.219634
 H -0.968396    2.733267   -1.166126
 H -1.837986    2.422936    0.341725
 H -0.683842    0.286006   -1.532018
 H -2.387156    0.667486   -1.374227




    
    
 --
0 1
 C   1.920046   -1.318616   -0.707597
 C   2.359021    0.129921   -0.526743
 C   2.476009    0.505935    0.945551
 H   2.653950   -1.998540   -0.272350
 H   0.969617   -1.498384   -0.202968
 H   1.805983   -1.580136   -1.760183
 H   1.644395    0.795370   -1.016910
 H   3.316578    0.286747   -1.028292
 H   2.791886    1.541806    1.070521
 H   1.518088    0.376755    1.451082
 H   3.208962   -0.129244    1.445541
   
   
   





units angstrom

no_reorient
symmetry c1
}

set globals{
  basis jun-cc-pvtz
}

energy('sapt0')


--------------------------------------------------------------------------

  Memory set to  20.489 GiB by Python driver.

  //>>>>>>>>>>>>>>>>>>>>>>>>>>>>>>>>>>>//
  //              Dimer HF             //
  //<<<<<<<<<<<<<<<<<<<<<<<<<<<<<<<<<<<//


*** tstart() called on r282
*** at Sat Sep 11 01:39:18 2021

   => Loading Basis Set <=

    Name: JUN-CC-PVTZ
    Role: ORBITAL
    Keyword: BASIS
    atoms 1-2, 7, 13-15    entry C          line   217 file /home/r08543048/miniconda3/share/psi4/basis/jun-cc-pvtz.gbs 
    atoms 3                entry O          line   305 file /home/r08543048/miniconda3/share/psi4/basis/jun-cc-pvtz.gbs 
    atoms 4                entry N          line   261 file /home/r08543048/miniconda3/share/psi4/basis/jun-cc-pvtz.gbs 
    atoms 5-6, 8-12, 16-23 entry H          line    36 file /home/r08543048/miniconda3/share/psi4/basis/jun-cc-pvtz.gbs 


         ---------------------------------------------------------
                                   SCF
               by Justin Turney, Rob Parrish, Andy Simmonett
                          and Daniel G. A. Smith
                              RHF Reference
                        1 Threads,  20980 MiB Core
         ---------------------------------------------------------

  ==> Geometry <==

    Molecular point group: c1
    Full point group: C1

    Geometry (in Angstrom), charge = 0, multiplicity = 1:

       Center              X                  Y                   Z               Mass       
    ------------   -----------------  -----------------  -----------------  -----------------
         C           -1.377502999124     0.671175742159    -0.867181869911    12.000000000000
         C           -1.463682999124    -0.338239257841     0.259904130089    12.000000000000
         O           -0.990552999124    -0.143294257841     1.371294130089    15.994914619570
         N           -2.107309999124    -1.499445257841    -0.058062869911    14.003074004430
         H           -2.085683999124    -2.250734257841     0.610139130089     1.007825032230
         H           -2.391400999124    -1.696090257841    -0.999981869911     1.007825032230
         C           -1.010602999124     2.057990742159    -0.366630869911    12.000000000000
         H           -0.073564999124     2.027771742159     0.184586130089     1.007825032230
         H           -0.906574999124     2.749698742159    -1.201173869911     1.007825032230
         H           -1.776164999124     2.439367742159     0.306677130089     1.007825032230
         H           -0.622020999124     0.302437742159    -1.567065869911     1.007825032230
         H           -2.325334999124     0.683917742159    -1.409274869911     1.007825032230
         C            1.981867000876    -1.302184257841    -0.742644869911    12.000000000000
         C            2.420842000876     0.146352742159    -0.561790869911    12.000000000000
         C            2.537830000876     0.522366742159     0.910503130089    12.000000000000
         H            2.715771000876    -1.982108257841    -0.307397869911     1.007825032230
         H            1.031438000876    -1.481952257841    -0.238015869911     1.007825032230
         H            1.867804000876    -1.563704257841    -1.795230869911     1.007825032230
         H            1.706216000876     0.811801742159    -1.051957869911     1.007825032230
         H            3.378399000876     0.303178742159    -1.063339869911     1.007825032230
         H            2.853707000876     1.558237742159     1.035473130089     1.007825032230
         H            1.579909000876     0.393186742159     1.416034130089     1.007825032230
         H            3.270783000876    -0.112812257841     1.410493130089     1.007825032230

  Running in c1 symmetry.

  Rotational constants: A =      0.07278  B =      0.03501  C =      0.03048 [cm^-1]
  Rotational constants: A =   2181.98472  B =   1049.67652  C =    913.72695 [MHz]
  Nuclear repulsion =  394.650265345805451

  Charge       = 0
  Multiplicity = 1
  Electrons    = 66
  Nalpha       = 33
  Nbeta        = 33

  ==> Algorithm <==

  SCF Algorithm Type is DF.
  DIIS enabled.
  MOM disabled.
  Fractional occupation disabled.
  Guess Type is SAD.
  Energy threshold   = 1.00e-08
  Density threshold  = 1.00e-08
  Integral threshold = 0.00e+00

  ==> Primary Basis <==

  Basis Set: JUN-CC-PVTZ
    Blend: JUN-CC-PVTZ
    Number of shells: 194
    Number of basis function: 522
    Number of Cartesian functions: 585
    Spherical Harmonics?: true
    Max angular momentum: 3

   => Loading Basis Set <=

    Name: (JUN-CC-PVTZ AUX)
    Role: JKFIT
    Keyword: DF_BASIS_SCF
    atoms 1-2, 7, 13-15    entry C          line   152 file /home/r08543048/miniconda3/share/psi4/basis/jun-cc-pvtz-jkfit.gbs 
    atoms 3                entry O          line   272 file /home/r08543048/miniconda3/share/psi4/basis/jun-cc-pvtz-jkfit.gbs 
    atoms 4                entry N          line   212 file /home/r08543048/miniconda3/share/psi4/basis/jun-cc-pvtz-jkfit.gbs 
    atoms 5-6, 8-12, 16-23 entry H          line    70 file /home/r08543048/miniconda3/share/psi4/basis/jun-cc-pvtz-jkfit.gbs 

  ==> Pre-Iterations <==

   -------------------------------------------------------
    Irrep   Nso     Nmo     Nalpha   Nbeta   Ndocc  Nsocc
   -------------------------------------------------------
     A        522     522       0       0       0       0
   -------------------------------------------------------
    Total     522     522      33      33      33       0
   -------------------------------------------------------

  ==> Integral Setup <==

  ==> DiskDFJK: Density-Fitted J/K Matrices <==

    J tasked:                  Yes
    K tasked:                  Yes
    wK tasked:                  No
    OpenMP threads:              1
    Integrals threads:           1
    Memory [MiB]:            15735
    Algorithm:                Core
    Integral Cache:           SAVE
    Schwarz Cutoff:          1E-12
    Fitting Condition:       1E-10

   => Auxiliary Basis Set <=

  Basis Set: (JUN-CC-PVTZ AUX)
    Blend: JUN-CC-PVTZ-JKFIT
    Number of shells: 382
    Number of basis function: 1210
    Number of Cartesian functions: 1453
    Spherical Harmonics?: true
    Max angular momentum: 4

  Minimum eigenvalue in the overlap matrix is 2.7826117980E-05.
  Using Symmetric Orthogonalization.

  SCF Guess: Superposition of Atomic Densities via on-the-fly atomic UHF.

  ==> Iterations <==

                           Total Energy        Delta E     RMS |[F,P]|

   @DF-RHF iter SAD:  -364.18177184098784   -3.64182e+02   0.00000e+00 
   @DF-RHF iter   1:  -365.04177150812336   -8.60000e-01   1.58449e-03 DIIS
   @DF-RHF iter   2:  -365.33050529368410   -2.88734e-01   8.47903e-04 DIIS
   @DF-RHF iter   3:  -365.40972803610418   -7.92227e-02   1.70785e-04 DIIS
   @DF-RHF iter   4:  -365.41454319235555   -4.81516e-03   8.26711e-05 DIIS
   @DF-RHF iter   5:  -365.41554622798657   -1.00304e-03   1.23974e-05 DIIS
   @DF-RHF iter   6:  -365.41559699744477   -5.07695e-05   4.48787e-06 DIIS
   @DF-RHF iter   7:  -365.41560318249788   -6.18505e-06   1.82299e-06 DIIS
   @DF-RHF iter   8:  -365.41560445460016   -1.27210e-06   6.95303e-07 DIIS
   @DF-RHF iter   9:  -365.41560467190948   -2.17309e-07   1.79381e-07 DIIS
   @DF-RHF iter  10:  -365.41560468530236   -1.33929e-08   5.98439e-08 DIIS
   @DF-RHF iter  11:  -365.41560468627586   -9.73500e-10   1.94218e-08 DIIS
   @DF-RHF iter  12:  -365.41560468636641   -9.05516e-11   4.77271e-09 DIIS
  Energy and wave function converged.


  ==> Post-Iterations <==

    Orbital Energies [Eh]
    ---------------------

    Doubly Occupied:                                                      

       1A    -20.519927     2A    -15.585781     3A    -11.352313  
       4A    -11.242313     5A    -11.215636     6A    -11.210278  
       7A    -11.204212     8A    -11.194000     9A     -1.379582  
      10A     -1.213142    11A     -1.054427    12A     -1.046925  
      13A     -0.917128    14A     -0.895235    15A     -0.793368  
      16A     -0.783736    17A     -0.721545    18A     -0.674343  
      19A     -0.645350    20A     -0.613293    21A     -0.601733  
      22A     -0.592203    23A     -0.556635    24A     -0.541653  
      25A     -0.527466    26A     -0.521769    27A     -0.517573  
      28A     -0.495110    29A     -0.468493    30A     -0.467645  
      31A     -0.460103    32A     -0.425476    33A     -0.416751  

    Virtual:                                                              

      34A      0.040157    35A      0.052196    36A      0.059046  
      37A      0.060587    38A      0.071427    39A      0.074778  
      40A      0.083391    41A      0.090510    42A      0.094154  
      43A      0.111991    44A      0.114311    45A      0.118444  
      46A      0.119478    47A      0.120377    48A      0.126382  
      49A      0.139464    50A      0.147603    51A      0.150284  
      52A      0.153811    53A      0.163922    54A      0.177053  
      55A      0.186865    56A      0.189864    57A      0.193548  
      58A      0.198867    59A      0.206843    60A      0.216550  
      61A      0.224600    62A      0.247781    63A      0.250209  
      64A      0.263510    65A      0.272566    66A      0.278530  
      67A      0.281822    68A      0.286404    69A      0.289544  
      70A      0.296034    71A      0.297831    72A      0.307926  
      73A      0.309262    74A      0.318100    75A      0.324086  
      76A      0.331345    77A      0.336523    78A      0.340560  
      79A      0.346402    80A      0.351083    81A      0.356002  
      82A      0.357521    83A      0.361827    84A      0.374013  
      85A      0.379369    86A      0.387220    87A      0.395638  
      88A      0.401177    89A      0.402778    90A      0.417364  
      91A      0.426395    92A      0.433064    93A      0.436730  
      94A      0.444021    95A      0.448551    96A      0.453568  
      97A      0.466154    98A      0.475960    99A      0.482146  
     100A      0.494739   101A      0.505484   102A      0.515156  
     103A      0.518345   104A      0.523098   105A      0.527992  
     106A      0.538666   107A      0.546736   108A      0.560287  
     109A      0.563840   110A      0.569363   111A      0.576992  
     112A      0.584082   113A      0.592601   114A      0.598407  
     115A      0.607730   116A      0.613418   117A      0.629952  
     118A      0.632575   119A      0.639079   120A      0.644476  
     121A      0.658809   122A      0.668068   123A      0.689786  
     124A      0.700988   125A      0.705733   126A      0.711994  
     127A      0.735926   128A      0.743825   129A      0.756931  
     130A      0.758040   131A      0.772320   132A      0.775854  
     133A      0.779398   134A      0.792059   135A      0.799532  
     136A      0.803651   137A      0.805130   138A      0.818207  
     139A      0.821330   140A      0.833337   141A      0.840914  
     142A      0.843006   143A      0.847999   144A      0.858879  
     145A      0.865787   146A      0.876532   147A      0.889089  
     148A      0.889659   149A      0.901850   150A      0.906861  
     151A      0.914966   152A      0.926818   153A      0.937555  
     154A      0.943190   155A      0.953512   156A      0.965055  
     157A      0.979665   158A      0.986447   159A      0.995883  
     160A      1.008339   161A      1.018741   162A      1.031660  
     163A      1.040813   164A      1.054617   165A      1.088674  
     166A      1.096274   167A      1.099021   168A      1.115359  
     169A      1.124611   170A      1.132586   171A      1.154005  
     172A      1.165289   173A      1.177616   174A      1.188149  
     175A      1.200587   176A      1.213543   177A      1.242637  
     178A      1.245986   179A      1.258147   180A      1.277713  
     181A      1.295163   182A      1.302746   183A      1.307127  
     184A      1.323456   185A      1.331254   186A      1.341626  
     187A      1.354369   188A      1.356937   189A      1.369437  
     190A      1.386362   191A      1.386959   192A      1.400418  
     193A      1.413498   194A      1.420888   195A      1.432039  
     196A      1.444553   197A      1.445751   198A      1.456312  
     199A      1.461190   200A      1.471495   201A      1.482341  
     202A      1.486804   203A      1.495893   204A      1.512327  
     205A      1.519969   206A      1.522870   207A      1.536096  
     208A      1.541029   209A      1.561143   210A      1.565318  
     211A      1.581705   212A      1.589403   213A      1.590314  
     214A      1.608474   215A      1.616098   216A      1.624146  
     217A      1.644067   218A      1.648430   219A      1.654631  
     220A      1.659207   221A      1.665744   222A      1.677175  
     223A      1.699237   224A      1.711029   225A      1.717786  
     226A      1.728069   227A      1.735348   228A      1.756216  
     229A      1.764855   230A      1.771749   231A      1.804991  
     232A      1.819590   233A      1.838915   234A      1.856101  
     235A      1.871266   236A      1.877402   237A      1.887355  
     238A      1.905057   239A      1.906611   240A      1.945710  
     241A      1.951403   242A      1.954111   243A      1.969385  
     244A      1.983529   245A      2.007042   246A      2.029212  
     247A      2.036773   248A      2.073926   249A      2.099972  
     250A      2.120363   251A      2.199878   252A      2.255764  
     253A      2.309266   254A      2.381931   255A      2.486795  
     256A      2.531435   257A      2.541425   258A      2.710355  
     259A      2.753635   260A      2.759651   261A      2.773896  
     262A      2.777590   263A      2.801021   264A      2.820262  
     265A      2.830469   266A      2.855433   267A      2.878032  
     268A      2.897961   269A      2.903196   270A      2.919439  
     271A      2.935740   272A      2.946256   273A      2.955522  
     274A      2.963100   275A      2.971197   276A      2.989163  
     277A      3.019855   278A      3.023140   279A      3.037797  
     280A      3.051505   281A      3.069882   282A      3.103465  
     283A      3.112896   284A      3.125337   285A      3.134952  
     286A      3.149250   287A      3.154934   288A      3.168697  
     289A      3.182642   290A      3.191373   291A      3.214957  
     292A      3.241450   293A      3.249062   294A      3.279001  
     295A      3.290900   296A      3.295658   297A      3.299539  
     298A      3.309784   299A      3.318039   300A      3.334423  
     301A      3.351192   302A      3.352737   303A      3.364270  
     304A      3.383910   305A      3.394167   306A      3.397324  
     307A      3.406742   308A      3.407465   309A      3.424996  
     310A      3.428637   311A      3.448711   312A      3.454720  
     313A      3.465544   314A      3.468237   315A      3.478071  
     316A      3.496753   317A      3.507816   318A      3.513284  
     319A      3.517239   320A      3.526588   321A      3.527604  
     322A      3.540386   323A      3.544650   324A      3.556725  
     325A      3.561986   326A      3.579017   327A      3.581977  
     328A      3.601982   329A      3.607857   330A      3.613853  
     331A      3.624611   332A      3.634780   333A      3.652209  
     334A      3.658742   335A      3.663257   336A      3.695157  
     337A      3.708846   338A      3.727874   339A      3.738986  
     340A      3.742548   341A      3.764143   342A      3.786031  
     343A      3.798698   344A      3.807641   345A      3.821085  
     346A      3.829074   347A      3.845432   348A      3.851345  
     349A      3.873247   350A      3.879774   351A      3.889035  
     352A      3.898918   353A      3.906464   354A      3.931908  
     355A      3.932586   356A      3.940885   357A      3.953487  
     358A      3.967795   359A      3.972188   360A      3.983850  
     361A      4.003261   362A      4.020262   363A      4.041918  
     364A      4.055026   365A      4.071184   366A      4.084793  
     367A      4.128308   368A      4.135133   369A      4.147086  
     370A      4.181944   371A      4.205340   372A      4.212938  
     373A      4.224331   374A      4.229236   375A      4.236994  
     376A      4.246854   377A      4.258270   378A      4.269787  
     379A      4.279205   380A      4.294287   381A      4.298461  
     382A      4.328586   383A      4.329876   384A      4.340462  
     385A      4.346018   386A      4.360610   387A      4.377785  
     388A      4.385481   389A      4.395616   390A      4.401817  
     391A      4.408835   392A      4.424057   393A      4.428667  
     394A      4.431246   395A      4.440293   396A      4.460705  
     397A      4.468684   398A      4.477013   399A      4.488893  
     400A      4.508927   401A      4.511331   402A      4.516299  
     403A      4.527515   404A      4.546681   405A      4.557010  
     406A      4.570736   407A      4.574222   408A      4.594130  
     409A      4.606828   410A      4.618362   411A      4.645995  
     412A      4.660998   413A      4.666220   414A      4.690935  
     415A      4.698367   416A      4.707527   417A      4.711910  
     418A      4.732157   419A      4.749822   420A      4.757156  
     421A      4.767795   422A      4.818250   423A      4.834318  
     424A      4.844795   425A      4.856706   426A      4.864938  
     427A      4.880340   428A      4.921110   429A      4.932618  
     430A      4.975758   431A      4.989198   432A      4.996976  
     433A      5.013702   434A      5.036944   435A      5.062098  
     436A      5.110564   437A      5.143243   438A      5.164186  
     439A      5.171966   440A      5.182196   441A      5.208873  
     442A      5.230978   443A      5.248812   444A      5.257769  
     445A      5.275731   446A      5.285850   447A      5.294477  
     448A      5.302037   449A      5.304318   450A      5.312240  
     451A      5.343178   452A      5.355277   453A      5.374397  
     454A      5.393684   455A      5.403307   456A      5.417926  
     457A      5.457694   458A      5.480150   459A      5.492441  
     460A      5.524822   461A      5.530641   462A      5.600942  
     463A      5.608290   464A      5.616791   465A      5.646726  
     466A      5.680323   467A      5.697517   468A      5.736572  
     469A      5.742623   470A      5.758460   471A      5.762416  
     472A      5.772161   473A      5.777984   474A      5.789529  
     475A      5.813388   476A      5.818520   477A      5.830117  
     478A      5.834327   479A      5.859586   480A      5.874496  
     481A      5.900745   482A      5.939297   483A      5.944368  
     484A      5.947007   485A      5.989818   486A      5.997442  
     487A      6.016324   488A      6.036040   489A      6.078941  
     490A      6.106693   491A      6.119115   492A      6.202437  
     493A      6.237286   494A      6.357371   495A      6.475468  
     496A      6.486475   497A      6.525811   498A      6.538776  
     499A      6.552660   500A      6.565139   501A      6.575194  
     502A      6.578137   503A      6.614613   504A      6.682704  
     505A      6.792193   506A      6.844096   507A      7.221038  
     508A      7.311080   509A      7.372715   510A      7.453722  
     511A      7.465744   512A      7.529280   513A      7.757508  
     514A      7.793309   515A     12.200435   516A     13.848992  
     517A     14.063857   518A     14.210733   519A     14.541386  
     520A     14.683464   521A     14.851590   522A     15.464769  

    Final Occupation by Irrep:
              A 
    DOCC [    33 ]

  @DF-RHF Final Energy:  -365.41560468636641

   => Energetics <=

    Nuclear Repulsion Energy =            394.6502653458054510
    One-Electron Energy =               -1278.4214515444814424
    Two-Electron Energy =                 518.3555815123095272
    Total Energy =                       -365.4156046863664642

Computation Completed


Properties will be evaluated at   0.000000,   0.000000,   0.000000 [a0]

Properties computed using the SCF density matrix

  Nuclear Dipole Moment: [e a0]
     X:     7.7104      Y:     2.0494      Z:    -4.3713

  Electronic Dipole Moment: [e a0]
     X:    -8.3218      Y:    -2.5243      Z:     3.0408

  Dipole Moment: [e a0]
     X:    -0.6114      Y:    -0.4749      Z:    -1.3305     Total:     1.5393

  Dipole Moment: [D]
     X:    -1.5540      Y:    -1.2070      Z:    -3.3817     Total:     3.9125


*** tstop() called on r282 at Sat Sep 11 01:40:33 2021
Module time:
	user time   =      73.74 seconds =       1.23 minutes
	system time =       1.67 seconds =       0.03 minutes
	total time  =         75 seconds =       1.25 minutes
Total time:
	user time   =      73.74 seconds =       1.23 minutes
	system time =       1.67 seconds =       0.03 minutes
	total time  =         75 seconds =       1.25 minutes

  //>>>>>>>>>>>>>>>>>>>>>>>>>>>>>>>>>>>//
  //            Monomer A HF           //
  //<<<<<<<<<<<<<<<<<<<<<<<<<<<<<<<<<<<//


*** tstart() called on r282
*** at Sat Sep 11 01:40:33 2021

   => Loading Basis Set <=

    Name: JUN-CC-PVTZ
    Role: ORBITAL
    Keyword: BASIS
    atoms 1-2, 7, 13-15    entry C          line   217 file /home/r08543048/miniconda3/share/psi4/basis/jun-cc-pvtz.gbs 
    atoms 3                entry O          line   305 file /home/r08543048/miniconda3/share/psi4/basis/jun-cc-pvtz.gbs 
    atoms 4                entry N          line   261 file /home/r08543048/miniconda3/share/psi4/basis/jun-cc-pvtz.gbs 
    atoms 5-6, 8-12, 16-23 entry H          line    36 file /home/r08543048/miniconda3/share/psi4/basis/jun-cc-pvtz.gbs 


         ---------------------------------------------------------
                                   SCF
               by Justin Turney, Rob Parrish, Andy Simmonett
                          and Daniel G. A. Smith
                              RHF Reference
                        1 Threads,  20980 MiB Core
         ---------------------------------------------------------

  ==> Geometry <==

    Molecular point group: c1
    Full point group: C1

    Geometry (in Angstrom), charge = 0, multiplicity = 1:

       Center              X                  Y                   Z               Mass       
    ------------   -----------------  -----------------  -----------------  -----------------
         C           -1.377502999124     0.671175742159    -0.867181869911    12.000000000000
         C           -1.463682999124    -0.338239257841     0.259904130089    12.000000000000
         O           -0.990552999124    -0.143294257841     1.371294130089    15.994914619570
         N           -2.107309999124    -1.499445257841    -0.058062869911    14.003074004430
         H           -2.085683999124    -2.250734257841     0.610139130089     1.007825032230
         H           -2.391400999124    -1.696090257841    -0.999981869911     1.007825032230
         C           -1.010602999124     2.057990742159    -0.366630869911    12.000000000000
         H           -0.073564999124     2.027771742159     0.184586130089     1.007825032230
         H           -0.906574999124     2.749698742159    -1.201173869911     1.007825032230
         H           -1.776164999124     2.439367742159     0.306677130089     1.007825032230
         H           -0.622020999124     0.302437742159    -1.567065869911     1.007825032230
         H           -2.325334999124     0.683917742159    -1.409274869911     1.007825032230
      Gh(C)           1.981867000876    -1.302184257841    -0.742644869911    12.000000000000
      Gh(C)           2.420842000876     0.146352742159    -0.561790869911    12.000000000000
      Gh(C)           2.537830000876     0.522366742159     0.910503130089    12.000000000000
      Gh(H)           2.715771000876    -1.982108257841    -0.307397869911     1.007825032230
      Gh(H)           1.031438000876    -1.481952257841    -0.238015869911     1.007825032230
      Gh(H)           1.867804000876    -1.563704257841    -1.795230869911     1.007825032230
      Gh(H)           1.706216000876     0.811801742159    -1.051957869911     1.007825032230
      Gh(H)           3.378399000876     0.303178742159    -1.063339869911     1.007825032230
      Gh(H)           2.853707000876     1.558237742159     1.035473130089     1.007825032230
      Gh(H)           1.579909000876     0.393186742159     1.416034130089     1.007825032230
      Gh(H)           3.270783000876    -0.112812257841     1.410493130089     1.007825032230

  Running in c1 symmetry.

  Rotational constants: A =      0.07278  B =      0.03501  C =      0.03048 [cm^-1]
  Rotational constants: A =   2181.98472  B =   1049.67652  C =    913.72695 [MHz]
  Nuclear repulsion =  179.143028786614394

  Charge       = 0
  Multiplicity = 1
  Electrons    = 40
  Nalpha       = 20
  Nbeta        = 20

  ==> Algorithm <==

  SCF Algorithm Type is DF.
  DIIS enabled.
  MOM disabled.
  Fractional occupation disabled.
  Guess Type is SAD.
  Energy threshold   = 1.00e-08
  Density threshold  = 1.00e-08
  Integral threshold = 0.00e+00

  ==> Primary Basis <==

  Basis Set: JUN-CC-PVTZ
    Blend: JUN-CC-PVTZ
    Number of shells: 194
    Number of basis function: 522
    Number of Cartesian functions: 585
    Spherical Harmonics?: true
    Max angular momentum: 3

   => Loading Basis Set <=

    Name: (JUN-CC-PVTZ AUX)
    Role: JKFIT
    Keyword: DF_BASIS_SCF
    atoms 1-2, 7, 13-15    entry C          line   152 file /home/r08543048/miniconda3/share/psi4/basis/jun-cc-pvtz-jkfit.gbs 
    atoms 3                entry O          line   272 file /home/r08543048/miniconda3/share/psi4/basis/jun-cc-pvtz-jkfit.gbs 
    atoms 4                entry N          line   212 file /home/r08543048/miniconda3/share/psi4/basis/jun-cc-pvtz-jkfit.gbs 
    atoms 5-6, 8-12, 16-23 entry H          line    70 file /home/r08543048/miniconda3/share/psi4/basis/jun-cc-pvtz-jkfit.gbs 

  ==> Pre-Iterations <==

   -------------------------------------------------------
    Irrep   Nso     Nmo     Nalpha   Nbeta   Ndocc  Nsocc
   -------------------------------------------------------
     A        522     522       0       0       0       0
   -------------------------------------------------------
    Total     522     522      20      20      20       0
   -------------------------------------------------------

  ==> Integral Setup <==

  ==> DiskDFJK: Density-Fitted J/K Matrices <==

    J tasked:                  Yes
    K tasked:                  Yes
    wK tasked:                  No
    OpenMP threads:              1
    Integrals threads:           1
    Memory [MiB]:            15735
    Algorithm:                Core
    Integral Cache:           LOAD
    Schwarz Cutoff:          1E-12
    Fitting Condition:       1E-10

   => Auxiliary Basis Set <=

  Basis Set: (JUN-CC-PVTZ AUX)
    Blend: JUN-CC-PVTZ-JKFIT
    Number of shells: 382
    Number of basis function: 1210
    Number of Cartesian functions: 1453
    Spherical Harmonics?: true
    Max angular momentum: 4

  Minimum eigenvalue in the overlap matrix is 2.7826117980E-05.
  Using Symmetric Orthogonalization.

  SCF Guess: Superposition of Atomic Densities via on-the-fly atomic UHF.

  ==> Iterations <==

                           Total Energy        Delta E     RMS |[F,P]|

   @DF-RHF iter SAD:  -246.30253843079512   -2.46303e+02   0.00000e+00 
   @DF-RHF iter   1:  -246.89441377454210   -5.91875e-01   1.25474e-03 DIIS
   @DF-RHF iter   2:  -247.05648446274361   -1.62071e-01   7.19750e-04 DIIS
   @DF-RHF iter   3:  -247.10656881797490   -5.00844e-02   1.40080e-04 DIIS
   @DF-RHF iter   4:  -247.10956612352416   -2.99731e-03   6.19739e-05 DIIS
   @DF-RHF iter   5:  -247.11020953532073   -6.43412e-04   9.87614e-06 DIIS
   @DF-RHF iter   6:  -247.11024771360343   -3.81783e-05   4.05817e-06 DIIS
   @DF-RHF iter   7:  -247.11025268721545   -4.97361e-06   1.77531e-06 DIIS
   @DF-RHF iter   8:  -247.11025382926891   -1.14205e-06   6.71735e-07 DIIS
   @DF-RHF iter   9:  -247.11025402169963   -1.92431e-07   1.46030e-07 DIIS
   @DF-RHF iter  10:  -247.11025403122272   -9.52309e-09   3.39463e-08 DIIS
   @DF-RHF iter  11:  -247.11025403157194   -3.49218e-10   9.84002e-09 DIIS
  Energy and wave function converged.


  ==> Post-Iterations <==

    Orbital Energies [Eh]
    ---------------------

    Doubly Occupied:                                                      

       1A    -20.517690     2A    -15.584088     3A    -11.350120  
       4A    -11.241874     5A    -11.215064     6A     -1.376585  
       7A     -1.211217     8A     -1.052687     9A     -0.894128  
      10A     -0.781943    11A     -0.719975    12A     -0.672246  
      13A     -0.637197    14A     -0.600197    15A     -0.553146  
      16A     -0.526119    17A     -0.516648    18A     -0.494341  
      19A     -0.423312    20A     -0.414482  

    Virtual:                                                              

      21A      0.032101    22A      0.045700    23A      0.050397  
      24A      0.056222    25A      0.067245    26A      0.071821  
      27A      0.081641    28A      0.087554    29A      0.091624  
      30A      0.104556    31A      0.111824    32A      0.112536  
      33A      0.117933    34A      0.118972    35A      0.122767  
      36A      0.125857    37A      0.139117    38A      0.146252  
      39A      0.150544    40A      0.158628    41A      0.163244  
      42A      0.165676    43A      0.172320    44A      0.184847  
      45A      0.190095    46A      0.203441    47A      0.206734  
      48A      0.213904    49A      0.229936    50A      0.242196  
      51A      0.248939    52A      0.266545    53A      0.269808  
      54A      0.276423    55A      0.281035    56A      0.287357  
      57A      0.289639    58A      0.293777    59A      0.299438  
      60A      0.305548    61A      0.314777    62A      0.320319  
      63A      0.331074    64A      0.334894    65A      0.340239  
      66A      0.346639    67A      0.352686    68A      0.360903  
      69A      0.361364    70A      0.369030    71A      0.377603  
      72A      0.385994    73A      0.392290    74A      0.393563  
      75A      0.403252    76A      0.410004    77A      0.422519  
      78A      0.427168    79A      0.437020    80A      0.442148  
      81A      0.450721    82A      0.453753    83A      0.459984  
      84A      0.469622    85A      0.489455    86A      0.493862  
      87A      0.500425    88A      0.509866    89A      0.515089  
      90A      0.528253    91A      0.533659    92A      0.536005  
      93A      0.544768    94A      0.551996    95A      0.562358  
      96A      0.564428    97A      0.574453    98A      0.587404  
      99A      0.594505   100A      0.599493   101A      0.601913  
     102A      0.611033   103A      0.613261   104A      0.615622  
     105A      0.626768   106A      0.630458   107A      0.637543  
     108A      0.643974   109A      0.653416   110A      0.668662  
     111A      0.673495   112A      0.680700   113A      0.696559  
     114A      0.702864   115A      0.713877   116A      0.717230  
     117A      0.730864   118A      0.746951   119A      0.763175  
     120A      0.774062   121A      0.780242   122A      0.789282  
     123A      0.793932   124A      0.809476   125A      0.812072  
     126A      0.821144   127A      0.825324   128A      0.850526  
     129A      0.862735   130A      0.875418   131A      0.883073  
     132A      0.900264   133A      0.905915   134A      0.926977  
     135A      0.934242   136A      0.943962   137A      0.969320  
     138A      0.986126   139A      0.999380   140A      1.019682  
     141A      1.039284   142A      1.059707   143A      1.062612  
     144A      1.082200   145A      1.087552   146A      1.098088  
     147A      1.105190   148A      1.120200   149A      1.129653  
     150A      1.139600   151A      1.147019   152A      1.156440  
     153A      1.163861   154A      1.177669   155A      1.182969  
     156A      1.196419   157A      1.200859   158A      1.210883  
     159A      1.225803   160A      1.243273   161A      1.250162  
     162A      1.257712   163A      1.270629   164A      1.272377  
     165A      1.287733   166A      1.289780   167A      1.299680  
     168A      1.318128   169A      1.327553   170A      1.334552  
     171A      1.341693   172A      1.352622   173A      1.363375  
     174A      1.365498   175A      1.382671   176A      1.384003  
     177A      1.393609   178A      1.399949   179A      1.408831  
     180A      1.417520   181A      1.431030   182A      1.432884  
     183A      1.444476   184A      1.449903   185A      1.457146  
     186A      1.471230   187A      1.475821   188A      1.485378  
     189A      1.501685   190A      1.508630   191A      1.523831  
     192A      1.533470   193A      1.536138   194A      1.549872  
     195A      1.562730   196A      1.579711   197A      1.583827  
     198A      1.589861   199A      1.595906   200A      1.607846  
     201A      1.610855   202A      1.631418   203A      1.644459  
     204A      1.645861   205A      1.667619   206A      1.669547  
     207A      1.679659   208A      1.683302   209A      1.705585  
     210A      1.717187   211A      1.726178   212A      1.736297  
     213A      1.755285   214A      1.779497   215A      1.783174  
     216A      1.788208   217A      1.808381   218A      1.824295  
     219A      1.850837   220A      1.860391   221A      1.887716  
     222A      1.896263   223A      1.907624   224A      1.922029  
     225A      1.928729   226A      1.947490   227A      1.968785  
     228A      1.980851   229A      2.013076   230A      2.029555  
     231A      2.049195   232A      2.068929   233A      2.100477  
     234A      2.119176   235A      2.138779   236A      2.178762  
     237A      2.190178   238A      2.205574   239A      2.221571  
     240A      2.251198   241A      2.313841   242A      2.352250  
     243A      2.397524   244A      2.400828   245A      2.414872  
     246A      2.437010   247A      2.472265   248A      2.512355  
     249A      2.530727   250A      2.551433   251A      2.569485  
     252A      2.589011   253A      2.622105   254A      2.626198  
     255A      2.754701   256A      2.763014   257A      2.804504  
     258A      2.869142   259A      2.880435   260A      2.907700  
     261A      2.936518   262A      2.963875   263A      2.988168  
     264A      3.018039   265A      3.040988   266A      3.066103  
     267A      3.123882   268A      3.135870   269A      3.159677  
     270A      3.170763   271A      3.213447   272A      3.255494  
     273A      3.290489   274A      3.296922   275A      3.308397  
     276A      3.346177   277A      3.367135   278A      3.388547  
     279A      3.400646   280A      3.424734   281A      3.434449  
     282A      3.446321   283A      3.461850   284A      3.466005  
     285A      3.485945   286A      3.505464   287A      3.514914  
     288A      3.520969   289A      3.539153   290A      3.541361  
     291A      3.556557   292A      3.570361   293A      3.580205  
     294A      3.592278   295A      3.595979   296A      3.606202  
     297A      3.608970   298A      3.622029   299A      3.625335  
     300A      3.640963   301A      3.645547   302A      3.659239  
     303A      3.673150   304A      3.685699   305A      3.714700  
     306A      3.723876   307A      3.741101   308A      3.747332  
     309A      3.749447   310A      3.776819   311A      3.793203  
     312A      3.796452   313A      3.817317   314A      3.828021  
     315A      3.840560   316A      3.854209   317A      3.865155  
     318A      3.876151   319A      3.885219   320A      3.900095  
     321A      3.905379   322A      3.916882   323A      3.932314  
     324A      3.937963   325A      3.946449   326A      3.953202  
     327A      3.960962   328A      3.979143   329A      3.992765  
     330A      4.035915   331A      4.051740   332A      4.070041  
     333A      4.073659   334A      4.093352   335A      4.107566  
     336A      4.142073   337A      4.146185   338A      4.156993  
     339A      4.172819   340A      4.188636   341A      4.194053  
     342A      4.212975   343A      4.232047   344A      4.242443  
     345A      4.250216   346A      4.262398   347A      4.273453  
     348A      4.278670   349A      4.292184   350A      4.323612  
     351A      4.337496   352A      4.349363   353A      4.374324  
     354A      4.389349   355A      4.396227   356A      4.401166  
     357A      4.416413   358A      4.420821   359A      4.428498  
     360A      4.444293   361A      4.452963   362A      4.462129  
     363A      4.471272   364A      4.483166   365A      4.487156  
     366A      4.502819   367A      4.507636   368A      4.531342  
     369A      4.549061   370A      4.556725   371A      4.570685  
     372A      4.579893   373A      4.592481   374A      4.596919  
     375A      4.613680   376A      4.620392   377A      4.636344  
     378A      4.653661   379A      4.655003   380A      4.667040  
     381A      4.677384   382A      4.694866   383A      4.706338  
     384A      4.710262   385A      4.728260   386A      4.739437  
     387A      4.745342   388A      4.754951   389A      4.767289  
     390A      4.778897   391A      4.813978   392A      4.818224  
     393A      4.831435   394A      4.834221   395A      4.843900  
     396A      4.849060   397A      4.859408   398A      4.871674  
     399A      4.887259   400A      4.904796   401A      4.911492  
     402A      4.920421   403A      4.927774   404A      4.949207  
     405A      4.955111   406A      4.965340   407A      4.979170  
     408A      4.985800   409A      4.995140   410A      5.008330  
     411A      5.014982   412A      5.037768   413A      5.051486  
     414A      5.064709   415A      5.070494   416A      5.105930  
     417A      5.128089   418A      5.141100   419A      5.144449  
     420A      5.175369   421A      5.179675   422A      5.185430  
     423A      5.216495   424A      5.231633   425A      5.243123  
     426A      5.254903   427A      5.270196   428A      5.293198  
     429A      5.310696   430A      5.321335   431A      5.350767  
     432A      5.370235   433A      5.390868   434A      5.411106  
     435A      5.417163   436A      5.432575   437A      5.483861  
     438A      5.485190   439A      5.526283   440A      5.598865  
     441A      5.610698   442A      5.623369   443A      5.633332  
     444A      5.636227   445A      5.639906   446A      5.661914  
     447A      5.692400   448A      5.703110   449A      5.749853  
     450A      5.762084   451A      5.778669   452A      5.818057  
     453A      5.841578   454A      5.853799   455A      5.875347  
     456A      5.903704   457A      5.922401   458A      5.952428  
     459A      5.970351   460A      6.000330   461A      6.027238  
     462A      6.039519   463A      6.079812   464A      6.082776  
     465A      6.110277   466A      6.195229   467A      6.203357  
     468A      6.212774   469A      6.239841   470A      6.265570  
     471A      6.346771   472A      6.359362   473A      6.375431  
     474A      6.392626   475A      6.433330   476A      6.448642  
     477A      6.491542   478A      6.509013   479A      6.512512  
     480A      6.537246   481A      6.556974   482A      6.577601  
     483A      6.638929   484A      6.684588   485A      6.778660  
     486A      6.794281   487A      6.846555   488A      6.907554  
     489A      6.997289   490A      7.223634   491A      7.306378  
     492A      7.314118   493A      7.370661   494A      7.453716  
     495A      7.466164   496A      7.503802   497A      7.533105  
     498A      7.580670   499A      7.597147   500A      7.654659  
     501A      7.699728   502A      7.704909   503A      7.761716  
     504A      7.798691   505A      7.813128   506A      7.841514  
     507A      7.871177   508A      7.915566   509A      8.058910  
     510A      8.232783   511A      8.518417   512A      9.579093  
     513A      9.925136   514A      9.937387   515A     12.209940  
     516A     14.062304   517A     14.214767   518A     14.760127  
     519A     15.461320   520A     44.347224   521A     45.497867  
     522A     45.957601  

    Final Occupation by Irrep:
              A 
    DOCC [    20 ]

  @DF-RHF Final Energy:  -247.11025403157194

   => Energetics <=

    Nuclear Repulsion Energy =            179.1430287866143942
    One-Electron Energy =                -690.9404377245613205
    Two-Electron Energy =                 264.6871549063749853
    Total Energy =                       -247.1102540315719125

Computation Completed


Properties will be evaluated at   0.000000,   0.000000,   0.000000 [a0]

Properties computed using the SCF density matrix

  Nuclear Dipole Moment: [e a0]
     X:  -105.7624      Y:    13.1515      Z:     1.2177

  Electronic Dipole Moment: [e a0]
     X:   105.2199      Y:   -13.6395      Z:    -2.6373

  Dipole Moment: [e a0]
     X:    -0.5426      Y:    -0.4880      Z:    -1.4197     Total:     1.5963

  Dipole Moment: [D]
     X:    -1.3791      Y:    -1.2405      Z:    -3.6084     Total:     4.0573


*** tstop() called on r282 at Sat Sep 11 01:41:20 2021
Module time:
	user time   =      45.63 seconds =       0.76 minutes
	system time =       0.85 seconds =       0.01 minutes
	total time  =         47 seconds =       0.78 minutes
Total time:
	user time   =     119.37 seconds =       1.99 minutes
	system time =       2.52 seconds =       0.04 minutes
	total time  =        122 seconds =       2.03 minutes

  //>>>>>>>>>>>>>>>>>>>>>>>>>>>>>>>>>>>//
  //            Monomer B HF           //
  //<<<<<<<<<<<<<<<<<<<<<<<<<<<<<<<<<<<//


*** tstart() called on r282
*** at Sat Sep 11 01:41:20 2021

   => Loading Basis Set <=

    Name: JUN-CC-PVTZ
    Role: ORBITAL
    Keyword: BASIS
    atoms 1-2, 7, 13-15    entry C          line   217 file /home/r08543048/miniconda3/share/psi4/basis/jun-cc-pvtz.gbs 
    atoms 3                entry O          line   305 file /home/r08543048/miniconda3/share/psi4/basis/jun-cc-pvtz.gbs 
    atoms 4                entry N          line   261 file /home/r08543048/miniconda3/share/psi4/basis/jun-cc-pvtz.gbs 
    atoms 5-6, 8-12, 16-23 entry H          line    36 file /home/r08543048/miniconda3/share/psi4/basis/jun-cc-pvtz.gbs 


         ---------------------------------------------------------
                                   SCF
               by Justin Turney, Rob Parrish, Andy Simmonett
                          and Daniel G. A. Smith
                              RHF Reference
                        1 Threads,  20980 MiB Core
         ---------------------------------------------------------

  ==> Geometry <==

    Molecular point group: c1
    Full point group: C1

    Geometry (in Angstrom), charge = 0, multiplicity = 1:

       Center              X                  Y                   Z               Mass       
    ------------   -----------------  -----------------  -----------------  -----------------
      Gh(C)          -1.377502999124     0.671175742159    -0.867181869911    12.000000000000
      Gh(C)          -1.463682999124    -0.338239257841     0.259904130089    12.000000000000
      Gh(O)          -0.990552999124    -0.143294257841     1.371294130089    15.994914619570
      Gh(N)          -2.107309999124    -1.499445257841    -0.058062869911    14.003074004430
      Gh(H)          -2.085683999124    -2.250734257841     0.610139130089     1.007825032230
      Gh(H)          -2.391400999124    -1.696090257841    -0.999981869911     1.007825032230
      Gh(C)          -1.010602999124     2.057990742159    -0.366630869911    12.000000000000
      Gh(H)          -0.073564999124     2.027771742159     0.184586130089     1.007825032230
      Gh(H)          -0.906574999124     2.749698742159    -1.201173869911     1.007825032230
      Gh(H)          -1.776164999124     2.439367742159     0.306677130089     1.007825032230
      Gh(H)          -0.622020999124     0.302437742159    -1.567065869911     1.007825032230
      Gh(H)          -2.325334999124     0.683917742159    -1.409274869911     1.007825032230
         C            1.981867000876    -1.302184257841    -0.742644869911    12.000000000000
         C            2.420842000876     0.146352742159    -0.561790869911    12.000000000000
         C            2.537830000876     0.522366742159     0.910503130089    12.000000000000
         H            2.715771000876    -1.982108257841    -0.307397869911     1.007825032230
         H            1.031438000876    -1.481952257841    -0.238015869911     1.007825032230
         H            1.867804000876    -1.563704257841    -1.795230869911     1.007825032230
         H            1.706216000876     0.811801742159    -1.051957869911     1.007825032230
         H            3.378399000876     0.303178742159    -1.063339869911     1.007825032230
         H            2.853707000876     1.558237742159     1.035473130089     1.007825032230
         H            1.579909000876     0.393186742159     1.416034130089     1.007825032230
         H            3.270783000876    -0.112812257841     1.410493130089     1.007825032230

  Running in c1 symmetry.

  Rotational constants: A =      0.07278  B =      0.03501  C =      0.03048 [cm^-1]
  Rotational constants: A =   2181.98472  B =   1049.67652  C =    913.72695 [MHz]
  Nuclear repulsion =   82.822210811136969

  Charge       = 0
  Multiplicity = 1
  Electrons    = 26
  Nalpha       = 13
  Nbeta        = 13

  ==> Algorithm <==

  SCF Algorithm Type is DF.
  DIIS enabled.
  MOM disabled.
  Fractional occupation disabled.
  Guess Type is SAD.
  Energy threshold   = 1.00e-08
  Density threshold  = 1.00e-08
  Integral threshold = 0.00e+00

  ==> Primary Basis <==

  Basis Set: JUN-CC-PVTZ
    Blend: JUN-CC-PVTZ
    Number of shells: 194
    Number of basis function: 522
    Number of Cartesian functions: 585
    Spherical Harmonics?: true
    Max angular momentum: 3

   => Loading Basis Set <=

    Name: (JUN-CC-PVTZ AUX)
    Role: JKFIT
    Keyword: DF_BASIS_SCF
    atoms 1-2, 7, 13-15    entry C          line   152 file /home/r08543048/miniconda3/share/psi4/basis/jun-cc-pvtz-jkfit.gbs 
    atoms 3                entry O          line   272 file /home/r08543048/miniconda3/share/psi4/basis/jun-cc-pvtz-jkfit.gbs 
    atoms 4                entry N          line   212 file /home/r08543048/miniconda3/share/psi4/basis/jun-cc-pvtz-jkfit.gbs 
    atoms 5-6, 8-12, 16-23 entry H          line    70 file /home/r08543048/miniconda3/share/psi4/basis/jun-cc-pvtz-jkfit.gbs 

  ==> Pre-Iterations <==

   -------------------------------------------------------
    Irrep   Nso     Nmo     Nalpha   Nbeta   Ndocc  Nsocc
   -------------------------------------------------------
     A        522     522       0       0       0       0
   -------------------------------------------------------
    Total     522     522      13      13      13       0
   -------------------------------------------------------

  ==> Integral Setup <==

  ==> DiskDFJK: Density-Fitted J/K Matrices <==

    J tasked:                  Yes
    K tasked:                  Yes
    wK tasked:                  No
    OpenMP threads:              1
    Integrals threads:           1
    Memory [MiB]:            15735
    Algorithm:                Core
    Integral Cache:           LOAD
    Schwarz Cutoff:          1E-12
    Fitting Condition:       1E-10

   => Auxiliary Basis Set <=

  Basis Set: (JUN-CC-PVTZ AUX)
    Blend: JUN-CC-PVTZ-JKFIT
    Number of shells: 382
    Number of basis function: 1210
    Number of Cartesian functions: 1453
    Spherical Harmonics?: true
    Max angular momentum: 4

  Minimum eigenvalue in the overlap matrix is 2.7826117980E-05.
  Using Symmetric Orthogonalization.

  SCF Guess: Superposition of Atomic Densities via on-the-fly atomic UHF.

  ==> Iterations <==

                           Total Energy        Delta E     RMS |[F,P]|

   @DF-RHF iter SAD:  -117.72499670787494   -1.17725e+02   0.00000e+00 
   @DF-RHF iter   1:  -118.14641677790884   -4.21420e-01   9.86923e-04 DIIS
   @DF-RHF iter   2:  -118.27570730926931   -1.29291e-01   4.66963e-04 DIIS
   @DF-RHF iter   3:  -118.30611187384706   -3.04046e-02   7.84936e-05 DIIS
   @DF-RHF iter   4:  -118.30796346869271   -1.85159e-03   1.54900e-05 DIIS
   @DF-RHF iter   5:  -118.30802184203014   -5.83733e-05   4.35873e-06 DIIS
   @DF-RHF iter   6:  -118.30802647263533   -4.63061e-06   7.83112e-07 DIIS
   @DF-RHF iter   7:  -118.30802664481962   -1.72184e-07   1.47738e-07 DIIS
   @DF-RHF iter   8:  -118.30802665237087   -7.55125e-09   2.59727e-08 DIIS
   @DF-RHF iter   9:  -118.30802665261054   -2.39666e-10   5.12855e-09 DIIS
  Energy and wave function converged.


  ==> Post-Iterations <==

    Orbital Energies [Eh]
    ---------------------

    Doubly Occupied:                                                      

       1A    -11.215649     2A    -11.208003     3A    -11.207925  
       4A     -1.053983     5A     -0.924485     6A     -0.799726  
       7A     -0.624625     8A     -0.598471     9A     -0.549183  
      10A     -0.530128    11A     -0.475945    12A     -0.474518  
      13A     -0.467832  

    Virtual:                                                              

      14A      0.031074    15A      0.046983    16A      0.049458  
      17A      0.057004    18A      0.069609    19A      0.071332  
      20A      0.079627    21A      0.083840    22A      0.089121  
      23A      0.100714    24A      0.111368    25A      0.114191  
      26A      0.115393    27A      0.118095    28A      0.119560  
      29A      0.128445    30A      0.139757    31A      0.144531  
      32A      0.147552    33A      0.151609    34A      0.161876  
      35A      0.165954    36A      0.173294    37A      0.180740  
      38A      0.200056    39A      0.201943    40A      0.208487  
      41A      0.215024    42A      0.218105    43A      0.227991  
      44A      0.231878    45A      0.255017    46A      0.264911  
      47A      0.278149    48A      0.289490    49A      0.293203  
      50A      0.298095    51A      0.304045    52A      0.310696  
      53A      0.314111    54A      0.323281    55A      0.328653  
      56A      0.332668    57A      0.337794    58A      0.344404  
      59A      0.348370    60A      0.350679    61A      0.355967  
      62A      0.361779    63A      0.364866    64A      0.370962  
      65A      0.376477    66A      0.384621    67A      0.395105  
      68A      0.403323    69A      0.412729    70A      0.416581  
      71A      0.420958    72A      0.426550    73A      0.436723  
      74A      0.437625    75A      0.448163    76A      0.453912  
      77A      0.468219    78A      0.474622    79A      0.478650  
      80A      0.501036    81A      0.510306    82A      0.512575  
      83A      0.518913    84A      0.527487    85A      0.531762  
      86A      0.544409    87A      0.549720    88A      0.561676  
      89A      0.564702    90A      0.573965    91A      0.577887  
      92A      0.585929    93A      0.586512    94A      0.600490  
      95A      0.616834    96A      0.625437    97A      0.630155  
      98A      0.645332    99A      0.651780   100A      0.662354  
     101A      0.670075   102A      0.679235   103A      0.684780  
     104A      0.691590   105A      0.700348   106A      0.714856  
     107A      0.730485   108A      0.741680   109A      0.751718  
     110A      0.753167   111A      0.774634   112A      0.791861  
     113A      0.794066   114A      0.794807   115A      0.806430  
     116A      0.814093   117A      0.820398   118A      0.822455  
     119A      0.829032   120A      0.833204   121A      0.846168  
     122A      0.867270   123A      0.871633   124A      0.877350  
     125A      0.885552   126A      0.889356   127A      0.902158  
     128A      0.926802   129A      0.941406   130A      0.954726  
     131A      0.958799   132A      0.967027   133A      0.978368  
     134A      0.984000   135A      0.992536   136A      1.008837  
     137A      1.015287   138A      1.031949   139A      1.049443  
     140A      1.072341   141A      1.081985   142A      1.088490  
     143A      1.118931   144A      1.128206   145A      1.146869  
     146A      1.158901   147A      1.168242   148A      1.176849  
     149A      1.182000   150A      1.201420   151A      1.217529  
     152A      1.219530   153A      1.235707   154A      1.250985  
     155A      1.260652   156A      1.271945   157A      1.275678  
     158A      1.293770   159A      1.310733   160A      1.325011  
     161A      1.329743   162A      1.334261   163A      1.344512  
     164A      1.354522   165A      1.368588   166A      1.370900  
     167A      1.382388   168A      1.390457   169A      1.407741  
     170A      1.410844   171A      1.417567   172A      1.437026  
     173A      1.440996   174A      1.446740   175A      1.465227  
     176A      1.472651   177A      1.485059   178A      1.492728  
     179A      1.498178   180A      1.519750   181A      1.526382  
     182A      1.530553   183A      1.546564   184A      1.552959  
     185A      1.563337   186A      1.570968   187A      1.581012  
     188A      1.591909   189A      1.597779   190A      1.607824  
     191A      1.613429   192A      1.620114   193A      1.629398  
     194A      1.632492   195A      1.647902   196A      1.659066  
     197A      1.679070   198A      1.679844   199A      1.687784  
     200A      1.698746   201A      1.709717   202A      1.718138  
     203A      1.732854   204A      1.748421   205A      1.775970  
     206A      1.781848   207A      1.792656   208A      1.815796  
     209A      1.821298   210A      1.838734   211A      1.843258  
     212A      1.860410   213A      1.877676   214A      1.887773  
     215A      1.903795   216A      1.927385   217A      1.935163  
     218A      1.949792   219A      1.964425   220A      1.975562  
     221A      2.010091   222A      2.021229   223A      2.032324  
     224A      2.064712   225A      2.105602   226A      2.116189  
     227A      2.163373   228A      2.179589   229A      2.191108  
     230A      2.226085   231A      2.293534   232A      2.306894  
     233A      2.382157   234A      2.400502   235A      2.419201  
     236A      2.446543   237A      2.497483   238A      2.540073  
     239A      2.546382   240A      2.573740   241A      2.665765  
     242A      2.707968   243A      2.720732   244A      2.756516  
     245A      2.764763   246A      2.782156   247A      2.812307  
     248A      2.830913   249A      2.842732   250A      2.852285  
     251A      2.869345   252A      2.890779   253A      2.893953  
     254A      2.929599   255A      2.941052   256A      2.957297  
     257A      2.974738   258A      2.983587   259A      3.035821  
     260A      3.049643   261A      3.071689   262A      3.094854  
     263A      3.108748   264A      3.124464   265A      3.131865  
     266A      3.156631   267A      3.173292   268A      3.186856  
     269A      3.248830   270A      3.269879   271A      3.290341  
     272A      3.315307   273A      3.324845   274A      3.335307  
     275A      3.357630   276A      3.377392   277A      3.386821  
     278A      3.398368   279A      3.435921   280A      3.454439  
     281A      3.490247   282A      3.491146   283A      3.495711  
     284A      3.507166   285A      3.524313   286A      3.537246  
     287A      3.543070   288A      3.566261   289A      3.570885  
     290A      3.583321   291A      3.603954   292A      3.609086  
     293A      3.612384   294A      3.622155   295A      3.631735  
     296A      3.649026   297A      3.683085   298A      3.693889  
     299A      3.703171   300A      3.729430   301A      3.737702  
     302A      3.741178   303A      3.763852   304A      3.770285  
     305A      3.794639   306A      3.812198   307A      3.827387  
     308A      3.833279   309A      3.849113   310A      3.869678  
     311A      3.872776   312A      3.878270   313A      3.889704  
     314A      3.903541   315A      3.913866   316A      3.929484  
     317A      3.935136   318A      3.950785   319A      3.964836  
     320A      3.973986   321A      3.978592   322A      3.993848  
     323A      4.001978   324A      4.030367   325A      4.038668  
     326A      4.094168   327A      4.108165   328A      4.115627  
     329A      4.138129   330A      4.155070   331A      4.173953  
     332A      4.189230   333A      4.206253   334A      4.227316  
     335A      4.235109   336A      4.238688   337A      4.248932  
     338A      4.265368   339A      4.294725   340A      4.304458  
     341A      4.319707   342A      4.331692   343A      4.340033  
     344A      4.353860   345A      4.365444   346A      4.375899  
     347A      4.384481   348A      4.403813   349A      4.412519  
     350A      4.423057   351A      4.430758   352A      4.455475  
     353A      4.466864   354A      4.481582   355A      4.500396  
     356A      4.503078   357A      4.518406   358A      4.529939  
     359A      4.535530   360A      4.541486   361A      4.545690  
     362A      4.556461   363A      4.575367   364A      4.587820  
     365A      4.627301   366A      4.632733   367A      4.647831  
     368A      4.653617   369A      4.659472   370A      4.680088  
     371A      4.692292   372A      4.694240   373A      4.707060  
     374A      4.716508   375A      4.732828   376A      4.738788  
     377A      4.755557   378A      4.765935   379A      4.775704  
     380A      4.805138   381A      4.813029   382A      4.817048  
     383A      4.822091   384A      4.826647   385A      4.840696  
     386A      4.852276   387A      4.858417   388A      4.869361  
     389A      4.874270   390A      4.888655   391A      4.896544  
     392A      4.899582   393A      4.918888   394A      4.932716  
     395A      4.937530   396A      4.946037   397A      4.974584  
     398A      4.976032   399A      4.982511   400A      5.000757  
     401A      5.010908   402A      5.022826   403A      5.041005  
     404A      5.045595   405A      5.067263   406A      5.083043  
     407A      5.084445   408A      5.119497   409A      5.137625  
     410A      5.171357   411A      5.184524   412A      5.203811  
     413A      5.209745   414A      5.246445   415A      5.265010  
     416A      5.280376   417A      5.282064   418A      5.293882  
     419A      5.302457   420A      5.305769   421A      5.347725  
     422A      5.371898   423A      5.379889   424A      5.401292  
     425A      5.454708   426A      5.482343   427A      5.491186  
     428A      5.522093   429A      5.557346   430A      5.595291  
     431A      5.605403   432A      5.612161   433A      5.669353  
     434A      5.717330   435A      5.730679   436A      5.752428  
     437A      5.757063   438A      5.772506   439A      5.782855  
     440A      5.802853   441A      5.804597   442A      5.823819  
     443A      5.828219   444A      5.851036   445A      5.871173  
     446A      5.931466   447A      5.939706   448A      5.974613  
     449A      5.984083   450A      5.994313   451A      6.017422  
     452A      6.098012   453A      6.117494   454A      6.130234  
     455A      6.209083   456A      6.286028   457A      6.288997  
     458A      6.345776   459A      6.397872   460A      6.403947  
     461A      6.438742   462A      6.472380   463A      6.477780  
     464A      6.485063   465A      6.527066   466A      6.544903  
     467A      6.551188   468A      6.556516   469A      6.577463  
     470A      6.592524   471A      6.597547   472A      6.621320  
     473A      6.734531   474A      6.790816   475A      6.878521  
     476A      6.978508   477A      6.994052   478A      7.094476  
     479A      7.264656   480A      7.322031   481A      7.409684  
     482A      7.450565   483A      7.513994   484A      7.562089  
     485A      7.637183   486A      7.680872   487A      7.722883  
     488A      7.814119   489A      7.823589   490A      7.883145  
     491A      7.915418   492A      7.995651   493A      8.043769  
     494A      8.287738   495A      8.411980   496A      8.429201  
     497A      8.819021   498A      9.114345   499A      9.168501  
     500A      9.201673   501A      9.539643   502A      9.670358  
     503A      9.878112   504A      9.914807   505A      9.955782  
     506A      9.996224   507A     10.114870   508A     10.482826  
     509A     10.942809   510A     11.394760   511A     11.556465  
     512A     11.735809   513A     12.045132   514A     13.852365  
     515A     13.891782   516A     14.531283   517A     14.750424  
     518A     42.768650   519A     45.092935   520A     45.985349  
     521A     54.656722   522A     61.311535  

    Final Occupation by Irrep:
              A 
    DOCC [    13 ]

  @DF-RHF Final Energy:  -118.30802665261054

   => Energetics <=

    Nuclear Repulsion Energy =             82.8222108111369693
    One-Electron Energy =                -321.9995277663820161
    Two-Electron Energy =                 120.8692903026344965
    Total Energy =                       -118.3080266526105362

Computation Completed


Properties will be evaluated at   0.000000,   0.000000,   0.000000 [a0]

Properties computed using the SCF density matrix

  Nuclear Dipole Moment: [e a0]
     X:   113.4729      Y:   -11.1021      Z:    -5.5889

  Electronic Dipole Moment: [e a0]
     X:  -113.4650      Y:    11.1227      Z:     5.5647

  Dipole Moment: [e a0]
     X:     0.0079      Y:     0.0206      Z:    -0.0242     Total:     0.0328

  Dipole Moment: [D]
     X:     0.0200      Y:     0.0525      Z:    -0.0615     Total:     0.0833


*** tstop() called on r282 at Sat Sep 11 01:41:57 2021
Module time:
	user time   =      37.04 seconds =       0.62 minutes
	system time =       0.66 seconds =       0.01 minutes
	total time  =         37 seconds =       0.62 minutes
Total time:
	user time   =     156.42 seconds =       2.61 minutes
	system time =       3.18 seconds =       0.05 minutes
	total time  =        159 seconds =       2.65 minutes
  Constructing Basis Sets for SAPT...

   => Loading Basis Set <=

    Name: (JUN-CC-PVTZ AUX)
    Role: RIFIT
    Keyword: DF_BASIS_SAPT
    atoms 1-2, 7, 13-15    entry C          line   132 file /home/r08543048/miniconda3/share/psi4/basis/jun-cc-pvtz-ri.gbs 
    atoms 3                entry O          line   244 file /home/r08543048/miniconda3/share/psi4/basis/jun-cc-pvtz-ri.gbs 
    atoms 4                entry N          line   188 file /home/r08543048/miniconda3/share/psi4/basis/jun-cc-pvtz-ri.gbs 
    atoms 5-6, 8-12, 16-23 entry H          line    30 file /home/r08543048/miniconda3/share/psi4/basis/jun-cc-pvtz-ri.gbs 


  //>>>>>>>>>>>>>>>>>>>>>>>>>>>>>>>>>>>//
  //               SAPT0               //
  //<<<<<<<<<<<<<<<<<<<<<<<<<<<<<<<<<<<//


*** tstart() called on r282
*** at Sat Sep 11 01:41:57 2021

        SAPT0  
    Ed Hohenstein
     6 June 2009

      Orbital Information
  --------------------------
    NSO        =       522
    NMO        =       522
    NRI        =      1226
    NOCC A     =        20
    NOCC B     =        13
    FOCC A     =         0
    FOCC B     =         0
    NVIR A     =       502
    NVIR B     =       509

    Elst10,r            =    -0.002786198134 [Eh]
    Exch10              =     0.006633695184 [Eh]
    Exch10 (S^2)        =     0.006624051655 [Eh]

    Iter     Energy [mEh]          dE [mEh]         Residual      Time [s]
       1      -0.35818386       0.358183855       2.511100073             1
       2      -0.43554547       0.077361617       0.548809044             2
       3      -0.43594482       0.000399347       0.171619036             4
       4      -0.43472297      -0.001221845       0.047490027             5
       5      -0.43472668       0.000003702       0.017332344             6
       6      -0.43481370       0.000087021       0.006166127             7
       7      -0.43481813       0.000004435       0.003111775             8
       8      -0.43480608      -0.000012052       0.001055888            10
       9      -0.43480584      -0.000000237       0.000361280            11
      10      -0.43480712       0.000001279       0.000118378            12
      11      -0.43480701      -0.000000110       0.000040224            13
      12      -0.43480692      -0.000000093       0.000013918            14
      13      -0.43480696       0.000000038       0.000004349            15
      14      -0.43480696       0.000000001       0.000001402            17
      15      -0.43480696      -0.000000003       0.000000372            18

    CHF Iterations converged


    Iter     Energy [mEh]          dE [mEh]         Residual      Time [s]
       1      -1.27287314       1.272873140       5.386559707             1
       2      -1.51959983       0.246726691       1.688561533             2
       3      -1.54232364       0.022723807       0.418731128             3
       4      -1.53651377      -0.005809871       0.132324179             4
       5      -1.53521877      -0.001294998       0.023425065             5
       6      -1.53553596       0.000317192       0.006202714             6
       7      -1.53555535       0.000019388       0.001682127             7
       8      -1.53554048      -0.000014869       0.000382256             8
       9      -1.53554043      -0.000000050       0.000074205             9
      10      -1.53554094       0.000000510       0.000018584            11
      11      -1.53554093      -0.000000008       0.000004965            12
      12      -1.53554090      -0.000000029       0.000001197            13
      13      -1.53554090      -0.000000000       0.000000266            14

    CHF Iterations converged

    Ind20,r (A<-B)      =    -0.000434806955 [Eh]
    Ind20,r (B<-A)      =    -0.001535540902 [Eh]
    Ind20,r             =    -0.001970347858 [Eh]
    Exch-Ind20,r (A<-B) =     0.000347557679 [Eh]
    Exch-Ind20,r (B<-A) =     0.000911306788 [Eh]
    Exch-Ind20,r        =     0.001258864467 [Eh]
    Disp20              =    -0.008475345392 [Eh]
    Disp20 (SS)         =    -0.004237672696 [Eh]
    Disp20 (OS)         =    -0.004237672696 [Eh]
    Exch-Disp20         =     0.000754267250 [Eh]
    Exch-Disp20 (SS)    =     0.000488356534 [Eh]
    Exch-Disp20 (OS)    =     0.000265910716 [Eh]

    SAPT Results 
  --------------------------------------------------------------------------------------------------------
    Electrostatics                 -2.78619813 [mEh]      -1.74836572 [kcal/mol]      -7.31516219 [kJ/mol]
      Elst10,r                     -2.78619813 [mEh]      -1.74836572 [kcal/mol]      -7.31516219 [kJ/mol]

    Exchange                        6.63369518 [mEh]       4.16270657 [kcal/mol]      17.41676431 [kJ/mol]
      Exch10                        6.63369518 [mEh]       4.16270657 [kcal/mol]      17.41676431 [kJ/mol]
      Exch10(S^2)                   6.62405165 [mEh]       4.15665517 [kcal/mol]      17.39144522 [kJ/mol]

    Induction                      -1.17149923 [mEh]      -0.73512687 [kcal/mol]      -3.07577081 [kJ/mol]
      Ind20,r                      -1.97034786 [mEh]      -1.23641195 [kcal/mol]      -5.17314759 [kJ/mol]
      Exch-Ind20,r                  1.25886447 [mEh]       0.78994938 [kcal/mol]       3.30514820 [kJ/mol]
      delta HF,r (2)               -0.46001584 [mEh]      -0.28866430 [kcal/mol]      -1.20777143 [kJ/mol]

    Dispersion                     -7.72107814 [mEh]      -4.84504968 [kcal/mol]     -20.27168787 [kJ/mol]
      Disp20                       -8.47534539 [mEh]      -5.31835953 [kcal/mol]     -22.25201626 [kJ/mol]
      Exch-Disp20                   0.75426725 [mEh]       0.47330985 [kcal/mol]       1.98032839 [kJ/mol]
      Disp20 (SS)                  -4.23767270 [mEh]      -2.65917976 [kcal/mol]     -11.12600813 [kJ/mol]
      Disp20 (OS)                  -4.23767270 [mEh]      -2.65917976 [kcal/mol]     -11.12600813 [kJ/mol]
      Exch-Disp20 (SS)              0.48835653 [mEh]       0.30644835 [kcal/mol]       1.28217990 [kJ/mol]
      Exch-Disp20 (OS)              0.26591072 [mEh]       0.16686149 [kcal/mol]       0.69814849 [kJ/mol]

  Total HF                          2.67599782 [mEh]       1.67921398 [kcal/mol]       7.02583130 [kJ/mol]
  Total SAPT0                      -5.04508033 [mEh]      -3.16583570 [kcal/mol]     -13.24585657 [kJ/mol]

  Special recipe for scaled SAPT0 (see Manual):
    Electrostatics sSAPT0          -2.78619813 [mEh]      -1.74836572 [kcal/mol]      -7.31516219 [kJ/mol]
    Exchange sSAPT0                 6.63369518 [mEh]       4.16270657 [kcal/mol]      17.41676431 [kJ/mol]
    Induction sSAPT0               -1.16599313 [mEh]      -0.73167173 [kcal/mol]      -3.06131453 [kJ/mol]
    Dispersion sSAPT0              -7.71777908 [mEh]      -4.84297949 [kcal/mol]     -20.26302617 [kJ/mol]
  Total sSAPT0                     -5.03627515 [mEh]      -3.16031037 [kcal/mol]     -13.22273859 [kJ/mol]
  --------------------------------------------------------------------------------------------------------

*** tstop() called on r282 at Sat Sep 11 01:44:18 2021
Module time:
	user time   =     120.05 seconds =       2.00 minutes
	system time =      20.05 seconds =       0.33 minutes
	total time  =        141 seconds =       2.35 minutes
Total time:
	user time   =     276.62 seconds =       4.61 minutes
	system time =      23.23 seconds =       0.39 minutes
	total time  =        300 seconds =       5.00 minutes

    Psi4 stopped on: Saturday, 11 September 2021 01:44AM
    Psi4 wall time for execution: 0:05:00.45

*** Psi4 exiting successfully. Buy a developer a beer!
