
    -----------------------------------------------------------------------
          Psi4: An Open-Source Ab Initio Electronic Structure Package
                               Psi4 1.3.2 release

                         Git: Rev {HEAD} ecbda83 


    R. M. Parrish, L. A. Burns, D. G. A. Smith, A. C. Simmonett,
    A. E. DePrince III, E. G. Hohenstein, U. Bozkaya, A. Yu. Sokolov,
    R. Di Remigio, R. M. Richard, J. F. Gonthier, A. M. James,
    H. R. McAlexander, A. Kumar, M. Saitow, X. Wang, B. P. Pritchard,
    P. Verma, H. F. Schaefer III, K. Patkowski, R. A. King, E. F. Valeev,
    F. A. Evangelista, J. M. Turney, T. D. Crawford, and C. D. Sherrill,
    J. Chem. Theory Comput. 13(7) pp 3185--3197 (2017).
    (doi: 10.1021/acs.jctc.7b00174)


                         Additional Contributions by
    P. Kraus, H. Kruse, M. H. Lechner, M. C. Schieber, R. A. Shaw,
    A. Alenaizan, R. Galvelis, Z. L. Glick, S. Lehtola, and J. P. Misiewicz

    -----------------------------------------------------------------------


    Psi4 started on: Friday, 10 September 2021 06:01PM

    Process ID: 56941
    Host:       r282
    PSIDATADIR: /home/r08543048/miniconda3/share/psi4
    Memory:     500.0 MiB
    Threads:    1
    
  ==> Input File <==

--------------------------------------------------------------------------
# Any line starting with the # character is a comment line
#! Sample  computation

memory 22 gb

molecule Dimer {
0 1
 C 2.451044   -0.025720    0.041798
 O 1.957450    1.090073    0.153113
 O 1.752026   -1.135712   -0.147518
 H 0.772098   -0.929148   -0.186499
 C 3.927023   -0.286733    0.105526
 H 4.460355    0.643944    0.261577
 H 4.135561   -0.982636    0.915820
 H 4.250360   -0.757095   -0.821066
 
 
 

    
    
 --
0 1
 C  -3.008047    0.301264   -0.305989
 C  -1.503436    0.282178   -0.175625
 O  -0.876509   -0.782550   -0.280580
 N  -0.891989    1.457102    0.042701
 H   0.126213    1.479261    0.102066
 H  -1.427263    2.301496    0.122340
 C  -3.647898   -0.839776    0.475860
 H  -4.724476   -0.855842    0.316518
 H  -3.229908   -1.790728    0.155092
 H  -3.460933   -0.730089    1.543339
 H  -3.403550    1.266453    0.012023
 H  -3.230386    0.192905   -1.369660
 
 
 
 
 
 
units angstrom

no_reorient
symmetry c1
}

set globals{
  basis jun-cc-pvtz
}

energy('sapt0')


--------------------------------------------------------------------------

  Memory set to  20.489 GiB by Python driver.

  //>>>>>>>>>>>>>>>>>>>>>>>>>>>>>>>>>>>//
  //              Dimer HF             //
  //<<<<<<<<<<<<<<<<<<<<<<<<<<<<<<<<<<<//


*** tstart() called on r282
*** at Fri Sep 10 18:01:15 2021

   => Loading Basis Set <=

    Name: JUN-CC-PVTZ
    Role: ORBITAL
    Keyword: BASIS
    atoms 1, 5, 9-10, 15       entry C          line   217 file /home/r08543048/miniconda3/share/psi4/basis/jun-cc-pvtz.gbs 
    atoms 2-3, 11              entry O          line   305 file /home/r08543048/miniconda3/share/psi4/basis/jun-cc-pvtz.gbs 
    atoms 4, 6-8, 13-14, 16-20 entry H          line    36 file /home/r08543048/miniconda3/share/psi4/basis/jun-cc-pvtz.gbs 
    atoms 12                   entry N          line   261 file /home/r08543048/miniconda3/share/psi4/basis/jun-cc-pvtz.gbs 


         ---------------------------------------------------------
                                   SCF
               by Justin Turney, Rob Parrish, Andy Simmonett
                          and Daniel G. A. Smith
                              RHF Reference
                        1 Threads,  20980 MiB Core
         ---------------------------------------------------------

  ==> Geometry <==

    Molecular point group: c1
    Full point group: C1

    Geometry (in Angstrom), charge = 0, multiplicity = 1:

       Center              X                  Y                   Z               Mass       
    ------------   -----------------  -----------------  -----------------  -----------------
         C            2.408436636221    -0.026989281387     0.049626717533    12.000000000000
         O            1.914842636221     1.088803718613     0.160941717533    15.994914619570
         O            1.709418636221    -1.136981281387    -0.139689282467    15.994914619570
         H            0.729490636221    -0.930417281387    -0.178670282467     1.007825032230
         C            3.884415636221    -0.288002281387     0.113354717533    12.000000000000
         H            4.417747636221     0.642674718613     0.269405717533     1.007825032230
         H            4.092953636221    -0.983905281387     0.923648717533     1.007825032230
         H            4.207752636221    -0.758364281387    -0.813237282467     1.007825032230
         C           -3.050654363779     0.299994718613    -0.298160282467    12.000000000000
         C           -1.546043363779     0.280908718613    -0.167796282467    12.000000000000
         O           -0.919116363779    -0.783819281387    -0.272751282467    15.994914619570
         N           -0.934596363779     1.455832718613     0.050529717533    14.003074004430
         H            0.083605636221     1.477991718613     0.109894717533     1.007825032230
         H           -1.469870363779     2.300226718613     0.130168717533     1.007825032230
         C           -3.690505363779    -0.841045281387     0.483688717533    12.000000000000
         H           -4.767083363779    -0.857111281387     0.324346717533     1.007825032230
         H           -3.272515363779    -1.791997281387     0.162920717533     1.007825032230
         H           -3.503540363779    -0.731358281387     1.551167717533     1.007825032230
         H           -3.446157363779     1.265183718613     0.019851717533     1.007825032230
         H           -3.272993363779     0.191635718613    -1.361831282467     1.007825032230

  Running in c1 symmetry.

  Rotational constants: A =      0.14090  B =      0.02046  C =      0.01835 [cm^-1]
  Rotational constants: A =   4224.21335  B =    613.35054  C =    550.05306 [MHz]
  Nuclear repulsion =  456.327404769725035

  Charge       = 0
  Multiplicity = 1
  Electrons    = 72
  Nalpha       = 36
  Nbeta        = 36

  ==> Algorithm <==

  SCF Algorithm Type is DF.
  DIIS enabled.
  MOM disabled.
  Fractional occupation disabled.
  Guess Type is SAD.
  Energy threshold   = 1.00e-08
  Density threshold  = 1.00e-08
  Integral threshold = 0.00e+00

  ==> Primary Basis <==

  Basis Set: JUN-CC-PVTZ
    Blend: JUN-CC-PVTZ
    Number of shells: 183
    Number of basis function: 505
    Number of Cartesian functions: 570
    Spherical Harmonics?: true
    Max angular momentum: 3

   => Loading Basis Set <=

    Name: (JUN-CC-PVTZ AUX)
    Role: JKFIT
    Keyword: DF_BASIS_SCF
    atoms 1, 5, 9-10, 15       entry C          line   152 file /home/r08543048/miniconda3/share/psi4/basis/jun-cc-pvtz-jkfit.gbs 
    atoms 2-3, 11              entry O          line   272 file /home/r08543048/miniconda3/share/psi4/basis/jun-cc-pvtz-jkfit.gbs 
    atoms 4, 6-8, 13-14, 16-20 entry H          line    70 file /home/r08543048/miniconda3/share/psi4/basis/jun-cc-pvtz-jkfit.gbs 
    atoms 12                   entry N          line   212 file /home/r08543048/miniconda3/share/psi4/basis/jun-cc-pvtz-jkfit.gbs 

  ==> Pre-Iterations <==

   -------------------------------------------------------
    Irrep   Nso     Nmo     Nalpha   Nbeta   Ndocc  Nsocc
   -------------------------------------------------------
     A        505     505       0       0       0       0
   -------------------------------------------------------
    Total     505     505      36      36      36       0
   -------------------------------------------------------

  ==> Integral Setup <==

  ==> DiskDFJK: Density-Fitted J/K Matrices <==

    J tasked:                  Yes
    K tasked:                  Yes
    wK tasked:                  No
    OpenMP threads:              1
    Integrals threads:           1
    Memory [MiB]:            15735
    Algorithm:                Core
    Integral Cache:           SAVE
    Schwarz Cutoff:          1E-12
    Fitting Condition:       1E-10

   => Auxiliary Basis Set <=

  Basis Set: (JUN-CC-PVTZ AUX)
    Blend: JUN-CC-PVTZ-JKFIT
    Number of shells: 371
    Number of basis function: 1185
    Number of Cartesian functions: 1429
    Spherical Harmonics?: true
    Max angular momentum: 4

  Minimum eigenvalue in the overlap matrix is 3.6474893003E-05.
  Using Symmetric Orthogonalization.

  SCF Guess: Superposition of Atomic Densities via on-the-fly atomic UHF.

  ==> Iterations <==

                           Total Energy        Delta E     RMS |[F,P]|

   @DF-RHF iter SAD:  -473.56548675067637   -4.73565e+02   0.00000e+00 
   @DF-RHF iter   1:  -474.69701702527732   -1.13153e+00   1.67477e-03 DIIS
   @DF-RHF iter   2:  -474.95605998048381   -2.59043e-01   9.08201e-04 DIIS
   @DF-RHF iter   3:  -475.02733220746097   -7.12722e-02   1.68914e-04 DIIS
   @DF-RHF iter   4:  -475.03178090020975   -4.44869e-03   7.49938e-05 DIIS
   @DF-RHF iter   5:  -475.03263515157607   -8.54251e-04   1.49749e-05 DIIS
   @DF-RHF iter   6:  -475.03269254106499   -5.73895e-05   7.49552e-06 DIIS
   @DF-RHF iter   7:  -475.03270401875005   -1.14777e-05   2.42896e-06 DIIS
   @DF-RHF iter   8:  -475.03270636747129   -2.34872e-06   9.49201e-07 DIIS
   @DF-RHF iter   9:  -475.03270672632652   -3.58855e-07   3.14836e-07 DIIS
   @DF-RHF iter  10:  -475.03270675995770   -3.36312e-08   1.12495e-07 DIIS
   @DF-RHF iter  11:  -475.03270676274309   -2.78538e-09   4.13379e-08 DIIS
   @DF-RHF iter  12:  -475.03270676302623   -2.83137e-10   1.22971e-08 DIIS
   @DF-RHF iter  13:  -475.03270676306698   -4.07567e-11   3.70886e-09 DIIS
  Energy and wave function converged.


  ==> Post-Iterations <==

    Orbital Energies [Eh]
    ---------------------

    Doubly Occupied:                                                      

       1A    -20.579950     2A    -20.537890     3A    -20.529619  
       4A    -15.582720     5A    -11.379080     6A    -11.361936  
       7A    -11.246689     8A    -11.232417     9A    -11.223512  
      10A     -1.443911    11A     -1.387396    12A     -1.341481  
      13A     -1.217641    14A     -1.059509    15A     -1.015030  
      16A     -0.899707    17A     -0.814169    18A     -0.788488  
      19A     -0.735292    20A     -0.709351    21A     -0.669392  
      22A     -0.662565    23A     -0.636157    24A     -0.632688  
      25A     -0.612699    26A     -0.573978    27A     -0.567743  
      28A     -0.550396    29A     -0.544999    30A     -0.530674  
      31A     -0.519829    32A     -0.502223    33A     -0.467344  
      34A     -0.453151    35A     -0.430994    36A     -0.420980  

    Virtual:                                                              

      37A      0.043301    38A      0.050076    39A      0.055450  
      40A      0.067400    41A      0.076039    42A      0.081947  
      43A      0.084573    44A      0.094626    45A      0.098859  
      46A      0.101718    47A      0.106599    48A      0.109548  
      49A      0.130864    50A      0.141832    51A      0.141923  
      52A      0.149668    53A      0.154393    54A      0.167713  
      55A      0.175782    56A      0.183003    57A      0.187738  
      58A      0.191931    59A      0.193368    60A      0.203984  
      61A      0.205930    62A      0.212933    63A      0.216459  
      64A      0.228415    65A      0.244839    66A      0.253888  
      67A      0.262698    68A      0.271515    69A      0.275081  
      70A      0.282509    71A      0.285293    72A      0.289568  
      73A      0.292843    74A      0.305073    75A      0.305864  
      76A      0.313299    77A      0.315391    78A      0.323562  
      79A      0.329979    80A      0.331078    81A      0.338007  
      82A      0.347169    83A      0.351176    84A      0.354646  
      85A      0.356249    86A      0.367174    87A      0.370732  
      88A      0.386516    89A      0.393253    90A      0.407521  
      91A      0.412115    92A      0.415718    93A      0.422564  
      94A      0.430656    95A      0.438741    96A      0.452651  
      97A      0.457349    98A      0.476383    99A      0.490254  
     100A      0.497779   101A      0.502056   102A      0.507540  
     103A      0.518359   104A      0.521473   105A      0.528279  
     106A      0.533779   107A      0.538684   108A      0.552561  
     109A      0.562556   110A      0.568205   111A      0.574157  
     112A      0.583520   113A      0.598851   114A      0.606984  
     115A      0.612417   116A      0.627597   117A      0.634899  
     118A      0.636105   119A      0.648544   120A      0.655308  
     121A      0.669201   122A      0.674236   123A      0.682958  
     124A      0.690925   125A      0.700804   126A      0.708180  
     127A      0.721693   128A      0.730146   129A      0.737364  
     130A      0.742171   131A      0.753666   132A      0.765296  
     133A      0.779820   134A      0.786016   135A      0.791336  
     136A      0.801481   137A      0.802497   138A      0.812322  
     139A      0.813906   140A      0.825755   141A      0.835735  
     142A      0.846794   143A      0.850022   144A      0.857841  
     145A      0.871654   146A      0.873822   147A      0.884175  
     148A      0.891492   149A      0.904238   150A      0.906018  
     151A      0.918297   152A      0.928289   153A      0.959652  
     154A      0.970231   155A      0.979019   156A      0.983244  
     157A      0.995153   158A      0.997514   159A      1.015691  
     160A      1.035453   161A      1.036957   162A      1.049246  
     163A      1.066751   164A      1.085129   165A      1.088404  
     166A      1.095596   167A      1.113691   168A      1.123108  
     169A      1.139020   170A      1.142348   171A      1.160846  
     172A      1.172440   173A      1.183954   174A      1.205623  
     175A      1.220978   176A      1.243967   177A      1.256637  
     178A      1.263799   179A      1.269993   180A      1.276224  
     181A      1.286553   182A      1.298690   183A      1.314840  
     184A      1.332494   185A      1.342390   186A      1.342963  
     187A      1.352058   188A      1.364562   189A      1.373178  
     190A      1.377969   191A      1.387394   192A      1.397277  
     193A      1.397690   194A      1.403327   195A      1.415325  
     196A      1.434644   197A      1.445187   198A      1.456298  
     199A      1.470156   200A      1.472462   201A      1.488972  
     202A      1.500845   203A      1.510113   204A      1.520327  
     205A      1.523819   206A      1.535714   207A      1.546921  
     208A      1.550010   209A      1.562027   210A      1.575756  
     211A      1.588024   212A      1.594018   213A      1.609633  
     214A      1.628235   215A      1.639458   216A      1.660143  
     217A      1.671545   218A      1.673062   219A      1.686361  
     220A      1.696238   221A      1.713350   222A      1.738650  
     223A      1.757932   224A      1.762520   225A      1.778706  
     226A      1.791483   227A      1.815113   228A      1.836780  
     229A      1.852422   230A      1.862597   231A      1.884904  
     232A      1.912560   233A      1.940088   234A      1.948624  
     235A      1.959439   236A      1.990520   237A      2.006302  
     238A      2.025795   239A      2.045590   240A      2.146961  
     241A      2.176168   242A      2.233946   243A      2.238992  
     244A      2.259183   245A      2.299743   246A      2.304920  
     247A      2.322856   248A      2.370799   249A      2.412770  
     250A      2.423908   251A      2.444314   252A      2.447539  
     253A      2.460634   254A      2.494077   255A      2.556853  
     256A      2.636704   257A      2.651799   258A      2.666994  
     259A      2.698777   260A      2.727849   261A      2.758533  
     262A      2.788833   263A      2.804398   264A      2.814123  
     265A      2.829932   266A      2.841577   267A      2.849577  
     268A      2.877726   269A      2.887545   270A      2.906528  
     271A      2.948525   272A      2.969970   273A      2.974113  
     274A      2.981777   275A      3.019905   276A      3.032706  
     277A      3.062336   278A      3.073657   279A      3.108250  
     280A      3.115189   281A      3.122999   282A      3.134194  
     283A      3.165452   284A      3.182486   285A      3.199699  
     286A      3.205468   287A      3.211985   288A      3.222673  
     289A      3.255910   290A      3.273197   291A      3.288252  
     292A      3.309949   293A      3.342115   294A      3.352482  
     295A      3.358283   296A      3.362895   297A      3.383670  
     298A      3.403913   299A      3.408692   300A      3.436539  
     301A      3.438432   302A      3.441985   303A      3.443771  
     304A      3.453811   305A      3.466893   306A      3.478767  
     307A      3.483070   308A      3.492156   309A      3.507620  
     310A      3.511888   311A      3.525714   312A      3.530917  
     313A      3.551667   314A      3.564595   315A      3.575048  
     316A      3.592332   317A      3.596846   318A      3.614421  
     319A      3.633973   320A      3.644314   321A      3.654107  
     322A      3.666663   323A      3.681847   324A      3.699809  
     325A      3.711741   326A      3.721888   327A      3.730683  
     328A      3.738815   329A      3.771560   330A      3.779803  
     331A      3.789444   332A      3.795515   333A      3.805662  
     334A      3.815032   335A      3.833303   336A      3.836587  
     337A      3.847111   338A      3.869651   339A      3.871291  
     340A      3.884790   341A      3.915184   342A      3.930275  
     343A      3.948481   344A      3.995343   345A      4.007856  
     346A      4.012865   347A      4.027438   348A      4.051079  
     349A      4.088050   350A      4.106967   351A      4.114198  
     352A      4.142974   353A      4.158255   354A      4.186568  
     355A      4.191260   356A      4.201970   357A      4.213929  
     358A      4.225753   359A      4.232110   360A      4.259860  
     361A      4.266890   362A      4.289917   363A      4.298912  
     364A      4.311933   365A      4.329904   366A      4.334068  
     367A      4.346397   368A      4.354750   369A      4.362128  
     370A      4.378492   371A      4.387349   372A      4.406802  
     373A      4.422912   374A      4.427820   375A      4.442914  
     376A      4.451960   377A      4.467638   378A      4.477801  
     379A      4.483469   380A      4.510986   381A      4.519391  
     382A      4.519928   383A      4.534083   384A      4.557970  
     385A      4.595996   386A      4.606258   387A      4.616752  
     388A      4.632947   389A      4.657425   390A      4.664689  
     391A      4.668299   392A      4.684789   393A      4.713447  
     394A      4.722050   395A      4.764800   396A      4.782826  
     397A      4.786625   398A      4.791661   399A      4.806654  
     400A      4.816521   401A      4.863813   402A      4.877307  
     403A      4.923484   404A      4.929651   405A      4.980710  
     406A      5.015739   407A      5.020791   408A      5.077275  
     409A      5.094408   410A      5.141104   411A      5.158976  
     412A      5.166641   413A      5.195341   414A      5.213692  
     415A      5.244732   416A      5.269510   417A      5.281701  
     418A      5.290915   419A      5.303416   420A      5.332975  
     421A      5.350225   422A      5.379138   423A      5.401633  
     424A      5.432079   425A      5.448357   426A      5.461896  
     427A      5.477828   428A      5.521878   429A      5.547312  
     430A      5.559775   431A      5.581997   432A      5.591456  
     433A      5.647685   434A      5.654625   435A      5.686692  
     436A      5.689246   437A      5.711563   438A      5.728116  
     439A      5.730926   440A      5.735582   441A      5.759737  
     442A      5.769299   443A      5.782066   444A      5.823609  
     445A      5.857292   446A      5.865115   447A      5.885942  
     448A      5.902508   449A      5.921350   450A      5.953632  
     451A      5.966343   452A      5.996660   453A      6.026213  
     454A      6.053240   455A      6.068384   456A      6.093138  
     457A      6.198905   458A      6.217373   459A      6.238707  
     460A      6.288841   461A      6.423796   462A      6.426233  
     463A      6.449369   464A      6.480387   465A      6.492587  
     466A      6.517967   467A      6.559910   468A      6.658093  
     469A      6.711867   470A      6.725730   471A      6.753944  
     472A      6.771688   473A      6.884226   474A      6.930667  
     475A      6.962962   476A      7.103657   477A      7.187347  
     478A      7.239584   479A      7.263809   480A      7.298864  
     481A      7.319610   482A      7.350932   483A      7.407215  
     484A      7.417937   485A      7.439445   486A      7.457534  
     487A      7.498618   488A      7.526048   489A      7.544523  
     490A      7.714333   491A      7.764945   492A      7.858683  
     493A      7.877333   494A      8.005265   495A      8.050511  
     496A      8.405463   497A     12.164160   498A     12.379483  
     499A     13.787231   500A     14.041462   501A     14.142601  
     502A     14.448772   503A     14.564390   504A     14.769186  
     505A     16.031612  

    Final Occupation by Irrep:
              A 
    DOCC [    36 ]

  @DF-RHF Final Energy:  -475.03270676306698

   => Energetics <=

    Nuclear Repulsion Energy =            456.3274047697250353
    One-Electron Energy =               -1554.9970190522519715
    Two-Electron Energy =                 623.6369075194598963
    Total Energy =                       -475.0327067630670399

Computation Completed


Properties will be evaluated at   0.000000,   0.000000,   0.000000 [a0]

Properties computed using the SCF density matrix

  Nuclear Dipole Moment: [e a0]
     X:    -5.7972      Y:    -0.1727      Z:     1.0652

  Electronic Dipole Moment: [e a0]
     X:     5.1536      Y:     0.9197      Z:    -0.9988

  Dipole Moment: [e a0]
     X:    -0.6436      Y:     0.7470      Z:     0.0663     Total:     0.9882

  Dipole Moment: [D]
     X:    -1.6358      Y:     1.8986      Z:     0.1686     Total:     2.5118


*** tstop() called on r282 at Fri Sep 10 18:02:22 2021
Module time:
	user time   =      66.09 seconds =       1.10 minutes
	system time =       1.49 seconds =       0.02 minutes
	total time  =         67 seconds =       1.12 minutes
Total time:
	user time   =      66.09 seconds =       1.10 minutes
	system time =       1.49 seconds =       0.02 minutes
	total time  =         67 seconds =       1.12 minutes

  //>>>>>>>>>>>>>>>>>>>>>>>>>>>>>>>>>>>//
  //            Monomer A HF           //
  //<<<<<<<<<<<<<<<<<<<<<<<<<<<<<<<<<<<//


*** tstart() called on r282
*** at Fri Sep 10 18:02:22 2021

   => Loading Basis Set <=

    Name: JUN-CC-PVTZ
    Role: ORBITAL
    Keyword: BASIS
    atoms 1, 5, 9-10, 15       entry C          line   217 file /home/r08543048/miniconda3/share/psi4/basis/jun-cc-pvtz.gbs 
    atoms 2-3, 11              entry O          line   305 file /home/r08543048/miniconda3/share/psi4/basis/jun-cc-pvtz.gbs 
    atoms 4, 6-8, 13-14, 16-20 entry H          line    36 file /home/r08543048/miniconda3/share/psi4/basis/jun-cc-pvtz.gbs 
    atoms 12                   entry N          line   261 file /home/r08543048/miniconda3/share/psi4/basis/jun-cc-pvtz.gbs 


         ---------------------------------------------------------
                                   SCF
               by Justin Turney, Rob Parrish, Andy Simmonett
                          and Daniel G. A. Smith
                              RHF Reference
                        1 Threads,  20980 MiB Core
         ---------------------------------------------------------

  ==> Geometry <==

    Molecular point group: c1
    Full point group: C1

    Geometry (in Angstrom), charge = 0, multiplicity = 1:

       Center              X                  Y                   Z               Mass       
    ------------   -----------------  -----------------  -----------------  -----------------
         C            2.408436636221    -0.026989281387     0.049626717533    12.000000000000
         O            1.914842636221     1.088803718613     0.160941717533    15.994914619570
         O            1.709418636221    -1.136981281387    -0.139689282467    15.994914619570
         H            0.729490636221    -0.930417281387    -0.178670282467     1.007825032230
         C            3.884415636221    -0.288002281387     0.113354717533    12.000000000000
         H            4.417747636221     0.642674718613     0.269405717533     1.007825032230
         H            4.092953636221    -0.983905281387     0.923648717533     1.007825032230
         H            4.207752636221    -0.758364281387    -0.813237282467     1.007825032230
      Gh(C)          -3.050654363779     0.299994718613    -0.298160282467    12.000000000000
      Gh(C)          -1.546043363779     0.280908718613    -0.167796282467    12.000000000000
      Gh(O)          -0.919116363779    -0.783819281387    -0.272751282467    15.994914619570
      Gh(N)          -0.934596363779     1.455832718613     0.050529717533    14.003074004430
      Gh(H)           0.083605636221     1.477991718613     0.109894717533     1.007825032230
      Gh(H)          -1.469870363779     2.300226718613     0.130168717533     1.007825032230
      Gh(C)          -3.690505363779    -0.841045281387     0.483688717533    12.000000000000
      Gh(H)          -4.767083363779    -0.857111281387     0.324346717533     1.007825032230
      Gh(H)          -3.272515363779    -1.791997281387     0.162920717533     1.007825032230
      Gh(H)          -3.503540363779    -0.731358281387     1.551167717533     1.007825032230
      Gh(H)          -3.446157363779     1.265183718613     0.019851717533     1.007825032230
      Gh(H)          -3.272993363779     0.191635718613    -1.361831282467     1.007825032230

  Running in c1 symmetry.

  Rotational constants: A =      0.14090  B =      0.02046  C =      0.01835 [cm^-1]
  Rotational constants: A =   4224.21335  B =    613.35054  C =    550.05306 [MHz]
  Nuclear repulsion =  121.140463121353292

  Charge       = 0
  Multiplicity = 1
  Electrons    = 32
  Nalpha       = 16
  Nbeta        = 16

  ==> Algorithm <==

  SCF Algorithm Type is DF.
  DIIS enabled.
  MOM disabled.
  Fractional occupation disabled.
  Guess Type is SAD.
  Energy threshold   = 1.00e-08
  Density threshold  = 1.00e-08
  Integral threshold = 0.00e+00

  ==> Primary Basis <==

  Basis Set: JUN-CC-PVTZ
    Blend: JUN-CC-PVTZ
    Number of shells: 183
    Number of basis function: 505
    Number of Cartesian functions: 570
    Spherical Harmonics?: true
    Max angular momentum: 3

   => Loading Basis Set <=

    Name: (JUN-CC-PVTZ AUX)
    Role: JKFIT
    Keyword: DF_BASIS_SCF
    atoms 1, 5, 9-10, 15       entry C          line   152 file /home/r08543048/miniconda3/share/psi4/basis/jun-cc-pvtz-jkfit.gbs 
    atoms 2-3, 11              entry O          line   272 file /home/r08543048/miniconda3/share/psi4/basis/jun-cc-pvtz-jkfit.gbs 
    atoms 4, 6-8, 13-14, 16-20 entry H          line    70 file /home/r08543048/miniconda3/share/psi4/basis/jun-cc-pvtz-jkfit.gbs 
    atoms 12                   entry N          line   212 file /home/r08543048/miniconda3/share/psi4/basis/jun-cc-pvtz-jkfit.gbs 

  ==> Pre-Iterations <==

   -------------------------------------------------------
    Irrep   Nso     Nmo     Nalpha   Nbeta   Ndocc  Nsocc
   -------------------------------------------------------
     A        505     505       0       0       0       0
   -------------------------------------------------------
    Total     505     505      16      16      16       0
   -------------------------------------------------------

  ==> Integral Setup <==

  ==> DiskDFJK: Density-Fitted J/K Matrices <==

    J tasked:                  Yes
    K tasked:                  Yes
    wK tasked:                  No
    OpenMP threads:              1
    Integrals threads:           1
    Memory [MiB]:            15735
    Algorithm:                Core
    Integral Cache:           LOAD
    Schwarz Cutoff:          1E-12
    Fitting Condition:       1E-10

   => Auxiliary Basis Set <=

  Basis Set: (JUN-CC-PVTZ AUX)
    Blend: JUN-CC-PVTZ-JKFIT
    Number of shells: 371
    Number of basis function: 1185
    Number of Cartesian functions: 1429
    Spherical Harmonics?: true
    Max angular momentum: 4

  Minimum eigenvalue in the overlap matrix is 3.6474893003E-05.
  Using Symmetric Orthogonalization.

  SCF Guess: Superposition of Atomic Densities via on-the-fly atomic UHF.

  ==> Iterations <==

                           Total Energy        Delta E     RMS |[F,P]|

   @DF-RHF iter SAD:  -226.99877811054850   -2.26999e+02   0.00000e+00 
   @DF-RHF iter   1:  -227.73982984009783   -7.41052e-01   1.18990e-03 DIIS
   @DF-RHF iter   2:  -227.85421936997125   -1.14390e-01   7.38912e-04 DIIS
   @DF-RHF iter   3:  -227.89818082029328   -4.39615e-02   1.22779e-04 DIIS
   @DF-RHF iter   4:  -227.90047940493866   -2.29858e-03   5.53927e-05 DIIS
   @DF-RHF iter   5:  -227.90098926199255   -5.09857e-04   1.33247e-05 DIIS
   @DF-RHF iter   6:  -227.90103116341444   -4.19014e-05   6.26890e-06 DIIS
   @DF-RHF iter   7:  -227.90104149957020   -1.03362e-05   2.12457e-06 DIIS
   @DF-RHF iter   8:  -227.90104328713358   -1.78756e-06   5.90166e-07 DIIS
   @DF-RHF iter   9:  -227.90104344612627   -1.58993e-07   1.25802e-07 DIIS
   @DF-RHF iter  10:  -227.90104345221221   -6.08594e-09   2.97618e-08 DIIS
   @DF-RHF iter  11:  -227.90104345245240   -2.40192e-10   6.56554e-09 DIIS
  Energy and wave function converged.


  ==> Post-Iterations <==

    Orbital Energies [Eh]
    ---------------------

    Doubly Occupied:                                                      

       1A    -20.625122     2A    -20.545387     3A    -11.389944  
       4A    -11.243970     5A     -1.468709     6A     -1.353936  
       7A     -1.027466     8A     -0.833610     9A     -0.703244  
      10A     -0.681220    11A     -0.655136    12A     -0.579741  
      13A     -0.570973    14A     -0.564297    15A     -0.477537  
      16A     -0.452026  

    Virtual:                                                              

      17A      0.028730    18A      0.043582    19A      0.052882  
      20A      0.056320    21A      0.062581    22A      0.076298  
      23A      0.079551    24A      0.089810    25A      0.094069  
      26A      0.097150    27A      0.102636    28A      0.105154  
      29A      0.123303    30A      0.130893    31A      0.137441  
      32A      0.139120    33A      0.152778    34A      0.154212  
      35A      0.159033    36A      0.166680    37A      0.170671  
      38A      0.181771    39A      0.184077    40A      0.193745  
      41A      0.195308    42A      0.200355    43A      0.205190  
      44A      0.214226    45A      0.217791    46A      0.224026  
      47A      0.240475    48A      0.250255    49A      0.260234  
      50A      0.269804    51A      0.277998    52A      0.280404  
      53A      0.286021    54A      0.289348    55A      0.304604  
      56A      0.318725    57A      0.321579    58A      0.326415  
      59A      0.331371    60A      0.340964    61A      0.344516  
      62A      0.353459    63A      0.361598    64A      0.365406  
      65A      0.369232    66A      0.373435    67A      0.389751  
      68A      0.392455    69A      0.397984    70A      0.402338  
      71A      0.407691    72A      0.412828    73A      0.422235  
      74A      0.430886    75A      0.436369    76A      0.451402  
      77A      0.454937    78A      0.457889    79A      0.475147  
      80A      0.480918    81A      0.486126    82A      0.497049  
      83A      0.510182    84A      0.515010    85A      0.522418  
      86A      0.533335    87A      0.541729    88A      0.547959  
      89A      0.563898    90A      0.574022    91A      0.576481  
      92A      0.584883    93A      0.596582    94A      0.612512  
      95A      0.620910    96A      0.636996    97A      0.640704  
      98A      0.644986    99A      0.654175   100A      0.657881  
     101A      0.661335   102A      0.674421   103A      0.681412  
     104A      0.688087   105A      0.701127   106A      0.712394  
     107A      0.717511   108A      0.727906   109A      0.736945  
     110A      0.746396   111A      0.756151   112A      0.781699  
     113A      0.792239   114A      0.801716   115A      0.809145  
     116A      0.820050   117A      0.821607   118A      0.831604  
     119A      0.838028   120A      0.845857   121A      0.850041  
     122A      0.856105   123A      0.860028   124A      0.888305  
     125A      0.900492   126A      0.910335   127A      0.931462  
     128A      0.935248   129A      0.944279   130A      0.960015  
     131A      0.982601   132A      0.985827   133A      1.005975  
     134A      1.012925   135A      1.014807   136A      1.025244  
     137A      1.037656   138A      1.052073   139A      1.065875  
     140A      1.080898   141A      1.083681   142A      1.103157  
     143A      1.115518   144A      1.134166   145A      1.143243  
     146A      1.147979   147A      1.163282   148A      1.177146  
     149A      1.191598   150A      1.198352   151A      1.221902  
     152A      1.230755   153A      1.241754   154A      1.255432  
     155A      1.257913   156A      1.265752   157A      1.273314  
     158A      1.279705   159A      1.299177   160A      1.308061  
     161A      1.312961   162A      1.328767   163A      1.335593  
     164A      1.339006   165A      1.349484   166A      1.363369  
     167A      1.373269   168A      1.380440   169A      1.395788  
     170A      1.405556   171A      1.427278   172A      1.433307  
     173A      1.440080   174A      1.466662   175A      1.480430  
     176A      1.492524   177A      1.502571   178A      1.513315  
     179A      1.526202   180A      1.529192   181A      1.542836  
     182A      1.547091   183A      1.558827   184A      1.562560  
     185A      1.568204   186A      1.578827   187A      1.594655  
     188A      1.598600   189A      1.607870   190A      1.622978  
     191A      1.634581   192A      1.649074   193A      1.670483  
     194A      1.694180   195A      1.702968   196A      1.710137  
     197A      1.715871   198A      1.728869   199A      1.754615  
     200A      1.767011   201A      1.793155   202A      1.794877  
     203A      1.805417   204A      1.821618   205A      1.838040  
     206A      1.868825   207A      1.883396   208A      1.891542  
     209A      1.921284   210A      1.954536   211A      1.958700  
     212A      1.980476   213A      1.989417   214A      2.020348  
     215A      2.065043   216A      2.078084   217A      2.103215  
     218A      2.129688   219A      2.150924   220A      2.159585  
     221A      2.210203   222A      2.226031   223A      2.242556  
     224A      2.297446   225A      2.310967   226A      2.313426  
     227A      2.355588   228A      2.369370   229A      2.406958  
     230A      2.415456   231A      2.424963   232A      2.432766  
     233A      2.435387   234A      2.460019   235A      2.481998  
     236A      2.511100   237A      2.531943   238A      2.553342  
     239A      2.582474   240A      2.604754   241A      2.628873  
     242A      2.664601   243A      2.691183   244A      2.718196  
     245A      2.756649   246A      2.775096   247A      2.795594  
     248A      2.826971   249A      2.839847   250A      2.856178  
     251A      2.881353   252A      2.890624   253A      2.955421  
     254A      2.960457   255A      2.967997   256A      3.012210  
     257A      3.026155   258A      3.032282   259A      3.097820  
     260A      3.107209   261A      3.158572   262A      3.201812  
     263A      3.223436   264A      3.272021   265A      3.297380  
     266A      3.316106   267A      3.345186   268A      3.363937  
     269A      3.414339   270A      3.426638   271A      3.431536  
     272A      3.441061   273A      3.480736   274A      3.500842  
     275A      3.524062   276A      3.545708   277A      3.553491  
     278A      3.568809   279A      3.607170   280A      3.608463  
     281A      3.617276   282A      3.630971   283A      3.638234  
     284A      3.661396   285A      3.676813   286A      3.697234  
     287A      3.710528   288A      3.711288   289A      3.743931  
     290A      3.753227   291A      3.771025   292A      3.776208  
     293A      3.786048   294A      3.793111   295A      3.804925  
     296A      3.816506   297A      3.824206   298A      3.835931  
     299A      3.848691   300A      3.853505   301A      3.872508  
     302A      3.884321   303A      3.896869   304A      3.911057  
     305A      3.933018   306A      4.002595   307A      4.014906  
     308A      4.051216   309A      4.068578   310A      4.093792  
     311A      4.096418   312A      4.122170   313A      4.129774  
     314A      4.148854   315A      4.151984   316A      4.189020  
     317A      4.195901   318A      4.213066   319A      4.240824  
     320A      4.258607   321A      4.288111   322A      4.291174  
     323A      4.307049   324A      4.316195   325A      4.330072  
     326A      4.334799   327A      4.344289   328A      4.365827  
     329A      4.395127   330A      4.407512   331A      4.428885  
     332A      4.446163   333A      4.450244   334A      4.466977  
     335A      4.479399   336A      4.515198   337A      4.526708  
     338A      4.543356   339A      4.563320   340A      4.575639  
     341A      4.594766   342A      4.605067   343A      4.618826  
     344A      4.635740   345A      4.643952   346A      4.648985  
     347A      4.673575   348A      4.697226   349A      4.709498  
     350A      4.724957   351A      4.742157   352A      4.757088  
     353A      4.759825   354A      4.770908   355A      4.776403  
     356A      4.778609   357A      4.787293   358A      4.798602  
     359A      4.815468   360A      4.820517   361A      4.832263  
     362A      4.833538   363A      4.853877   364A      4.860388  
     365A      4.877914   366A      4.890817   367A      4.906081  
     368A      4.925621   369A      4.936509   370A      4.954255  
     371A      4.970608   372A      4.973445   373A      4.981811  
     374A      4.994576   375A      5.006704   376A      5.024575  
     377A      5.059478   378A      5.073301   379A      5.078517  
     380A      5.099191   381A      5.117028   382A      5.125995  
     383A      5.148740   384A      5.152359   385A      5.184293  
     386A      5.217726   387A      5.230930   388A      5.255902  
     389A      5.292541   390A      5.310401   391A      5.342306  
     392A      5.392486   393A      5.438033   394A      5.439569  
     395A      5.469588   396A      5.510084   397A      5.526666  
     398A      5.571462   399A      5.575785   400A      5.628214  
     401A      5.634706   402A      5.648967   403A      5.675947  
     404A      5.678979   405A      5.694929   406A      5.732805  
     407A      5.739864   408A      5.815154   409A      5.848101  
     410A      5.875070   411A      5.879039   412A      5.910408  
     413A      5.928281   414A      5.956899   415A      5.984973  
     416A      6.041180   417A      6.063016   418A      6.101295  
     419A      6.135560   420A      6.215555   421A      6.237805  
     422A      6.267708   423A      6.272954   424A      6.299171  
     425A      6.329344   426A      6.364375   427A      6.408342  
     428A      6.414378   429A      6.435791   430A      6.445283  
     431A      6.456206   432A      6.473393   433A      6.533311  
     434A      6.542245   435A      6.577722   436A      6.589732  
     437A      6.692714   438A      6.724913   439A      6.748477  
     440A      6.776985   441A      6.820397   442A      6.877963  
     443A      6.890919   444A      6.898413   445A      6.967907  
     446A      7.012578   447A      7.073648   448A      7.142659  
     449A      7.183231   450A      7.267050   451A      7.286423  
     452A      7.314742   453A      7.332225   454A      7.364414  
     455A      7.396186   456A      7.424113   457A      7.441121  
     458A      7.452576   459A      7.469755   460A      7.513770  
     461A      7.535608   462A      7.620158   463A      7.651575  
     464A      7.673717   465A      7.773263   466A      7.787167  
     467A      7.795144   468A      7.816338   469A      7.851862  
     470A      7.887204   471A      7.940252   472A      7.979350  
     473A      8.026272   474A      8.044531   475A      8.195467  
     476A      8.323732   477A      8.399121   478A      8.480449  
     479A      8.894738   480A      9.123245   481A      9.140884  
     482A      9.174352   483A      9.514957   484A      9.659737  
     485A      9.804159   486A      9.895934   487A      9.906730  
     488A      9.994634   489A     10.335511   490A     10.632348  
     491A     10.937470   492A     11.526782   493A     11.577027  
     494A     11.688575   495A     11.978288   496A     12.235102  
     497A     13.699502   498A     13.882667   499A     14.439185  
     500A     14.758672   501A     43.150260   502A     44.967190  
     503A     45.669846   504A     56.105418   505A     60.942665  

    Final Occupation by Irrep:
              A 
    DOCC [    16 ]

  @DF-RHF Final Energy:  -227.90104345245240

   => Energetics <=

    Nuclear Repulsion Energy =            121.1404631213532923
    One-Electron Energy =                -551.7383810102072630
    Two-Electron Energy =                 202.6968744364016004
    Total Energy =                       -227.9010434524523987

Computation Completed


Properties will be evaluated at   0.000000,   0.000000,   0.000000 [a0]

Properties computed using the SCF density matrix

  Nuclear Dipole Moment: [e a0]
     X:   151.5544      Y:    -8.1360      Z:     2.5493

  Electronic Dipole Moment: [e a0]
     X:  -151.2872      Y:     7.2937      Z:    -2.6410

  Dipole Moment: [e a0]
     X:     0.2672      Y:    -0.8423      Z:    -0.0916     Total:     0.8884

  Dipole Moment: [D]
     X:     0.6792      Y:    -2.1408      Z:    -0.2330     Total:     2.2580


*** tstop() called on r282 at Fri Sep 10 18:03:01 2021
Module time:
	user time   =      37.82 seconds =       0.63 minutes
	system time =       0.65 seconds =       0.01 minutes
	total time  =         39 seconds =       0.65 minutes
Total time:
	user time   =     103.91 seconds =       1.73 minutes
	system time =       2.14 seconds =       0.04 minutes
	total time  =        106 seconds =       1.77 minutes

  //>>>>>>>>>>>>>>>>>>>>>>>>>>>>>>>>>>>//
  //            Monomer B HF           //
  //<<<<<<<<<<<<<<<<<<<<<<<<<<<<<<<<<<<//


*** tstart() called on r282
*** at Fri Sep 10 18:03:01 2021

   => Loading Basis Set <=

    Name: JUN-CC-PVTZ
    Role: ORBITAL
    Keyword: BASIS
    atoms 1, 5, 9-10, 15       entry C          line   217 file /home/r08543048/miniconda3/share/psi4/basis/jun-cc-pvtz.gbs 
    atoms 2-3, 11              entry O          line   305 file /home/r08543048/miniconda3/share/psi4/basis/jun-cc-pvtz.gbs 
    atoms 4, 6-8, 13-14, 16-20 entry H          line    36 file /home/r08543048/miniconda3/share/psi4/basis/jun-cc-pvtz.gbs 
    atoms 12                   entry N          line   261 file /home/r08543048/miniconda3/share/psi4/basis/jun-cc-pvtz.gbs 


         ---------------------------------------------------------
                                   SCF
               by Justin Turney, Rob Parrish, Andy Simmonett
                          and Daniel G. A. Smith
                              RHF Reference
                        1 Threads,  20980 MiB Core
         ---------------------------------------------------------

  ==> Geometry <==

    Molecular point group: c1
    Full point group: C1

    Geometry (in Angstrom), charge = 0, multiplicity = 1:

       Center              X                  Y                   Z               Mass       
    ------------   -----------------  -----------------  -----------------  -----------------
      Gh(C)           2.408436636221    -0.026989281387     0.049626717533    12.000000000000
      Gh(O)           1.914842636221     1.088803718613     0.160941717533    15.994914619570
      Gh(O)           1.709418636221    -1.136981281387    -0.139689282467    15.994914619570
      Gh(H)           0.729490636221    -0.930417281387    -0.178670282467     1.007825032230
      Gh(C)           3.884415636221    -0.288002281387     0.113354717533    12.000000000000
      Gh(H)           4.417747636221     0.642674718613     0.269405717533     1.007825032230
      Gh(H)           4.092953636221    -0.983905281387     0.923648717533     1.007825032230
      Gh(H)           4.207752636221    -0.758364281387    -0.813237282467     1.007825032230
         C           -3.050654363779     0.299994718613    -0.298160282467    12.000000000000
         C           -1.546043363779     0.280908718613    -0.167796282467    12.000000000000
         O           -0.919116363779    -0.783819281387    -0.272751282467    15.994914619570
         N           -0.934596363779     1.455832718613     0.050529717533    14.003074004430
         H            0.083605636221     1.477991718613     0.109894717533     1.007825032230
         H           -1.469870363779     2.300226718613     0.130168717533     1.007825032230
         C           -3.690505363779    -0.841045281387     0.483688717533    12.000000000000
         H           -4.767083363779    -0.857111281387     0.324346717533     1.007825032230
         H           -3.272515363779    -1.791997281387     0.162920717533     1.007825032230
         H           -3.503540363779    -0.731358281387     1.551167717533     1.007825032230
         H           -3.446157363779     1.265183718613     0.019851717533     1.007825032230
         H           -3.272993363779     0.191635718613    -1.361831282467     1.007825032230

  Running in c1 symmetry.

  Rotational constants: A =      0.14090  B =      0.02046  C =      0.01835 [cm^-1]
  Rotational constants: A =   4224.21335  B =    613.35054  C =    550.05306 [MHz]
  Nuclear repulsion =  179.301341714480685

  Charge       = 0
  Multiplicity = 1
  Electrons    = 40
  Nalpha       = 20
  Nbeta        = 20

  ==> Algorithm <==

  SCF Algorithm Type is DF.
  DIIS enabled.
  MOM disabled.
  Fractional occupation disabled.
  Guess Type is SAD.
  Energy threshold   = 1.00e-08
  Density threshold  = 1.00e-08
  Integral threshold = 0.00e+00

  ==> Primary Basis <==

  Basis Set: JUN-CC-PVTZ
    Blend: JUN-CC-PVTZ
    Number of shells: 183
    Number of basis function: 505
    Number of Cartesian functions: 570
    Spherical Harmonics?: true
    Max angular momentum: 3

   => Loading Basis Set <=

    Name: (JUN-CC-PVTZ AUX)
    Role: JKFIT
    Keyword: DF_BASIS_SCF
    atoms 1, 5, 9-10, 15       entry C          line   152 file /home/r08543048/miniconda3/share/psi4/basis/jun-cc-pvtz-jkfit.gbs 
    atoms 2-3, 11              entry O          line   272 file /home/r08543048/miniconda3/share/psi4/basis/jun-cc-pvtz-jkfit.gbs 
    atoms 4, 6-8, 13-14, 16-20 entry H          line    70 file /home/r08543048/miniconda3/share/psi4/basis/jun-cc-pvtz-jkfit.gbs 
    atoms 12                   entry N          line   212 file /home/r08543048/miniconda3/share/psi4/basis/jun-cc-pvtz-jkfit.gbs 

  ==> Pre-Iterations <==

   -------------------------------------------------------
    Irrep   Nso     Nmo     Nalpha   Nbeta   Ndocc  Nsocc
   -------------------------------------------------------
     A        505     505       0       0       0       0
   -------------------------------------------------------
    Total     505     505      20      20      20       0
   -------------------------------------------------------

  ==> Integral Setup <==

  ==> DiskDFJK: Density-Fitted J/K Matrices <==

    J tasked:                  Yes
    K tasked:                  Yes
    wK tasked:                  No
    OpenMP threads:              1
    Integrals threads:           1
    Memory [MiB]:            15735
    Algorithm:                Core
    Integral Cache:           LOAD
    Schwarz Cutoff:          1E-12
    Fitting Condition:       1E-10

   => Auxiliary Basis Set <=

  Basis Set: (JUN-CC-PVTZ AUX)
    Blend: JUN-CC-PVTZ-JKFIT
    Number of shells: 371
    Number of basis function: 1185
    Number of Cartesian functions: 1429
    Spherical Harmonics?: true
    Max angular momentum: 4

  Minimum eigenvalue in the overlap matrix is 3.6474893003E-05.
  Using Symmetric Orthogonalization.

  SCF Guess: Superposition of Atomic Densities via on-the-fly atomic UHF.

  ==> Iterations <==

                           Total Energy        Delta E     RMS |[F,P]|

   @DF-RHF iter SAD:  -246.30473442212570   -2.46305e+02   0.00000e+00 
   @DF-RHF iter   1:  -246.89173672887142   -5.87002e-01   1.29669e-03 DIIS
   @DF-RHF iter   2:  -247.05227235430488   -1.60536e-01   7.57697e-04 DIIS
   @DF-RHF iter   3:  -247.10409985777119   -5.18275e-02   1.48875e-04 DIIS
   @DF-RHF iter   4:  -247.10717186920317   -3.07201e-03   6.35337e-05 DIIS
   @DF-RHF iter   5:  -247.10781248136908   -6.40612e-04   1.00528e-05 DIIS
   @DF-RHF iter   6:  -247.10784815253993   -3.56712e-05   3.89451e-06 DIIS
   @DF-RHF iter   7:  -247.10785267848377   -4.52594e-06   1.67654e-06 DIIS
   @DF-RHF iter   8:  -247.10785363590776   -9.57424e-07   6.92781e-07 DIIS
   @DF-RHF iter   9:  -247.10785382348064   -1.87573e-07   1.67101e-07 DIIS
   @DF-RHF iter  10:  -247.10785383528705   -1.18064e-08   4.26554e-08 DIIS
   @DF-RHF iter  11:  -247.10785383586111   -5.74062e-10   1.22032e-08 DIIS
   @DF-RHF iter  12:  -247.10785383590809   -4.69811e-11   3.10022e-09 DIIS
  Energy and wave function converged.


  ==> Post-Iterations <==

    Orbital Energies [Eh]
    ---------------------

    Doubly Occupied:                                                      

       1A    -20.509348     2A    -15.592463     3A    -11.348216  
       4A    -11.240949     5A    -11.218032     6A     -1.365020  
       7A     -1.217394     8A     -1.052796     9A     -0.893916  
      10A     -0.789791    11A     -0.727206    12A     -0.672002  
      13A     -0.628325    14A     -0.591716    15A     -0.564815  
      16A     -0.523424    17A     -0.513089    18A     -0.496010  
      19A     -0.417791    20A     -0.411894  

    Virtual:                                                              

      21A      0.035569    22A      0.042395    23A      0.054952  
      24A      0.061043    25A      0.071141    26A      0.075097  
      27A      0.076894    28A      0.088882    29A      0.097054  
      30A      0.102050    31A      0.105584    32A      0.111511  
      33A      0.125447    34A      0.134608    35A      0.135489  
      36A      0.144486    37A      0.150197    38A      0.156483  
      39A      0.163179    40A      0.176784    41A      0.179388  
      42A      0.182648    43A      0.193877    44A      0.197634  
      45A      0.203470    46A      0.210928    47A      0.213876  
      48A      0.220783    49A      0.229490    50A      0.231646  
      51A      0.239679    52A      0.266662    53A      0.268389  
      54A      0.275346    55A      0.280617    56A      0.288841  
      57A      0.291105    58A      0.298221    59A      0.310432  
      60A      0.314165    61A      0.320586    62A      0.326841  
      63A      0.332076    64A      0.339079    65A      0.348598  
      66A      0.354365    67A      0.355826    68A      0.367595  
      69A      0.368717    70A      0.376826    71A      0.377824  
      72A      0.388995    73A      0.392473    74A      0.406515  
      75A      0.417090    76A      0.423785    77A      0.429978  
      78A      0.435326    79A      0.442112    80A      0.458912  
      81A      0.466739    82A      0.470292    83A      0.479139  
      84A      0.485663    85A      0.497417    86A      0.503332  
      87A      0.504482    88A      0.512747    89A      0.517788  
      90A      0.527731    91A      0.535314    92A      0.542573  
      93A      0.554236    94A      0.561485    95A      0.568194  
      96A      0.574915    97A      0.594211    98A      0.595915  
      99A      0.609624   100A      0.615234   101A      0.619186  
     102A      0.633283   103A      0.639221   104A      0.648721  
     105A      0.668211   106A      0.677348   107A      0.683822  
     108A      0.697399   109A      0.720220   110A      0.724895  
     111A      0.745465   112A      0.753178   113A      0.765492  
     114A      0.773380   115A      0.783742   116A      0.788856  
     117A      0.795895   118A      0.806062   119A      0.810378  
     120A      0.815382   121A      0.832406   122A      0.839668  
     123A      0.845998   124A      0.867918   125A      0.872864  
     126A      0.882174   127A      0.893080   128A      0.897779  
     129A      0.904670   130A      0.912388   131A      0.920761  
     132A      0.945871   133A      0.954076   134A      0.966415  
     135A      0.971967   136A      0.984007   137A      1.002036  
     138A      1.016629   139A      1.018188   140A      1.031406  
     141A      1.040750   142A      1.049703   143A      1.059565  
     144A      1.063818   145A      1.065400   146A      1.071669  
     147A      1.089964   148A      1.093759   149A      1.102603  
     150A      1.107477   151A      1.124475   152A      1.144488  
     153A      1.155256   154A      1.159395   155A      1.165576  
     156A      1.187524   157A      1.199986   158A      1.206272  
     159A      1.224180   160A      1.228009   161A      1.238655  
     162A      1.266621   163A      1.271825   164A      1.286970  
     165A      1.300016   166A      1.306908   167A      1.324831  
     168A      1.328877   169A      1.342695   170A      1.348189  
     171A      1.361223   172A      1.374438   173A      1.379870  
     174A      1.386105   175A      1.401387   176A      1.415996  
     177A      1.429060   178A      1.431712   179A      1.437381  
     180A      1.458547   181A      1.461745   182A      1.477248  
     183A      1.489746   184A      1.505550   185A      1.519689  
     186A      1.528312   187A      1.534210   188A      1.557274  
     189A      1.564527   190A      1.569562   191A      1.573899  
     192A      1.590581   193A      1.615242   194A      1.622667  
     195A      1.637896   196A      1.643465   197A      1.659271  
     198A      1.682178   199A      1.685396   200A      1.709285  
     201A      1.726804   202A      1.742897   203A      1.755316  
     204A      1.761515   205A      1.784509   206A      1.803128  
     207A      1.822222   208A      1.837643   209A      1.845380  
     210A      1.866723   211A      1.880883   212A      1.907379  
     213A      1.920453   214A      1.931010   215A      1.940555  
     216A      1.963800   217A      1.967102   218A      1.977170  
     219A      1.994117   220A      2.020701   221A      2.036657  
     222A      2.044201   223A      2.093884   224A      2.137486  
     225A      2.157290   226A      2.184141   227A      2.223969  
     228A      2.251989   229A      2.321057   230A      2.344366  
     231A      2.349197   232A      2.412443   233A      2.442784  
     234A      2.449930   235A      2.485175   236A      2.493822  
     237A      2.510027   238A      2.598844   239A      2.613322  
     240A      2.651473   241A      2.677983   242A      2.722665  
     243A      2.770307   244A      2.779418   245A      2.788574  
     246A      2.819955   247A      2.831617   248A      2.851976  
     249A      2.870917   250A      2.884412   251A      2.894203  
     252A      2.914246   253A      2.922624   254A      2.962064  
     255A      2.970102   256A      2.990791   257A      3.002082  
     258A      3.010309   259A      3.033283   260A      3.046342  
     261A      3.059831   262A      3.076282   263A      3.127145  
     264A      3.128609   265A      3.145365   266A      3.166437  
     267A      3.178159   268A      3.205839   269A      3.229844  
     270A      3.278858   271A      3.282597   272A      3.339605  
     273A      3.347995   274A      3.367802   275A      3.382838  
     276A      3.410497   277A      3.414917   278A      3.441208  
     279A      3.451951   280A      3.465393   281A      3.473318  
     282A      3.483866   283A      3.491516   284A      3.498079  
     285A      3.506376   286A      3.525552   287A      3.534986  
     288A      3.555416   289A      3.561840   290A      3.568576  
     291A      3.586495   292A      3.596997   293A      3.610740  
     294A      3.625541   295A      3.632742   296A      3.651383  
     297A      3.670511   298A      3.679402   299A      3.695894  
     300A      3.699168   301A      3.716249   302A      3.743668  
     303A      3.782841   304A      3.791945   305A      3.804382  
     306A      3.817228   307A      3.836211   308A      3.848097  
     309A      3.867804   310A      3.870076   311A      3.876602  
     312A      3.895118   313A      3.932564   314A      3.945833  
     315A      3.954437   316A      3.982680   317A      3.986278  
     318A      4.009312   319A      4.013043   320A      4.015177  
     321A      4.041511   322A      4.077860   323A      4.098789  
     324A      4.115287   325A      4.142614   326A      4.163435  
     327A      4.178494   328A      4.201019   329A      4.207669  
     330A      4.223224   331A      4.248239   332A      4.254691  
     333A      4.274653   334A      4.279106   335A      4.289178  
     336A      4.309750   337A      4.328676   338A      4.344450  
     339A      4.346482   340A      4.356580   341A      4.374416  
     342A      4.381665   343A      4.391001   344A      4.418592  
     345A      4.435114   346A      4.442866   347A      4.451893  
     348A      4.459664   349A      4.470605   350A      4.476123  
     351A      4.503243   352A      4.510271   353A      4.524834  
     354A      4.535752   355A      4.555281   356A      4.559489  
     357A      4.587797   358A      4.611095   359A      4.626953  
     360A      4.649937   361A      4.662349   362A      4.666263  
     363A      4.669039   364A      4.708964   365A      4.724511  
     366A      4.738111   367A      4.756782   368A      4.760529  
     369A      4.771106   370A      4.794555   371A      4.806789  
     372A      4.822242   373A      4.830878   374A      4.851583  
     375A      4.858874   376A      4.872038   377A      4.894753  
     378A      4.915752   379A      4.924707   380A      4.932534  
     381A      4.940429   382A      4.968358   383A      4.977407  
     384A      5.008223   385A      5.015978   386A      5.061184  
     387A      5.075607   388A      5.134249   389A      5.138117  
     390A      5.146650   391A      5.171400   392A      5.182162  
     393A      5.210307   394A      5.231840   395A      5.245307  
     396A      5.264866   397A      5.283103   398A      5.292588  
     399A      5.300069   400A      5.334854   401A      5.351335  
     402A      5.370545   403A      5.392229   404A      5.424892  
     405A      5.451508   406A      5.478856   407A      5.514598  
     408A      5.561996   409A      5.578011   410A      5.616090  
     411A      5.670634   412A      5.680917   413A      5.702312  
     414A      5.719795   415A      5.738522   416A      5.747694  
     417A      5.774173   418A      5.781645   419A      5.813526  
     420A      5.859047   421A      5.875431   422A      5.920821  
     423A      5.965356   424A      5.978488   425A      5.988907  
     426A      5.993831   427A      6.051814   428A      6.071520  
     429A      6.076946   430A      6.090802   431A      6.161742  
     432A      6.174911   433A      6.213163   434A      6.238017  
     435A      6.269511   436A      6.291869   437A      6.339053  
     438A      6.443891   439A      6.476533   440A      6.492832  
     441A      6.506381   442A      6.516533   443A      6.521966  
     444A      6.570510   445A      6.667873   446A      6.707898  
     447A      6.750938   448A      6.765746   449A      6.807992  
     450A      6.827747   451A      6.912526   452A      7.026358  
     453A      7.159675   454A      7.199051   455A      7.237559  
     456A      7.268505   457A      7.299780   458A      7.405539  
     459A      7.475564   460A      7.486234   461A      7.532353  
     462A      7.539556   463A      7.569812   464A      7.594052  
     465A      7.732403   466A      7.763761   467A      7.800222  
     468A      7.843121   469A      7.881131   470A      7.932260  
     471A      8.046370   472A      8.059213   473A      8.144345  
     474A      8.360010   475A      8.692220   476A      8.898276  
     477A      9.135751   478A      9.466636   479A      9.719414  
     480A      9.773283   481A      9.868606   482A      9.900822  
     483A      9.903672   484A      9.955144   485A      9.982202  
     486A     10.131337   487A     10.417614   488A     10.540817  
     489A     11.025122   490A     11.377431   491A     11.545872  
     492A     11.615130   493A     11.973535   494A     12.331580  
     495A     13.131250   496A     13.772599   497A     14.026324  
     498A     14.059202   499A     14.157084   500A     14.569673  
     501A     16.015833   502A     43.154649   503A     46.122263  
     504A     60.915679   505A     61.742151  

    Final Occupation by Irrep:
              A 
    DOCC [    20 ]

  @DF-RHF Final Energy:  -247.10785383590809

   => Energetics <=

    Nuclear Repulsion Energy =            179.3013417144806851
    One-Electron Energy =                -691.2699959154938369
    Two-Electron Energy =                 264.8608003651050353
    Total Energy =                       -247.1078538359080881

Computation Completed


Properties will be evaluated at   0.000000,   0.000000,   0.000000 [a0]

Properties computed using the SCF density matrix

  Nuclear Dipole Moment: [e a0]
     X:  -157.3516      Y:     7.9633      Z:    -1.4842

  Electronic Dipole Moment: [e a0]
     X:   156.7203      Y:    -6.4229      Z:     1.6490

  Dipole Moment: [e a0]
     X:    -0.6313      Y:     1.5404      Z:     0.1648     Total:     1.6729

  Dipole Moment: [D]
     X:    -1.6047      Y:     3.9154      Z:     0.4189     Total:     4.2521


*** tstop() called on r282 at Fri Sep 10 18:03:44 2021
Module time:
	user time   =      42.34 seconds =       0.71 minutes
	system time =       0.69 seconds =       0.01 minutes
	total time  =         43 seconds =       0.72 minutes
Total time:
	user time   =     146.25 seconds =       2.44 minutes
	system time =       2.83 seconds =       0.05 minutes
	total time  =        149 seconds =       2.48 minutes
  Constructing Basis Sets for SAPT...

   => Loading Basis Set <=

    Name: (JUN-CC-PVTZ AUX)
    Role: RIFIT
    Keyword: DF_BASIS_SAPT
    atoms 1, 5, 9-10, 15       entry C          line   132 file /home/r08543048/miniconda3/share/psi4/basis/jun-cc-pvtz-ri.gbs 
    atoms 2-3, 11              entry O          line   244 file /home/r08543048/miniconda3/share/psi4/basis/jun-cc-pvtz-ri.gbs 
    atoms 4, 6-8, 13-14, 16-20 entry H          line    30 file /home/r08543048/miniconda3/share/psi4/basis/jun-cc-pvtz-ri.gbs 
    atoms 12                   entry N          line   188 file /home/r08543048/miniconda3/share/psi4/basis/jun-cc-pvtz-ri.gbs 


  //>>>>>>>>>>>>>>>>>>>>>>>>>>>>>>>>>>>//
  //               SAPT0               //
  //<<<<<<<<<<<<<<<<<<<<<<<<<<<<<<<<<<<//


*** tstart() called on r282
*** at Fri Sep 10 18:03:44 2021

        SAPT0  
    Ed Hohenstein
     6 June 2009

      Orbital Information
  --------------------------
    NSO        =       505
    NMO        =       505
    NRI        =      1203
    NOCC A     =        16
    NOCC B     =        20
    FOCC A     =         0
    FOCC B     =         0
    NVIR A     =       489
    NVIR B     =       485

    Elst10,r            =    -0.049038186954 [Eh]
    Exch10              =     0.047376060659 [Eh]
    Exch10 (S^2)        =     0.046627146860 [Eh]

    Iter     Energy [mEh]          dE [mEh]         Residual      Time [s]
       1      -8.79748592       8.797485923      19.320488323             1
       2     -10.11973386       1.322247938      10.482390278             2
       3     -10.84714482       0.727410963       2.577400618             3
       4     -10.76862353      -0.078521297       1.023114570             4
       5     -10.75657013      -0.012053398       0.295473344             5
       6     -10.76548977       0.008919640       0.102163552             6
       7     -10.76599268       0.000502914       0.027968561             7
       8     -10.76538322      -0.000609463       0.009259208             8
       9     -10.76529931      -0.000083912       0.002816310             9
      10     -10.76534830       0.000048986       0.000702192            10
      11     -10.76535156       0.000003262       0.000137304            11
      12     -10.76534884      -0.000002713       0.000035707            12
      13     -10.76534900       0.000000160       0.000013252            13
      14     -10.76534923       0.000000223       0.000005494            14
      15     -10.76534914      -0.000000084       0.000001778            15
      16     -10.76534915       0.000000009       0.000000357            16

    CHF Iterations converged


    Iter     Energy [mEh]          dE [mEh]         Residual      Time [s]
       1     -12.25051845      12.250518445      25.118252780             1
       2     -14.49432977       2.243811325      14.272421393             2
       3     -15.71253286       1.218203093       3.459936770             4
       4     -15.59977867      -0.112754192       1.370276878             5
       5     -15.57876068      -0.021017988       0.400553886             6
       6     -15.59122711       0.012466424       0.152870129             7
       7     -15.59359855       0.002371445       0.035912701             8
       8     -15.59269704      -0.000901512       0.011651592             9
       9     -15.59254447      -0.000152567       0.003133953            10
      10     -15.59260137       0.000056900       0.000757732            11
      11     -15.59261031       0.000008940       0.000157487            12
      12     -15.59260694      -0.000003368       0.000035448            13
      13     -15.59260704       0.000000095       0.000011041            14
      14     -15.59260719       0.000000149       0.000003320            15
      15     -15.59260717      -0.000000014       0.000001372            16
      16     -15.59260716      -0.000000014       0.000000581            17

    CHF Iterations converged

    Ind20,r (A<-B)      =    -0.010765349151 [Eh]
    Ind20,r (B<-A)      =    -0.015592607161 [Eh]
    Ind20,r             =    -0.026357956312 [Eh]
    Exch-Ind20,r (A<-B) =     0.006101912973 [Eh]
    Exch-Ind20,r (B<-A) =     0.007636279923 [Eh]
    Exch-Ind20,r        =     0.013738192896 [Eh]
    Disp20              =    -0.015513950165 [Eh]
    Disp20 (SS)         =    -0.007756975083 [Eh]
    Disp20 (OS)         =    -0.007756975083 [Eh]
    Exch-Disp20         =     0.003097833206 [Eh]
    Exch-Disp20 (SS)    =     0.001947123413 [Eh]
    Exch-Disp20 (OS)    =     0.001150709793 [Eh]

    SAPT Results 
  --------------------------------------------------------------------------------------------------------
    Electrostatics                -49.03818695 [mEh]     -30.77192689 [kcal/mol]    -128.74974211 [kJ/mol]
      Elst10,r                    -49.03818695 [mEh]     -30.77192689 [kcal/mol]    -128.74974211 [kJ/mol]

    Exchange                       47.37606066 [mEh]      29.72892689 [kcal/mol]     124.38583012 [kJ/mol]
      Exch10                       47.37606066 [mEh]      29.72892689 [kcal/mol]     124.38583012 [kJ/mol]
      Exch10(S^2)                  46.62714686 [mEh]      29.25897639 [kcal/mol]     122.41955721 [kJ/mol]

    Induction                     -22.14734841 [mEh]     -13.89767095 [kcal/mol]     -58.14785524 [kJ/mol]
      Ind20,r                     -26.35795631 [mEh]     -16.53986730 [kcal/mol]     -69.20280476 [kJ/mol]
      Exch-Ind20,r                 13.73819290 [mEh]       8.62084619 [kcal/mol]      36.06962048 [kJ/mol]
      delta HF,r (2)               -9.52758499 [mEh]      -5.97864985 [kcal/mol]     -25.01467096 [kJ/mol]

    Dispersion                    -12.41611696 [mEh]      -7.79123102 [kcal/mol]     -32.59851058 [kJ/mol]
      Disp20                      -15.51395017 [mEh]      -9.73515070 [kcal/mol]     -40.73187055 [kJ/mol]
      Exch-Disp20                   3.09783321 [mEh]       1.94391968 [kcal/mol]       8.13335996 [kJ/mol]
      Disp20 (SS)                  -7.75697508 [mEh]      -4.86757535 [kcal/mol]     -20.36593527 [kJ/mol]
      Disp20 (OS)                  -7.75697508 [mEh]      -4.86757535 [kcal/mol]     -20.36593527 [kJ/mol]
      Exch-Disp20 (SS)              1.94712341 [mEh]       1.22183839 [kcal/mol]       5.11217182 [kJ/mol]
      Exch-Disp20 (OS)              1.15070979 [mEh]       0.72208130 [kcal/mol]       3.02118814 [kJ/mol]

  Total HF                        -23.80947471 [mEh]     -14.94067094 [kcal/mol]     -62.51176723 [kJ/mol]
  Total SAPT0                     -36.22559167 [mEh]     -22.73190196 [kcal/mol]     -95.11027781 [kJ/mol]

  Special recipe for scaled SAPT0 (see Manual):
    Electrostatics sSAPT0         -49.03818695 [mEh]     -30.77192689 [kcal/mol]    -128.74974211 [kJ/mol]
    Exchange sSAPT0                47.37606066 [mEh]      29.72892689 [kcal/mol]     124.38583012 [kJ/mol]
    Induction sSAPT0              -21.47468049 [mEh]     -13.47556546 [kcal/mol]     -56.38176587 [kJ/mol]
    Dispersion sSAPT0             -12.26443667 [mEh]      -7.69605020 [kcal/mol]     -32.20027405 [kJ/mol]
  Total sSAPT0                    -35.40124346 [mEh]     -22.21461566 [kcal/mol]     -92.94595191 [kJ/mol]
  --------------------------------------------------------------------------------------------------------

*** tstop() called on r282 at Fri Sep 10 18:05:59 2021
Module time:
	user time   =     115.00 seconds =       1.92 minutes
	system time =      20.06 seconds =       0.33 minutes
	total time  =        135 seconds =       2.25 minutes
Total time:
	user time   =     261.38 seconds =       4.36 minutes
	system time =      22.89 seconds =       0.38 minutes
	total time  =        284 seconds =       4.73 minutes

    Psi4 stopped on: Friday, 10 September 2021 06:05PM
    Psi4 wall time for execution: 0:04:44.62

*** Psi4 exiting successfully. Buy a developer a beer!
