
    -----------------------------------------------------------------------
          Psi4: An Open-Source Ab Initio Electronic Structure Package
                               Psi4 1.3.2 release

                         Git: Rev {HEAD} ecbda83 


    R. M. Parrish, L. A. Burns, D. G. A. Smith, A. C. Simmonett,
    A. E. DePrince III, E. G. Hohenstein, U. Bozkaya, A. Yu. Sokolov,
    R. Di Remigio, R. M. Richard, J. F. Gonthier, A. M. James,
    H. R. McAlexander, A. Kumar, M. Saitow, X. Wang, B. P. Pritchard,
    P. Verma, H. F. Schaefer III, K. Patkowski, R. A. King, E. F. Valeev,
    F. A. Evangelista, J. M. Turney, T. D. Crawford, and C. D. Sherrill,
    J. Chem. Theory Comput. 13(7) pp 3185--3197 (2017).
    (doi: 10.1021/acs.jctc.7b00174)


                         Additional Contributions by
    P. Kraus, H. Kruse, M. H. Lechner, M. C. Schieber, R. A. Shaw,
    A. Alenaizan, R. Galvelis, Z. L. Glick, S. Lehtola, and J. P. Misiewicz

    -----------------------------------------------------------------------


    Psi4 started on: Tuesday, 24 August 2021 06:11AM

    Process ID: 20342
    Host:       r282
    PSIDATADIR: /home/r09543063/miniconda3/envs/p4env/share/psi4
    Memory:     500.0 MiB
    Threads:    1
    
  ==> Input File <==

--------------------------------------------------------------------------
# Any line starting with the # character is a comment line
#! Sample  computation

memory 22 gb

molecule Dimer {
0 1
  C    1.958822371   0.063448473   0.000000000
  O    1.374415430   1.134060225   0.000000000
  O    1.357670707  -1.110782181   0.000000000
  H    0.356229651  -1.021533495   0.000000000
  C    3.458528481  -0.051128874   0.000000000
  H    3.907842909   0.935707469   0.000000000
  H    3.782529378  -0.610419823  -0.876633742
  H    3.782529378  -0.610419823   0.876633742





 --
0 1
  H   -2.148027033   2.014024425   0.000000000
  H   -0.533952319   1.324702852   0.000000000
  H   -4.082057063   0.793494877   0.000000000
  H   -3.862258941  -0.733787696   0.877448542
  H   -3.862258941  -0.733787696  -0.877448542
  O   -1.351280720  -1.037330421   0.000000000
  C   -2.061646288  -0.027415327   0.000000000
  N   -1.549851249   1.210085882   0.000000000
  C   -3.564344714  -0.162939244   0.000000000




units angstrom

no_reorient
symmetry c1
}

set globals{
  basis jun-cc-pVTZ
  scf_type DF 
  freeze_core True
}

energy('sapt0')


--------------------------------------------------------------------------

  Memory set to  20.489 GiB by Python driver.

  //>>>>>>>>>>>>>>>>>>>>>>>>>>>>>>>>>>>//
  //              Dimer HF             //
  //<<<<<<<<<<<<<<<<<<<<<<<<<<<<<<<<<<<//


*** tstart() called on r282
*** at Tue Aug 24 06:11:33 2021

   => Loading Basis Set <=

    Name: JUN-CC-PVTZ
    Role: ORBITAL
    Keyword: BASIS
    atoms 1, 5, 15, 17 entry C          line   217 file /home/r09543063/miniconda3/envs/p4env/share/psi4/basis/jun-cc-pvtz.gbs 
    atoms 2-3, 14      entry O          line   305 file /home/r09543063/miniconda3/envs/p4env/share/psi4/basis/jun-cc-pvtz.gbs 
    atoms 4, 6-13      entry H          line    36 file /home/r09543063/miniconda3/envs/p4env/share/psi4/basis/jun-cc-pvtz.gbs 
    atoms 16           entry N          line   261 file /home/r09543063/miniconda3/envs/p4env/share/psi4/basis/jun-cc-pvtz.gbs 


         ---------------------------------------------------------
                                   SCF
               by Justin Turney, Rob Parrish, Andy Simmonett
                          and Daniel G. A. Smith
                              RHF Reference
                        1 Threads,  20980 MiB Core
         ---------------------------------------------------------

  ==> Geometry <==

    Molecular point group: c1
    Full point group: Cs

    Geometry (in Angstrom), charge = 0, multiplicity = 1:

       Center              X                  Y                   Z               Mass       
    ------------   -----------------  -----------------  -----------------  -----------------
         C            1.999144919938     0.063806040520     0.000000000000    12.000000000000
         O            1.414737978938     1.134417792520     0.000000000000    15.994914619570
         O            1.397993255938    -1.110424613480     0.000000000000    15.994914619570
         H            0.396552199938    -1.021175927480     0.000000000000     1.007825032230
         C            3.498851029938    -0.050771306480     0.000000000000    12.000000000000
         H            3.948165457938     0.936065036520     0.000000000000     1.007825032230
         H            3.822851926938    -0.610062255480    -0.876633742000     1.007825032230
         H            3.822851926938    -0.610062255480     0.876633742000     1.007825032230
         H           -2.107704484062     2.014381992520     0.000000000000     1.007825032230
         H           -0.493629770062     1.325060419520     0.000000000000     1.007825032230
         H           -4.041734514062     0.793852444520     0.000000000000     1.007825032230
         H           -3.821936392062    -0.733430128480     0.877448542000     1.007825032230
         H           -3.821936392062    -0.733430128480    -0.877448542000     1.007825032230
         O           -1.310958171062    -1.036972853480     0.000000000000    15.994914619570
         C           -2.021323739062    -0.027057759480     0.000000000000    12.000000000000
         N           -1.509528700062     1.210443449520     0.000000000000    14.003074004430
         C           -3.524022165062    -0.162581676480     0.000000000000    12.000000000000

  Running in c1 symmetry.

  Rotational constants: A =      0.18365  B =      0.02743  C =      0.02407 [cm^-1]
  Rotational constants: A =   5505.69445  B =    822.23149  C =    721.72926 [MHz]
  Nuclear repulsion =  375.908272559365059

  Charge       = 0
  Multiplicity = 1
  Electrons    = 64
  Nalpha       = 32
  Nbeta        = 32

  ==> Algorithm <==

  SCF Algorithm Type is DF.
  DIIS enabled.
  MOM disabled.
  Fractional occupation disabled.
  Guess Type is SAD.
  Energy threshold   = 1.00e-08
  Density threshold  = 1.00e-08
  Integral threshold = 0.00e+00

  ==> Primary Basis <==

  Basis Set: JUN-CC-PVTZ
    Blend: JUN-CC-PVTZ
    Number of shells: 158
    Number of basis function: 438
    Number of Cartesian functions: 495
    Spherical Harmonics?: true
    Max angular momentum: 3

   => Loading Basis Set <=

    Name: (JUN-CC-PVTZ AUX)
    Role: JKFIT
    Keyword: DF_BASIS_SCF
    atoms 1, 5, 15, 17 entry C          line   152 file /home/r09543063/miniconda3/envs/p4env/share/psi4/basis/jun-cc-pvtz-jkfit.gbs 
    atoms 2-3, 14      entry O          line   272 file /home/r09543063/miniconda3/envs/p4env/share/psi4/basis/jun-cc-pvtz-jkfit.gbs 
    atoms 4, 6-13      entry H          line    70 file /home/r09543063/miniconda3/envs/p4env/share/psi4/basis/jun-cc-pvtz-jkfit.gbs 
    atoms 16           entry N          line   212 file /home/r09543063/miniconda3/envs/p4env/share/psi4/basis/jun-cc-pvtz-jkfit.gbs 

  ==> Pre-Iterations <==

   -------------------------------------------------------
    Irrep   Nso     Nmo     Nalpha   Nbeta   Ndocc  Nsocc
   -------------------------------------------------------
     A        438     438       0       0       0       0
   -------------------------------------------------------
    Total     438     438      32      32      32       0
   -------------------------------------------------------

  ==> Integral Setup <==

  ==> DiskDFJK: Density-Fitted J/K Matrices <==

    J tasked:                  Yes
    K tasked:                  Yes
    wK tasked:                  No
    OpenMP threads:              1
    Integrals threads:           1
    Memory [MiB]:            15735
    Algorithm:                Core
    Integral Cache:           SAVE
    Schwarz Cutoff:          1E-12
    Fitting Condition:       1E-10

   => Auxiliary Basis Set <=

  Basis Set: (JUN-CC-PVTZ AUX)
    Blend: JUN-CC-PVTZ-JKFIT
    Number of shells: 322
    Number of basis function: 1030
    Number of Cartesian functions: 1243
    Spherical Harmonics?: true
    Max angular momentum: 4

  Minimum eigenvalue in the overlap matrix is 4.5647555838E-05.
  Using Symmetric Orthogonalization.

  SCF Guess: Superposition of Atomic Densities via on-the-fly atomic UHF.

  ==> Iterations <==

                           Total Energy        Delta E     RMS |[F,P]|

   @DF-RHF iter SAD:  -434.50113956996216   -4.34501e+02   0.00000e+00 
   @DF-RHF iter   1:  -435.68975635082023   -1.18862e+00   1.85015e-03 DIIS
   @DF-RHF iter   2:  -435.91704568905936   -2.27289e-01   1.02188e-03 DIIS
   @DF-RHF iter   3:  -435.98160792915075   -6.45622e-02   1.85918e-04 DIIS
   @DF-RHF iter   4:  -435.98558661337415   -3.97868e-03   7.98449e-05 DIIS
   @DF-RHF iter   5:  -435.98635841466853   -7.71801e-04   1.72015e-05 DIIS
   @DF-RHF iter   6:  -435.98641212816210   -5.37135e-05   8.53913e-06 DIIS
   @DF-RHF iter   7:  -435.98642410864824   -1.19805e-05   2.70043e-06 DIIS
   @DF-RHF iter   8:  -435.98642631549461   -2.20685e-06   9.75712e-07 DIIS
   @DF-RHF iter   9:  -435.98642659542713   -2.79933e-07   3.75946e-07 DIIS
   @DF-RHF iter  10:  -435.98642662530239   -2.98753e-08   1.16250e-07 DIIS
   @DF-RHF iter  11:  -435.98642662791474   -2.61235e-09   4.28190e-08 DIIS
   @DF-RHF iter  12:  -435.98642662813455   -2.19814e-10   1.38950e-08 DIIS
   @DF-RHF iter  13:  -435.98642662816212   -2.75691e-11   3.39433e-09 DIIS
  Energy and wave function converged.


  ==> Post-Iterations <==

    Orbital Energies [Eh]
    ---------------------

    Doubly Occupied:                                                      

       1A    -20.582922     2A    -20.537492     3A    -20.529603  
       4A    -15.585412     5A    -11.378525     6A    -11.365331  
       7A    -11.243896     8A    -11.233003     9A     -1.447545  
      10A     -1.390198    11A     -1.344153    12A     -1.220165  
      13A     -1.016201    14A     -1.010329    15A     -0.820919  
      16A     -0.800741    17A     -0.737960    18A     -0.706593  
      19A     -0.667644    20A     -0.665264    21A     -0.637212  
      22A     -0.623971    23A     -0.595950    24A     -0.571122  
      25A     -0.566267    26A     -0.550058    27A     -0.546548  
      28A     -0.533127    29A     -0.468485    30A     -0.453522  
      31A     -0.434263    32A     -0.422588  

    Virtual:                                                              

      33A      0.040373    34A      0.050432    35A      0.064806  
      36A      0.074298    37A      0.079840    38A      0.083024  
      39A      0.085164    40A      0.098310    41A      0.103494  
      42A      0.110145    43A      0.127879    44A      0.141680  
      45A      0.143554    46A      0.143897    47A      0.151134  
      48A      0.162469    49A      0.173845    50A      0.187553  
      51A      0.187834    52A      0.195198    53A      0.198909  
      54A      0.202709    55A      0.205161    56A      0.228298  
      57A      0.235906    58A      0.257034    59A      0.260572  
      60A      0.266310    61A      0.268135    62A      0.275708  
      63A      0.280167    64A      0.287305    65A      0.287666  
      66A      0.295664    67A      0.313372    68A      0.315531  
      69A      0.317004    70A      0.319743    71A      0.327728  
      72A      0.334505    73A      0.346027    74A      0.352581  
      75A      0.356775    76A      0.361735    77A      0.372860  
      78A      0.389305    79A      0.393480    80A      0.409559  
      81A      0.417619    82A      0.424640    83A      0.427287  
      84A      0.440902    85A      0.462391    86A      0.479472  
      87A      0.485020    88A      0.495371    89A      0.504417  
      90A      0.521764    91A      0.522583    92A      0.528952  
      93A      0.534528    94A      0.536839    95A      0.560348  
      96A      0.563752    97A      0.577736    98A      0.595965  
      99A      0.606233   100A      0.612794   101A      0.623961  
     102A      0.633380   103A      0.643936   104A      0.645854  
     105A      0.660919   106A      0.668435   107A      0.674965  
     108A      0.679592   109A      0.688339   110A      0.697696  
     111A      0.713208   112A      0.719486   113A      0.729554  
     114A      0.741097   115A      0.742154   116A      0.768171  
     117A      0.770978   118A      0.797402   119A      0.800999  
     120A      0.809166   121A      0.815136   122A      0.818309  
     123A      0.837272   124A      0.846701   125A      0.861298  
     126A      0.862139   127A      0.867702   128A      0.884457  
     129A      0.891363   130A      0.898048   131A      0.926159  
     132A      0.927833   133A      0.931223   134A      0.951119  
     135A      0.964805   136A      0.976272   137A      0.988120  
     138A      0.995229   139A      1.025661   140A      1.033909  
     141A      1.051564   142A      1.052714   143A      1.078842  
     144A      1.092548   145A      1.100755   146A      1.104158  
     147A      1.122133   148A      1.134191   149A      1.169389  
     150A      1.176309   151A      1.179534   152A      1.194100  
     153A      1.228948   154A      1.239730   155A      1.242933  
     156A      1.252943   157A      1.263937   158A      1.277700  
     159A      1.291050   160A      1.304652   161A      1.317770  
     162A      1.322063   163A      1.325761   164A      1.358950  
     165A      1.361469   166A      1.374348   167A      1.377646  
     168A      1.392739   169A      1.393935   170A      1.405785  
     171A      1.406534   172A      1.414676   173A      1.435563  
     174A      1.459379   175A      1.469925   176A      1.477762  
     177A      1.497870   178A      1.501788   179A      1.507063  
     180A      1.546026   181A      1.547717   182A      1.552117  
     183A      1.571067   184A      1.585155   185A      1.596618  
     186A      1.607023   187A      1.627270   188A      1.630683  
     189A      1.653786   190A      1.658787   191A      1.672342  
     192A      1.703414   193A      1.730006   194A      1.739038  
     195A      1.766753   196A      1.773691   197A      1.802519  
     198A      1.855619   199A      1.875995   200A      1.880430  
     201A      1.898408   202A      1.912814   203A      1.939665  
     204A      1.944507   205A      1.968833   206A      2.010433  
     207A      2.121946   208A      2.172805   209A      2.205009  
     210A      2.228299   211A      2.251388   212A      2.278723  
     213A      2.296333   214A      2.302719   215A      2.353347  
     216A      2.385560   217A      2.398698   218A      2.433171  
     219A      2.436950   220A      2.450468   221A      2.464184  
     222A      2.532090   223A      2.613453   224A      2.637516  
     225A      2.638059   226A      2.665092   227A      2.709498  
     228A      2.737000   229A      2.783292   230A      2.800438  
     231A      2.809830   232A      2.819546   233A      2.834104  
     234A      2.839757   235A      2.931863   236A      2.961114  
     237A      2.963316   238A      2.974421   239A      3.016803  
     240A      3.034005   241A      3.058943   242A      3.084703  
     243A      3.088204   244A      3.107480   245A      3.141566  
     246A      3.158419   247A      3.191088   248A      3.198397  
     249A      3.212657   250A      3.228686   251A      3.252122  
     252A      3.269733   253A      3.287756   254A      3.308057  
     255A      3.336715   256A      3.345330   257A      3.363500  
     258A      3.370683   259A      3.390656   260A      3.417808  
     261A      3.422761   262A      3.438821   263A      3.441658  
     264A      3.453743   265A      3.459715   266A      3.491044  
     267A      3.493846   268A      3.509991   269A      3.518615  
     270A      3.545947   271A      3.546581   272A      3.573086  
     273A      3.594632   274A      3.596060   275A      3.611012  
     276A      3.624961   277A      3.635690   278A      3.644057  
     279A      3.646820   280A      3.672249   281A      3.699758  
     282A      3.715151   283A      3.734514   284A      3.737708  
     285A      3.765810   286A      3.775384   287A      3.776414  
     288A      3.789071   289A      3.802535   290A      3.804299  
     291A      3.830630   292A      3.832494   293A      3.850432  
     294A      3.882970   295A      3.894049   296A      3.910184  
     297A      3.975524   298A      3.982817   299A      4.013025  
     300A      4.017580   301A      4.057632   302A      4.073502  
     303A      4.118066   304A      4.145002   305A      4.147825  
     306A      4.149937   307A      4.158977   308A      4.185446  
     309A      4.202062   310A      4.237420   311A      4.252565  
     312A      4.266753   313A      4.292095   314A      4.300633  
     315A      4.307367   316A      4.325414   317A      4.353365  
     318A      4.353715   319A      4.366437   320A      4.392603  
     321A      4.401483   322A      4.409068   323A      4.424813  
     324A      4.427125   325A      4.454677   326A      4.473626  
     327A      4.473763   328A      4.487023   329A      4.516221  
     330A      4.537323   331A      4.560365   332A      4.581356  
     333A      4.593797   334A      4.624690   335A      4.626979  
     336A      4.657766   337A      4.679803   338A      4.697506  
     339A      4.713629   340A      4.744998   341A      4.769260  
     342A      4.779516   343A      4.787255   344A      4.805997  
     345A      4.816074   346A      4.856391   347A      4.911851  
     348A      4.922502   349A      4.999101   350A      5.050944  
     351A      5.080965   352A      5.123757   353A      5.141124  
     354A      5.153414   355A      5.187781   356A      5.210360  
     357A      5.224947   358A      5.252870   359A      5.300967  
     360A      5.305967   361A      5.334193   362A      5.407101  
     363A      5.432600   364A      5.444573   365A      5.450197  
     366A      5.481894   367A      5.509332   368A      5.530333  
     369A      5.581322   370A      5.584546   371A      5.590122  
     372A      5.628144   373A      5.646452   374A      5.666456  
     375A      5.678036   376A      5.687764   377A      5.690453  
     378A      5.706375   379A      5.739491   380A      5.765433  
     381A      5.767081   382A      5.824553   383A      5.863767  
     384A      5.884890   385A      5.907111   386A      5.927235  
     387A      5.968759   388A      5.979087   389A      6.052981  
     390A      6.064188   391A      6.078198   392A      6.179900  
     393A      6.215265   394A      6.232387   395A      6.286900  
     396A      6.358355   397A      6.421084   398A      6.427198  
     399A      6.445642   400A      6.450276   401A      6.576430  
     402A      6.629235   403A      6.706714   404A      6.720488  
     405A      6.762561   406A      6.783065   407A      6.860277  
     408A      6.898162   409A      6.962147   410A      7.099794  
     411A      7.176986   412A      7.226423   413A      7.253592  
     414A      7.295160   415A      7.301740   416A      7.329465  
     417A      7.390802   418A      7.408822   419A      7.445889  
     420A      7.455898   421A      7.475074   422A      7.503563  
     423A      7.508310   424A      7.709781   425A      7.755562  
     426A      7.824407   427A      7.849238   428A      7.988338  
     429A      8.007057   430A      8.357550   431A     12.123900  
     432A     12.334733   433A     13.755982   434A     13.978563  
     435A     14.556012   436A     14.714505   437A     14.825420  
     438A     15.990385  

    Final Occupation by Irrep:
              A 
    DOCC [    32 ]

  @DF-RHF Final Energy:  -435.98642662816212

   => Energetics <=

    Nuclear Repulsion Energy =            375.9082725593650594
    One-Electron Energy =               -1342.4153828124306074
    Two-Electron Energy =                 530.5206836249034268
    Total Energy =                       -435.9864266281621212

Computation Completed


Properties will be evaluated at   0.000000,   0.000000,   0.000000 [a0]

Properties computed using the SCF density matrix

  Nuclear Dipole Moment: [e a0]
     X:    -2.1413      Y:     1.2677      Z:     0.0000

  Electronic Dipole Moment: [e a0]
     X:     1.4422      Y:    -0.5170      Z:     0.0000

  Dipole Moment: [e a0]
     X:    -0.6991      Y:     0.7507      Z:     0.0000     Total:     1.0258

  Dipole Moment: [D]
     X:    -1.7771      Y:     1.9081      Z:     0.0000     Total:     2.6074


*** tstop() called on r282 at Tue Aug 24 06:12:29 2021
Module time:
	user time   =      48.68 seconds =       0.81 minutes
	system time =       1.53 seconds =       0.03 minutes
	total time  =         56 seconds =       0.93 minutes
Total time:
	user time   =      48.68 seconds =       0.81 minutes
	system time =       1.53 seconds =       0.03 minutes
	total time  =         56 seconds =       0.93 minutes

  //>>>>>>>>>>>>>>>>>>>>>>>>>>>>>>>>>>>//
  //            Monomer A HF           //
  //<<<<<<<<<<<<<<<<<<<<<<<<<<<<<<<<<<<//


*** tstart() called on r282
*** at Tue Aug 24 06:12:29 2021

   => Loading Basis Set <=

    Name: JUN-CC-PVTZ
    Role: ORBITAL
    Keyword: BASIS
    atoms 1, 5, 15, 17 entry C          line   217 file /home/r09543063/miniconda3/envs/p4env/share/psi4/basis/jun-cc-pvtz.gbs 
    atoms 2-3, 14      entry O          line   305 file /home/r09543063/miniconda3/envs/p4env/share/psi4/basis/jun-cc-pvtz.gbs 
    atoms 4, 6-13      entry H          line    36 file /home/r09543063/miniconda3/envs/p4env/share/psi4/basis/jun-cc-pvtz.gbs 
    atoms 16           entry N          line   261 file /home/r09543063/miniconda3/envs/p4env/share/psi4/basis/jun-cc-pvtz.gbs 


         ---------------------------------------------------------
                                   SCF
               by Justin Turney, Rob Parrish, Andy Simmonett
                          and Daniel G. A. Smith
                              RHF Reference
                        1 Threads,  20980 MiB Core
         ---------------------------------------------------------

  ==> Geometry <==

    Molecular point group: c1
    Full point group: Cs

    Geometry (in Angstrom), charge = 0, multiplicity = 1:

       Center              X                  Y                   Z               Mass       
    ------------   -----------------  -----------------  -----------------  -----------------
         C            1.999144919938     0.063806040520     0.000000000000    12.000000000000
         O            1.414737978938     1.134417792520     0.000000000000    15.994914619570
         O            1.397993255938    -1.110424613480     0.000000000000    15.994914619570
         H            0.396552199938    -1.021175927480     0.000000000000     1.007825032230
         C            3.498851029938    -0.050771306480     0.000000000000    12.000000000000
         H            3.948165457938     0.936065036520     0.000000000000     1.007825032230
         H            3.822851926938    -0.610062255480    -0.876633742000     1.007825032230
         H            3.822851926938    -0.610062255480     0.876633742000     1.007825032230
      Gh(H)          -2.107704484062     2.014381992520     0.000000000000     1.007825032230
      Gh(H)          -0.493629770062     1.325060419520     0.000000000000     1.007825032230
      Gh(H)          -4.041734514062     0.793852444520     0.000000000000     1.007825032230
      Gh(H)          -3.821936392062    -0.733430128480     0.877448542000     1.007825032230
      Gh(H)          -3.821936392062    -0.733430128480    -0.877448542000     1.007825032230
      Gh(O)          -1.310958171062    -1.036972853480     0.000000000000    15.994914619570
      Gh(C)          -2.021323739062    -0.027057759480     0.000000000000    12.000000000000
      Gh(N)          -1.509528700062     1.210443449520     0.000000000000    14.003074004430
      Gh(C)          -3.524022165062    -0.162581676480     0.000000000000    12.000000000000

  Running in c1 symmetry.

  Rotational constants: A =      0.18365  B =      0.02743  C =      0.02407 [cm^-1]
  Rotational constants: A =   5505.69445  B =    822.23149  C =    721.72926 [MHz]
  Nuclear repulsion =  121.286861146871743

  Charge       = 0
  Multiplicity = 1
  Electrons    = 32
  Nalpha       = 16
  Nbeta        = 16

  ==> Algorithm <==

  SCF Algorithm Type is DF.
  DIIS enabled.
  MOM disabled.
  Fractional occupation disabled.
  Guess Type is SAD.
  Energy threshold   = 1.00e-08
  Density threshold  = 1.00e-08
  Integral threshold = 0.00e+00

  ==> Primary Basis <==

  Basis Set: JUN-CC-PVTZ
    Blend: JUN-CC-PVTZ
    Number of shells: 158
    Number of basis function: 438
    Number of Cartesian functions: 495
    Spherical Harmonics?: true
    Max angular momentum: 3

   => Loading Basis Set <=

    Name: (JUN-CC-PVTZ AUX)
    Role: JKFIT
    Keyword: DF_BASIS_SCF
    atoms 1, 5, 15, 17 entry C          line   152 file /home/r09543063/miniconda3/envs/p4env/share/psi4/basis/jun-cc-pvtz-jkfit.gbs 
    atoms 2-3, 14      entry O          line   272 file /home/r09543063/miniconda3/envs/p4env/share/psi4/basis/jun-cc-pvtz-jkfit.gbs 
    atoms 4, 6-13      entry H          line    70 file /home/r09543063/miniconda3/envs/p4env/share/psi4/basis/jun-cc-pvtz-jkfit.gbs 
    atoms 16           entry N          line   212 file /home/r09543063/miniconda3/envs/p4env/share/psi4/basis/jun-cc-pvtz-jkfit.gbs 

  ==> Pre-Iterations <==

   -------------------------------------------------------
    Irrep   Nso     Nmo     Nalpha   Nbeta   Ndocc  Nsocc
   -------------------------------------------------------
     A        438     438       0       0       0       0
   -------------------------------------------------------
    Total     438     438      16      16      16       0
   -------------------------------------------------------

  ==> Integral Setup <==

  ==> DiskDFJK: Density-Fitted J/K Matrices <==

    J tasked:                  Yes
    K tasked:                  Yes
    wK tasked:                  No
    OpenMP threads:              1
    Integrals threads:           1
    Memory [MiB]:            15735
    Algorithm:                Core
    Integral Cache:           LOAD
    Schwarz Cutoff:          1E-12
    Fitting Condition:       1E-10

   => Auxiliary Basis Set <=

  Basis Set: (JUN-CC-PVTZ AUX)
    Blend: JUN-CC-PVTZ-JKFIT
    Number of shells: 322
    Number of basis function: 1030
    Number of Cartesian functions: 1243
    Spherical Harmonics?: true
    Max angular momentum: 4

  Minimum eigenvalue in the overlap matrix is 4.5647555838E-05.
  Using Symmetric Orthogonalization.

  SCF Guess: Superposition of Atomic Densities via on-the-fly atomic UHF.

  ==> Iterations <==

                           Total Energy        Delta E     RMS |[F,P]|

   @DF-RHF iter SAD:  -227.00949180426431   -2.27009e+02   0.00000e+00 
   @DF-RHF iter   1:  -227.73992100377063   -7.30429e-01   1.37166e-03 DIIS
   @DF-RHF iter   2:  -227.85484904409071   -1.14928e-01   8.46951e-04 DIIS
   @DF-RHF iter   3:  -227.89825185392988   -4.34028e-02   1.40397e-04 DIIS
   @DF-RHF iter   4:  -227.90052449084138   -2.27264e-03   6.36655e-05 DIIS
   @DF-RHF iter   5:  -227.90102945703916   -5.04966e-04   1.51624e-05 DIIS
   @DF-RHF iter   6:  -227.90107078367834   -4.13266e-05   7.17424e-06 DIIS
   @DF-RHF iter   7:  -227.90108083468459   -1.00510e-05   2.42716e-06 DIIS
   @DF-RHF iter   8:  -227.90108257124825   -1.73656e-06   6.64158e-07 DIIS
   @DF-RHF iter   9:  -227.90108272176124   -1.50513e-07   1.40854e-07 DIIS
   @DF-RHF iter  10:  -227.90108272745562   -5.69437e-09   3.27499e-08 DIIS
   @DF-RHF iter  11:  -227.90108272768106   -2.25441e-10   7.08686e-09 DIIS
  Energy and wave function converged.


  ==> Post-Iterations <==

    Orbital Energies [Eh]
    ---------------------

    Doubly Occupied:                                                      

       1A    -20.624604     2A    -20.543619     3A    -11.388194  
       4A    -11.243617     5A     -1.470359     6A     -1.355498  
       7A     -1.025201     8A     -0.836369     9A     -0.701976  
      10A     -0.682219    11A     -0.655506    12A     -0.579068  
      13A     -0.569159    14A     -0.563580    15A     -0.477524  
      16A     -0.450997  

    Virtual:                                                              

      17A      0.030934    18A      0.044141    19A      0.056432  
      20A      0.065665    21A      0.066111    22A      0.079220  
      23A      0.080468    24A      0.093090    25A      0.100545  
      26A      0.104789    27A      0.126027    28A      0.134331  
      29A      0.138603    30A      0.139231    31A      0.146015  
      32A      0.148173    33A      0.164725    34A      0.169705  
      35A      0.173811    36A      0.189105    37A      0.191879  
      38A      0.193633    39A      0.199844    40A      0.207741  
      41A      0.208313    42A      0.220208    43A      0.239202  
      44A      0.255415    45A      0.257258    46A      0.260430  
      47A      0.281886    48A      0.282964    49A      0.284913  
      50A      0.292767    51A      0.299658    52A      0.326578  
      53A      0.328227    54A      0.335252    55A      0.343934  
      56A      0.349013    57A      0.354632    58A      0.365760  
      59A      0.367744    60A      0.368826    61A      0.377409  
      62A      0.383843    63A      0.392379    64A      0.402734  
      65A      0.410729    66A      0.424432    67A      0.425038  
      68A      0.432233    69A      0.448504    70A      0.457879  
      71A      0.472320    72A      0.490680    73A      0.491049  
      74A      0.499941    75A      0.513596    76A      0.513768  
      77A      0.516628    78A      0.530402    79A      0.561114  
      80A      0.571161    81A      0.575805    82A      0.591321  
      83A      0.614917    84A      0.620717    85A      0.623004  
      86A      0.626862    87A      0.637605    88A      0.646640  
      89A      0.665847    90A      0.666325    91A      0.671411  
      92A      0.693453    93A      0.708282    94A      0.708824  
      95A      0.728414    96A      0.728830    97A      0.743662  
      98A      0.769852    99A      0.784458   100A      0.793668  
     101A      0.797125   102A      0.801138   103A      0.825402  
     104A      0.828537   105A      0.833198   106A      0.839630  
     107A      0.844126   108A      0.848816   109A      0.861843  
     110A      0.882109   111A      0.898038   112A      0.910210  
     113A      0.926543   114A      0.929158   115A      0.941550  
     116A      0.977792   117A      0.979243   118A      0.985616  
     119A      1.002854   120A      1.004048   121A      1.015644  
     122A      1.022768   123A      1.047273   124A      1.055136  
     125A      1.065516   126A      1.078271   127A      1.097559  
     128A      1.105512   129A      1.119228   130A      1.142656  
     131A      1.168050   132A      1.183749   133A      1.190042  
     134A      1.210429   135A      1.215559   136A      1.224750  
     137A      1.239605   138A      1.253722   139A      1.266633  
     140A      1.271023   141A      1.292609   142A      1.304206  
     143A      1.308034   144A      1.320543   145A      1.336022  
     146A      1.348702   147A      1.365799   148A      1.378797  
     149A      1.400850   150A      1.410332   151A      1.411434  
     152A      1.426512   153A      1.449491   154A      1.471439  
     155A      1.472693   156A      1.485389   157A      1.485397  
     158A      1.499260   159A      1.531074   160A      1.532379  
     161A      1.541804   162A      1.549842   163A      1.570049  
     164A      1.579778   165A      1.595281   166A      1.600350  
     167A      1.612398   168A      1.637340   169A      1.656758  
     170A      1.663799   171A      1.689926   172A      1.697488  
     173A      1.719183   174A      1.726859   175A      1.768508  
     176A      1.772438   177A      1.779192   178A      1.799405  
     179A      1.849963   180A      1.859308   181A      1.873040  
     182A      1.886329   183A      1.902879   184A      1.929816  
     185A      1.955684   186A      1.958086   187A      1.991830  
     188A      2.034508   189A      2.042235   190A      2.066439  
     191A      2.107550   192A      2.154599   193A      2.199312  
     194A      2.239587   195A      2.245593   196A      2.285434  
     197A      2.312264   198A      2.352438   199A      2.365965  
     200A      2.369802   201A      2.412222   202A      2.418633  
     203A      2.432561   204A      2.460612   205A      2.469318  
     206A      2.489048   207A      2.563441   208A      2.563480  
     209A      2.628065   210A      2.636317   211A      2.656210  
     212A      2.695089   213A      2.741419   214A      2.757042  
     215A      2.782830   216A      2.820746   217A      2.825438  
     218A      2.839551   219A      2.844012   220A      2.857677  
     221A      2.939985   222A      2.951552   223A      2.958054  
     224A      2.991195   225A      3.008396   226A      3.023420  
     227A      3.097883   228A      3.102436   229A      3.148700  
     230A      3.203696   231A      3.206543   232A      3.261819  
     233A      3.290498   234A      3.309602   235A      3.343162  
     236A      3.358001   237A      3.385031   238A      3.424164  
     239A      3.426065   240A      3.434755   241A      3.482776  
     242A      3.499467   243A      3.543802   244A      3.548375  
     245A      3.583279   246A      3.592523   247A      3.606740  
     248A      3.615750   249A      3.621482   250A      3.633282  
     251A      3.673498   252A      3.681477   253A      3.706656  
     254A      3.719188   255A      3.724976   256A      3.749805  
     257A      3.770187   258A      3.772773   259A      3.792397  
     260A      3.814298   261A      3.837856   262A      3.843733  
     263A      3.859364   264A      3.874242   265A      3.874576  
     266A      3.883564   267A      3.924799   268A      3.983072  
     269A      4.004587   270A      4.007029   271A      4.041295  
     272A      4.081330   273A      4.112061   274A      4.131274  
     275A      4.139310   276A      4.152834   277A      4.189978  
     278A      4.203927   279A      4.243783   280A      4.249968  
     281A      4.281408   282A      4.286081   283A      4.294532  
     284A      4.317128   285A      4.328088   286A      4.328814  
     287A      4.335111   288A      4.339356   289A      4.385569  
     290A      4.409387   291A      4.418612   292A      4.453242  
     293A      4.466609   294A      4.504590   295A      4.514054  
     296A      4.516770   297A      4.558314   298A      4.570431  
     299A      4.604778   300A      4.609018   301A      4.633989  
     302A      4.637782   303A      4.640990   304A      4.684012  
     305A      4.707236   306A      4.731917   307A      4.751793  
     308A      4.756831   309A      4.761162   310A      4.768178  
     311A      4.773446   312A      4.776716   313A      4.780709  
     314A      4.790945   315A      4.803249   316A      4.821231  
     317A      4.850631   318A      4.854119   319A      4.879378  
     320A      4.901202   321A      4.911998   322A      4.928759  
     323A      4.939032   324A      4.988285   325A      5.009759  
     326A      5.041966   327A      5.059177   328A      5.073380  
     329A      5.097283   330A      5.115948   331A      5.118531  
     332A      5.144308   333A      5.145193   334A      5.178537  
     335A      5.187040   336A      5.190794   337A      5.294109  
     338A      5.326828   339A      5.407961   340A      5.432429  
     341A      5.434642   342A      5.498333   343A      5.551855  
     344A      5.574436   345A      5.577601   346A      5.646719  
     347A      5.653879   348A      5.665159   349A      5.678681  
     350A      5.680941   351A      5.737094   352A      5.801986  
     353A      5.860286   354A      5.871211   355A      5.889143  
     356A      5.933056   357A      5.940793   358A      5.968486  
     359A      6.011892   360A      6.047585   361A      6.074487  
     362A      6.146538   363A      6.191445   364A      6.219626  
     365A      6.260864   366A      6.267531   367A      6.298800  
     368A      6.358152   369A      6.412803   370A      6.417510  
     371A      6.438441   372A      6.441800   373A      6.510466  
     374A      6.545664   375A      6.547404   376A      6.561955  
     377A      6.678459   378A      6.717769   379A      6.727905  
     380A      6.745630   381A      6.797615   382A      6.851449  
     383A      6.885860   384A      6.898621   385A      6.986947  
     386A      7.056702   387A      7.137847   388A      7.173578  
     389A      7.265547   390A      7.282531   391A      7.326538  
     392A      7.331932   393A      7.367652   394A      7.390631  
     395A      7.439946   396A      7.441747   397A      7.459398  
     398A      7.480483   399A      7.535262   400A      7.540050  
     401A      7.657812   402A      7.770186   403A      7.777519  
     404A      7.784607   405A      7.840364   406A      7.843354  
     407A      7.882953   408A      7.912533   409A      7.973495  
     410A      8.061499   411A      8.170609   412A      8.292616  
     413A      8.477936   414A      8.867017   415A      9.082235  
     416A      9.101751   417A      9.127851   418A      9.474239  
     419A      9.783222   420A      9.850385   421A      9.872572  
     422A      9.962428   423A     10.271728   424A     10.609330  
     425A     10.945889   426A     11.518210   427A     11.544995  
     428A     11.662329   429A     11.957831   430A     12.224775  
     431A     13.710211   432A     13.845847   433A     14.552015  
     434A     14.711266   435A     42.927275   436A     46.226750  
     437A     55.960563   438A     60.809039  

    Final Occupation by Irrep:
              A 
    DOCC [    16 ]

  @DF-RHF Final Energy:  -227.90108272768106

   => Energetics <=

    Nuclear Repulsion Energy =            121.2868611468717432
    One-Electron Energy =                -552.0409064361564333
    Two-Electron Energy =                 202.8529625616036469
    Total Energy =                       -227.9010827276810573

Computation Completed


Properties will be evaluated at   0.000000,   0.000000,   0.000000 [a0]

Properties computed using the SCF density matrix

  Nuclear Dipole Moment: [e a0]
     X:   127.5192      Y:    -1.9560      Z:     0.0000

  Electronic Dipole Moment: [e a0]
     X:  -127.1999      Y:     1.1221      Z:     0.0000

  Dipole Moment: [e a0]
     X:     0.3193      Y:    -0.8339      Z:     0.0000     Total:     0.8929

  Dipole Moment: [D]
     X:     0.8115      Y:    -2.1196      Z:     0.0000     Total:     2.2696


*** tstop() called on r282 at Tue Aug 24 06:13:00 2021
Module time:
	user time   =      26.27 seconds =       0.44 minutes
	system time =       0.68 seconds =       0.01 minutes
	total time  =         31 seconds =       0.52 minutes
Total time:
	user time   =      74.96 seconds =       1.25 minutes
	system time =       2.21 seconds =       0.04 minutes
	total time  =         87 seconds =       1.45 minutes

  //>>>>>>>>>>>>>>>>>>>>>>>>>>>>>>>>>>>//
  //            Monomer B HF           //
  //<<<<<<<<<<<<<<<<<<<<<<<<<<<<<<<<<<<//


*** tstart() called on r282
*** at Tue Aug 24 06:13:00 2021

   => Loading Basis Set <=

    Name: JUN-CC-PVTZ
    Role: ORBITAL
    Keyword: BASIS
    atoms 1, 5, 15, 17 entry C          line   217 file /home/r09543063/miniconda3/envs/p4env/share/psi4/basis/jun-cc-pvtz.gbs 
    atoms 2-3, 14      entry O          line   305 file /home/r09543063/miniconda3/envs/p4env/share/psi4/basis/jun-cc-pvtz.gbs 
    atoms 4, 6-13      entry H          line    36 file /home/r09543063/miniconda3/envs/p4env/share/psi4/basis/jun-cc-pvtz.gbs 
    atoms 16           entry N          line   261 file /home/r09543063/miniconda3/envs/p4env/share/psi4/basis/jun-cc-pvtz.gbs 


         ---------------------------------------------------------
                                   SCF
               by Justin Turney, Rob Parrish, Andy Simmonett
                          and Daniel G. A. Smith
                              RHF Reference
                        1 Threads,  20980 MiB Core
         ---------------------------------------------------------

  ==> Geometry <==

    Molecular point group: c1
    Full point group: Cs

    Geometry (in Angstrom), charge = 0, multiplicity = 1:

       Center              X                  Y                   Z               Mass       
    ------------   -----------------  -----------------  -----------------  -----------------
      Gh(C)           1.999144919938     0.063806040520     0.000000000000    12.000000000000
      Gh(O)           1.414737978938     1.134417792520     0.000000000000    15.994914619570
      Gh(O)           1.397993255938    -1.110424613480     0.000000000000    15.994914619570
      Gh(H)           0.396552199938    -1.021175927480     0.000000000000     1.007825032230
      Gh(C)           3.498851029938    -0.050771306480     0.000000000000    12.000000000000
      Gh(H)           3.948165457938     0.936065036520     0.000000000000     1.007825032230
      Gh(H)           3.822851926938    -0.610062255480    -0.876633742000     1.007825032230
      Gh(H)           3.822851926938    -0.610062255480     0.876633742000     1.007825032230
         H           -2.107704484062     2.014381992520     0.000000000000     1.007825032230
         H           -0.493629770062     1.325060419520     0.000000000000     1.007825032230
         H           -4.041734514062     0.793852444520     0.000000000000     1.007825032230
         H           -3.821936392062    -0.733430128480     0.877448542000     1.007825032230
         H           -3.821936392062    -0.733430128480    -0.877448542000     1.007825032230
         O           -1.310958171062    -1.036972853480     0.000000000000    15.994914619570
         C           -2.021323739062    -0.027057759480     0.000000000000    12.000000000000
         N           -1.509528700062     1.210443449520     0.000000000000    14.003074004430
         C           -3.524022165062    -0.162581676480     0.000000000000    12.000000000000

  Running in c1 symmetry.

  Rotational constants: A =      0.18365  B =      0.02743  C =      0.02407 [cm^-1]
  Rotational constants: A =   5505.69445  B =    822.23149  C =    721.72926 [MHz]
  Nuclear repulsion =  121.955611606927647

  Charge       = 0
  Multiplicity = 1
  Electrons    = 32
  Nalpha       = 16
  Nbeta        = 16

  ==> Algorithm <==

  SCF Algorithm Type is DF.
  DIIS enabled.
  MOM disabled.
  Fractional occupation disabled.
  Guess Type is SAD.
  Energy threshold   = 1.00e-08
  Density threshold  = 1.00e-08
  Integral threshold = 0.00e+00

  ==> Primary Basis <==

  Basis Set: JUN-CC-PVTZ
    Blend: JUN-CC-PVTZ
    Number of shells: 158
    Number of basis function: 438
    Number of Cartesian functions: 495
    Spherical Harmonics?: true
    Max angular momentum: 3

   => Loading Basis Set <=

    Name: (JUN-CC-PVTZ AUX)
    Role: JKFIT
    Keyword: DF_BASIS_SCF
    atoms 1, 5, 15, 17 entry C          line   152 file /home/r09543063/miniconda3/envs/p4env/share/psi4/basis/jun-cc-pvtz-jkfit.gbs 
    atoms 2-3, 14      entry O          line   272 file /home/r09543063/miniconda3/envs/p4env/share/psi4/basis/jun-cc-pvtz-jkfit.gbs 
    atoms 4, 6-13      entry H          line    70 file /home/r09543063/miniconda3/envs/p4env/share/psi4/basis/jun-cc-pvtz-jkfit.gbs 
    atoms 16           entry N          line   212 file /home/r09543063/miniconda3/envs/p4env/share/psi4/basis/jun-cc-pvtz-jkfit.gbs 

  ==> Pre-Iterations <==

   -------------------------------------------------------
    Irrep   Nso     Nmo     Nalpha   Nbeta   Ndocc  Nsocc
   -------------------------------------------------------
     A        438     438       0       0       0       0
   -------------------------------------------------------
    Total     438     438      16      16      16       0
   -------------------------------------------------------

  ==> Integral Setup <==

  ==> DiskDFJK: Density-Fitted J/K Matrices <==

    J tasked:                  Yes
    K tasked:                  Yes
    wK tasked:                  No
    OpenMP threads:              1
    Integrals threads:           1
    Memory [MiB]:            15735
    Algorithm:                Core
    Integral Cache:           LOAD
    Schwarz Cutoff:          1E-12
    Fitting Condition:       1E-10

   => Auxiliary Basis Set <=

  Basis Set: (JUN-CC-PVTZ AUX)
    Blend: JUN-CC-PVTZ-JKFIT
    Number of shells: 322
    Number of basis function: 1030
    Number of Cartesian functions: 1243
    Spherical Harmonics?: true
    Max angular momentum: 4

  Minimum eigenvalue in the overlap matrix is 4.5647555838E-05.
  Using Symmetric Orthogonalization.

  SCF Guess: Superposition of Atomic Densities via on-the-fly atomic UHF.

  ==> Iterations <==

                           Total Energy        Delta E     RMS |[F,P]|

   @DF-RHF iter SAD:  -207.25629763628041   -2.07256e+02   0.00000e+00 
   @DF-RHF iter   1:  -207.88468221266766   -6.28385e-01   1.38612e-03 DIIS
   @DF-RHF iter   2:  -208.01303267655575   -1.28350e-01   8.39482e-04 DIIS
   @DF-RHF iter   3:  -208.05760786154391   -4.45752e-02   1.55636e-04 DIIS
   @DF-RHF iter   4:  -208.06012168137553   -2.51382e-03   6.21640e-05 DIIS
   @DF-RHF iter   5:  -208.06062509648262   -5.03415e-04   1.14777e-05 DIIS
   @DF-RHF iter   6:  -208.06065549086583   -3.03944e-05   5.34456e-06 DIIS
   @DF-RHF iter   7:  -208.06066085097660   -5.36011e-06   2.02562e-06 DIIS
   @DF-RHF iter   8:  -208.06066200591829   -1.15494e-06   6.83090e-07 DIIS
   @DF-RHF iter   9:  -208.06066215968201   -1.53764e-07   1.80776e-07 DIIS
   @DF-RHF iter  10:  -208.06066216797180   -8.28979e-09   5.97179e-08 DIIS
   @DF-RHF iter  11:  -208.06066216877679   -8.04988e-10   1.51608e-08 DIIS
   @DF-RHF iter  12:  -208.06066216882797   -5.11875e-11   3.08212e-09 DIIS
  Energy and wave function converged.


  ==> Post-Iterations <==

    Orbital Energies [Eh]
    ---------------------

    Doubly Occupied:                                                      

       1A    -20.509430     2A    -15.593976     3A    -11.351671  
       4A    -11.237818     5A     -1.368515     6A     -1.219504  
       7A     -1.005572     8A     -0.805568     9A     -0.732539  
      10A     -0.662642    11A     -0.615370    12A     -0.577217  
      13A     -0.564877    14A     -0.524744    15A     -0.420473  
      16A     -0.413125  

    Virtual:                                                              

      17A      0.035393    18A      0.040368    19A      0.056371  
      20A      0.070936    21A      0.074237    22A      0.075543  
      23A      0.080111    24A      0.093750    25A      0.101633  
      26A      0.108335    27A      0.125625    28A      0.132972  
      29A      0.135839    30A      0.140261    31A      0.148672  
      32A      0.150861    33A      0.167513    34A      0.170956  
      35A      0.177394    36A      0.186251    37A      0.194966  
      38A      0.198550    39A      0.205267    40A      0.217070  
      41A      0.226880    42A      0.227776    43A      0.236404  
      44A      0.261874    45A      0.269298    46A      0.270234  
      47A      0.277024    48A      0.282650    49A      0.286378  
      50A      0.291111    51A      0.302234    52A      0.318350  
      53A      0.319075    54A      0.327626    55A      0.339162  
      56A      0.345377    57A      0.359615    58A      0.363190  
      59A      0.375658    60A      0.376356    61A      0.380626  
      62A      0.382619    63A      0.392409    64A      0.410609  
      65A      0.422911    66A      0.431085    67A      0.434333  
      68A      0.451552    69A      0.465350    70A      0.473301  
      71A      0.484184    72A      0.487212    73A      0.497478  
      74A      0.504481    75A      0.506459    76A      0.509749  
      77A      0.523716    78A      0.533987    79A      0.550757  
      80A      0.552239    81A      0.576328    82A      0.587229  
      83A      0.587941    84A      0.597808    85A      0.614358  
      86A      0.619007    87A      0.627499    88A      0.633801  
      89A      0.658355    90A      0.660347    91A      0.677823  
      92A      0.693864    93A      0.714300    94A      0.726447  
      95A      0.731140    96A      0.747189    97A      0.766899  
      98A      0.767420    99A      0.777411   100A      0.795494  
     101A      0.800670   102A      0.821180   103A      0.825122  
     104A      0.836626   105A      0.843246   106A      0.868110  
     107A      0.871392   108A      0.882860   109A      0.896186  
     110A      0.911765   111A      0.926272   112A      0.942442  
     113A      0.943036   114A      0.959502   115A      0.972675  
     116A      0.975200   117A      1.000330   118A      1.008368  
     119A      1.012328   120A      1.030478   121A      1.043771  
     122A      1.053224   123A      1.058635   124A      1.066518  
     125A      1.068095   126A      1.071308   127A      1.089412  
     128A      1.095706   129A      1.118299   130A      1.134152  
     131A      1.140555   132A      1.145278   133A      1.170624  
     134A      1.175164   135A      1.201771   136A      1.210810  
     137A      1.215948   138A      1.221818   139A      1.242377  
     140A      1.246941   141A      1.266915   142A      1.285406  
     143A      1.299987   144A      1.301647   145A      1.325268  
     146A      1.337869   147A      1.339546   148A      1.362174  
     149A      1.379446   150A      1.392250   151A      1.394451  
     152A      1.401387   153A      1.412828   154A      1.427926  
     155A      1.442016   156A      1.445171   157A      1.467359  
     158A      1.484659   159A      1.502861   160A      1.520944  
     161A      1.530772   162A      1.552680   163A      1.558817  
     164A      1.570355   165A      1.588168   166A      1.604334  
     167A      1.618011   168A      1.646915   169A      1.651646  
     170A      1.663152   171A      1.683398   172A      1.717290  
     173A      1.729086   174A      1.745236   175A      1.746919  
     176A      1.790067   177A      1.798902   178A      1.850147  
     179A      1.858990   180A      1.880161   181A      1.894432  
     182A      1.903924   183A      1.909014   184A      1.919919  
     185A      1.962591   186A      1.972083   187A      1.976020  
     188A      1.981539   189A      2.035256   190A      2.058778  
     191A      2.121178   192A      2.134341   193A      2.158812  
     194A      2.201820   195A      2.242277   196A      2.304637  
     197A      2.324180   198A      2.339927   199A      2.386889  
     200A      2.399155   201A      2.441926   202A      2.469201  
     203A      2.479334   204A      2.503803   205A      2.588428  
     206A      2.606942   207A      2.624845   208A      2.626740  
     209A      2.715606   210A      2.743407   211A      2.774118  
     212A      2.780391   213A      2.806195   214A      2.825658  
     215A      2.830332   216A      2.892220   217A      2.904796  
     218A      2.940229   219A      2.977249   220A      2.978062  
     221A      2.994947   222A      3.002689   223A      3.018134  
     224A      3.047530   225A      3.054495   226A      3.077559  
     227A      3.092393   228A      3.137506   229A      3.165101  
     230A      3.209693   231A      3.242615   232A      3.263044  
     233A      3.281143   234A      3.312868   235A      3.359693  
     236A      3.383354   237A      3.412404   238A      3.416962  
     239A      3.438058   240A      3.457987   241A      3.464672  
     242A      3.479722   243A      3.498719   244A      3.531546  
     245A      3.541509   246A      3.547087   247A      3.566732  
     248A      3.580157   249A      3.594664   250A      3.609461  
     251A      3.624277   252A      3.631170   253A      3.648585  
     254A      3.656663   255A      3.659869   256A      3.688091  
     257A      3.696157   258A      3.743259   259A      3.774351  
     260A      3.781033   261A      3.792118   262A      3.802576  
     263A      3.817111   264A      3.866261   265A      3.872240  
     266A      3.880581   267A      3.906877   268A      3.944863  
     269A      3.964840   270A      3.982874   271A      3.990517  
     272A      3.997673   273A      4.013267   274A      4.036749  
     275A      4.074175   276A      4.120590   277A      4.120611  
     278A      4.133578   279A      4.154088   280A      4.162105  
     281A      4.172043   282A      4.238732   283A      4.247485  
     284A      4.275770   285A      4.277250   286A      4.302799  
     287A      4.315247   288A      4.341907   289A      4.353869  
     290A      4.368973   291A      4.370084   292A      4.391817  
     293A      4.402175   294A      4.409121   295A      4.439170  
     296A      4.446409   297A      4.461201   298A      4.488206  
     299A      4.508096   300A      4.514475   301A      4.514872  
     302A      4.541191   303A      4.553770   304A      4.583128  
     305A      4.599306   306A      4.629828   307A      4.654134  
     308A      4.654348   309A      4.690802   310A      4.728096  
     311A      4.743127   312A      4.752518   313A      4.760800  
     314A      4.773332   315A      4.778953   316A      4.793421  
     317A      4.807965   318A      4.831712   319A      4.852081  
     320A      4.857224   321A      4.873893   322A      4.908893  
     323A      4.919877   324A      4.925780   325A      4.947556  
     326A      4.966347   327A      5.003454   328A      5.008591  
     329A      5.062211   330A      5.114063   331A      5.119126  
     332A      5.131228   333A      5.139860   334A      5.171784  
     335A      5.209563   336A      5.216472   337A      5.229404  
     338A      5.242695   339A      5.268175   340A      5.327438  
     341A      5.347234   342A      5.408656   343A      5.435178  
     344A      5.437511   345A      5.486896   346A      5.504491  
     347A      5.544011   348A      5.618578   349A      5.619365  
     350A      5.632049   351A      5.670583   352A      5.685187  
     353A      5.693736   354A      5.695170   355A      5.742697  
     356A      5.774673   357A      5.786260   358A      5.891750  
     359A      5.943231   360A      5.965292   361A      5.982216  
     362A      5.991825   363A      6.058869   364A      6.067094  
     365A      6.082559   366A      6.144225   367A      6.170531  
     368A      6.192738   369A      6.253020   370A      6.278070  
     371A      6.279342   372A      6.348812   373A      6.427234  
     374A      6.437202   375A      6.442665   376A      6.477610  
     377A      6.516954   378A      6.530828   379A      6.648239  
     380A      6.703589   381A      6.733069   382A      6.772919  
     383A      6.779834   384A      6.801226   385A      6.874694  
     386A      7.029744   387A      7.142973   388A      7.168639  
     389A      7.211381   390A      7.255252   391A      7.267061  
     392A      7.368480   393A      7.466627   394A      7.477992  
     395A      7.521299   396A      7.529583   397A      7.554855  
     398A      7.609384   399A      7.743715   400A      7.751991  
     401A      7.792588   402A      7.824671   403A      7.860459  
     404A      7.911213   405A      8.010916   406A      8.039188  
     407A      8.141744   408A      8.342892   409A      8.714095  
     410A      8.885575   411A      9.135818   412A      9.463981  
     413A      9.721310   414A      9.769917   415A      9.863716  
     416A      9.899866   417A      9.901606   418A      9.938741  
     419A      9.975167   420A     10.111763   421A     10.407492  
     422A     10.547066   423A     11.034057   424A     11.346420  
     425A     11.549729   426A     11.613768   427A     11.980270  
     428A     12.258457   429A     13.104353   430A     13.779333  
     431A     13.980920   432A     14.059739   433A     14.823070  
     434A     15.975808   435A     43.274487   436A     46.026700  
     437A     61.018198   438A     61.682970  

    Final Occupation by Irrep:
              A 
    DOCC [    16 ]

  @DF-RHF Final Energy:  -208.06066216882797

   => Energetics <=

    Nuclear Repulsion Energy =            121.9556116069276470
    One-Electron Energy =                -524.8264645564579496
    Two-Electron Energy =                 194.8101907807023565
    Total Energy =                       -208.0606621688279745

Computation Completed


Properties will be evaluated at   0.000000,   0.000000,   0.000000 [a0]

Properties computed using the SCF density matrix

  Nuclear Dipole Moment: [e a0]
     X:  -129.6605      Y:     3.2237      Z:     0.0000

  Electronic Dipole Moment: [e a0]
     X:   128.8944      Y:    -1.6593      Z:     0.0000

  Dipole Moment: [e a0]
     X:    -0.7661      Y:     1.5644      Z:     0.0000     Total:     1.7419

  Dipole Moment: [D]
     X:    -1.9473      Y:     3.9764      Z:     0.0000     Total:     4.4276


*** tstop() called on r282 at Tue Aug 24 06:13:31 2021
Module time:
	user time   =      28.91 seconds =       0.48 minutes
	system time =       0.92 seconds =       0.02 minutes
	total time  =         31 seconds =       0.52 minutes
Total time:
	user time   =     103.87 seconds =       1.73 minutes
	system time =       3.13 seconds =       0.05 minutes
	total time  =        118 seconds =       1.97 minutes
  Constructing Basis Sets for SAPT...

   => Loading Basis Set <=

    Name: (JUN-CC-PVTZ AUX)
    Role: RIFIT
    Keyword: DF_BASIS_SAPT
    atoms 1, 5, 15, 17 entry C          line   132 file /home/r09543063/miniconda3/envs/p4env/share/psi4/basis/jun-cc-pvtz-ri.gbs 
    atoms 2-3, 14      entry O          line   244 file /home/r09543063/miniconda3/envs/p4env/share/psi4/basis/jun-cc-pvtz-ri.gbs 
    atoms 4, 6-13      entry H          line    30 file /home/r09543063/miniconda3/envs/p4env/share/psi4/basis/jun-cc-pvtz-ri.gbs 
    atoms 16           entry N          line   188 file /home/r09543063/miniconda3/envs/p4env/share/psi4/basis/jun-cc-pvtz-ri.gbs 


  //>>>>>>>>>>>>>>>>>>>>>>>>>>>>>>>>>>>//
  //               SAPT0               //
  //<<<<<<<<<<<<<<<<<<<<<<<<<<<<<<<<<<<//


*** tstart() called on r282
*** at Tue Aug 24 06:13:31 2021

        SAPT0  
    Ed Hohenstein
     6 June 2009

      Orbital Information
  --------------------------
    NSO        =       438
    NMO        =       438
    NRI        =      1046
    NOCC A     =        16
    NOCC B     =        16
    FOCC A     =         4
    FOCC B     =         4
    NVIR A     =       422
    NVIR B     =       422

    Elst10,r            =    -0.045296185515 [Eh]
    Exch10              =     0.040039720102 [Eh]
    Exch10 (S^2)        =     0.039489359866 [Eh]

    Iter     Energy [mEh]          dE [mEh]         Residual      Time [s]
       1      -7.50594894       7.505948939      17.983116147             1
       2      -8.68068141       1.174732468       9.950406333             2
       3      -9.31062150       0.629940096       2.447904876             2
       4      -9.24033962      -0.070281883       0.965925498             3
       5      -9.23057685      -0.009762768       0.268964600             4
       6      -9.23867779       0.008100937       0.074551005             4
       7      -9.23853996      -0.000137832       0.020422335             5
       8      -9.23806088      -0.000479074       0.005111225             6
       9      -9.23809978       0.000038893       0.001522931             6
      10      -9.23811516       0.000015387       0.000491533             7
      11      -9.23811556       0.000000399       0.000118076             8
      12      -9.23811340      -0.000002158       0.000026741             9
      13      -9.23811358       0.000000175       0.000007949             9
      14      -9.23811368       0.000000098       0.000001524            10
      15      -9.23811366      -0.000000015       0.000000289            11

    CHF Iterations converged


    Iter     Energy [mEh]          dE [mEh]         Residual      Time [s]
       1     -10.50003334      10.500033344      23.344294252             1
       2     -12.46073012       1.960696778      13.383006607             1
       3     -13.51363993       1.052909804       3.239129693             2
       4     -13.41777323      -0.095866692       1.291190468             3
       5     -13.39819388      -0.019579353       0.365786403             4
       6     -13.40949797       0.011304093       0.139331176             4
       7     -13.41126592       0.001767943       0.033972273             5
       8     -13.41047638      -0.000789539       0.010180371             6
       9     -13.41037504      -0.000101339       0.002734025             7
      10     -13.41042156       0.000046520       0.000631683             7
      11     -13.41042607       0.000004505       0.000132573             8
      12     -13.41042410      -0.000001968       0.000037107             9
      13     -13.41042377      -0.000000324       0.000010639             9
      14     -13.41042397       0.000000201       0.000002106            10
      15     -13.41042395      -0.000000022       0.000000455            11

    CHF Iterations converged

    Ind20,r (A<-B)      =    -0.009238113662 [Eh]
    Ind20,r (B<-A)      =    -0.013410423953 [Eh]
    Ind20,r             =    -0.022648537615 [Eh]
    Exch-Ind20,r (A<-B) =     0.005016594551 [Eh]
    Exch-Ind20,r (B<-A) =     0.006410430596 [Eh]
    Exch-Ind20,r        =     0.011427025147 [Eh]
    Disp20              =    -0.013785625474 [Eh]
    Disp20 (SS)         =    -0.006892812737 [Eh]
    Disp20 (OS)         =    -0.006892812737 [Eh]
    Exch-Disp20         =     0.002659737031 [Eh]
    Exch-Disp20 (SS)    =     0.001676832580 [Eh]
    Exch-Disp20 (OS)    =     0.000982904451 [Eh]

    SAPT Results 
  --------------------------------------------------------------------------------------------------------
    Electrostatics                -45.29618552 [mEh]     -28.42378554 [kcal/mol]    -118.92511869 [kJ/mol]
      Elst10,r                    -45.29618552 [mEh]     -28.42378554 [kcal/mol]    -118.92511869 [kJ/mol]

    Exchange                       40.03972010 [mEh]      25.12530369 [kcal/mol]     105.12427065 [kJ/mol]
      Exch10                       40.03972010 [mEh]      25.12530369 [kcal/mol]     105.12427065 [kJ/mol]
      Exch10(S^2)                  39.48935987 [mEh]      24.77994743 [kcal/mol]     103.67930004 [kJ/mol]

    Induction                     -19.42526624 [mEh]     -12.18953860 [kcal/mol]     -51.00102949 [kJ/mol]
      Ind20,r                     -22.64853761 [mEh]     -14.21217192 [kcal/mol]     -59.46372732 [kJ/mol]
      Exch-Ind20,r                 11.42702515 [mEh]       7.17056654 [kcal/mol]      30.00165039 [kJ/mol]
      delta HF,r (2)               -8.20375377 [mEh]      -5.14793321 [kcal/mol]     -21.53895256 [kJ/mol]

    Dispersion                    -11.12588844 [mEh]      -6.98160040 [kcal/mol]     -29.21101608 [kJ/mol]
      Disp20                      -13.78562547 [mEh]      -8.65061059 [kcal/mol]     -36.19415470 [kJ/mol]
      Exch-Disp20                   2.65973703 [mEh]       1.66901018 [kcal/mol]       6.98313861 [kJ/mol]
      Disp20 (SS)                  -6.89281274 [mEh]      -4.32530529 [kcal/mol]     -18.09707735 [kJ/mol]
      Disp20 (OS)                  -6.89281274 [mEh]      -4.32530529 [kcal/mol]     -18.09707735 [kJ/mol]
      Exch-Disp20 (SS)              1.67683258 [mEh]       1.05222833 [kcal/mol]       4.40252333 [kJ/mol]
      Exch-Disp20 (OS)              0.98290445 [mEh]       0.61678186 [kcal/mol]       2.58061528 [kJ/mol]

  Total HF                        -24.68173165 [mEh]     -15.48802044 [kcal/mol]     -64.80187753 [kJ/mol]
  Total SAPT0                     -35.80762010 [mEh]     -22.46962084 [kcal/mol]     -94.01289361 [kJ/mol]

  Special recipe for scaled SAPT0 (see Manual):
    Electrostatics sSAPT0         -45.29618552 [mEh]     -28.42378554 [kcal/mol]    -118.92511869 [kJ/mol]
    Exchange sSAPT0                40.03972010 [mEh]      25.12530369 [kcal/mol]     105.12427065 [kJ/mol]
    Induction sSAPT0              -18.94080385 [mEh]     -11.88553386 [kcal/mol]     -49.72907367 [kJ/mol]
    Dispersion sSAPT0             -11.01312571 [mEh]      -6.91084072 [kcal/mol]     -28.91495758 [kJ/mol]
  Total sSAPT0                    -35.21039498 [mEh]     -22.09485643 [kcal/mol]     -92.44487929 [kJ/mol]
  --------------------------------------------------------------------------------------------------------

*** tstop() called on r282 at Tue Aug 24 06:14:49 2021
Module time:
	user time   =      60.76 seconds =       1.01 minutes
	system time =      15.51 seconds =       0.26 minutes
	total time  =         78 seconds =       1.30 minutes
Total time:
	user time   =     164.75 seconds =       2.75 minutes
	system time =      18.64 seconds =       0.31 minutes
	total time  =        196 seconds =       3.27 minutes

    Psi4 stopped on: Tuesday, 24 August 2021 06:14AM
    Psi4 wall time for execution: 0:03:15.89

*** Psi4 exiting successfully. Buy a developer a beer!
